INSANE! Membrane UpperLeaflet>loPI:POPI:DPPI:PYPI:ERGO=20.0:5.0:3.0:2.0:10.0 LowerLeaflet>PSPI:POPI:POPS:YOPS:POPE:YOPE:POPC:YOPC:ERGO=6.0:14.0:21.0:9.0:9.0:21.0:12.0:48.0:60.0
48947
    1loPI    C1    1  18.143   7.614  10.315  0.0353  0.2190 -0.0682
    1loPI    C2    2  18.541   7.652  10.298  0.0599  0.0709  0.1401
    1loPI    C3    3  18.359   7.362  10.091  0.0567  0.1526  0.0270
    1loPI   PO4    4  18.004   7.938  10.296 -0.1882  0.1112  0.1952
    1loPI   GL1    5  17.939   8.206   9.904  0.0591  0.1293  0.2230
    1loPI   GL2    6  17.739   8.584   9.899 -0.0552  0.0735 -0.0379
    1loPI   C1A    7  17.842   8.093   9.503  0.0033 -0.1433 -0.1710
    1loPI   C2A    8  17.642   8.189   9.152  0.3594  0.0286 -0.1366
    1loPI   C3A    9  17.726   8.088   8.667  0.1059 -0.0644 -0.1045
    1loPI   C4A   10  17.836   7.934   8.357 -0.2607 -0.1499 -0.0887
    1loPI   C5A   11  18.203   7.880   8.076  0.0220  0.1566 -0.1254
    1loPI   C6A   12  18.421   7.885   7.574  0.1370  0.1229  0.0306
    1loPI   C1B   13  17.527   8.491   9.534 -0.0794  0.2760  0.0227
    1loPI   C2B   14  17.344   8.685   9.219 -0.1171  0.0781  0.2635
    1loPI   C3B   15  17.095   8.813   8.911  0.1148  0.1054 -0.1871
    1loPI   C4B   16  17.160   8.975   8.574 -0.0026 -0.1056 -0.5137
    2loPI    C1   17   1.047   5.176   9.989 -0.0732 -0.3061  0.0682
    2loPI    C2   18   1.092   5.366  10.338 -0.2157 -0.0204 -0.0655
    2loPI    C3   19   1.342   5.443  10.035  0.0277 -0.4098  0.0292
    2loPI   PO4   20   0.806   5.258   9.888 -0.0206  0.2674 -0.4744
    2loPI   GL1   21   0.647   5.319   9.470  0.1135  0.2695 -0.1723
    2loPI   GL2   22   0.782   5.089   9.417  0.3524  0.3097  0.2917
    2loPI   C1A   23   0.510   5.277   9.012 -0.0296  0.1116 -0.0845
    2loPI   C2A   24   0.619   5.520   8.635 -0.1822  0.1642 -0.0148
    2loPI   C3A   25   0.696   5.561   8.275  0.0538  0.0407 -0.1033
    2loPI   C4A   26   0.678   5.659   7.825 -0.3762 -0.0809  0.1027
    2loPI   C5A   27   0.419   6.035   7.631 -0.1339  0.0707 -0.2213
    2loPI   C6A   28   0.042   6.266   7.393  0.1794 -0.4630 -0.1021
    2loPI   C1B   29   0.876   4.901   9.055 -0.3445  0.4293  0.2721
    2loPI   C2B   30   0.791   4.977   8.665 -0.1239 -0.2111  0.4664
    2loPI   C3B   31   0.815   5.005   8.213  0.2316 -0.0825  0.0122
    2loPI   C4B   32   0.913   5.193   7.852 -0.1980 -0.0972  0.3299
    3loPI    C1   33  17.386   7.375  10.190  0.2035 -0.0803  0.2729
    3loPI    C2   34  17.499   7.029  10.356  0.1557 -0.3508 -0.2397
    3loPI    C3   35  17.298   7.029  10.010  0.1072  0.1916 -0.2197
    3loPI   PO4   36  17.612   7.562  10.296 -0.1477  0.3896 -0.1555
    3loPI   GL1   37  17.802   7.587   9.924  0.1233  0.0771 -0.0392
    3loPI   GL2   38  18.091   7.715   9.810  0.0266  0.0602 -0.1919
    3loPI   C1A   39  17.387   7.418   9.693 -0.1001  0.2069 -0.1370
    3loPI   C2A   40  17.062   7.407   9.372  0.1470  0.1355 -0.4386
    3loPI   C3A   41  16.985   7.528   9.041 -0.1841 -0.0826 -0.0391
    3loPI   C4A   42  16.988   7.429   8.637 -0.0222 -0.1751 -0.0410
    3loPI   C5A   43  17.344   7.450   8.301 -0.2923 -0.0768  0.0987
    3loPI   C6A   44  17.605   7.365   7.877 -0.0862 -0.1335 -0.0434
    3loPI   C1B   45  17.807   7.592   9.443 -0.2201  0.5285 -0.2413
    3loPI   C2B   46  17.548   7.598   9.127 -0.1760  0.0384  0.0816
    3loPI   C3B   47  17.473   7.641   8.704 -0.1500 -0.0226  0.0589
    3loPI   C4B   48  17.149   7.911   8.522 -0.1605 -0.1261  0.0235
    4loPI    C1   49  10.466  11.624   9.736  0.1087  0.2053  0.1515
    4loPI    C2   50  10.229  11.375   9.941 -0.1231  0.3376  0.0474
    4loPI    C3   51  10.396  11.689  10.125  0.1328  0.1348  0.1679
    4loPI   PO4   52  10.470  11.572   9.559  0.0713 -0.1149  0.1460
    4loPI   GL1   53  10.632  11.590   9.107 -0.0385 -0.0905  0.0454
    4loPI   GL2   54  10.918  11.454   9.300  0.0047  0.1498 -0.2630
    4loPI   C1A   55  10.591  11.653   8.628  0.1708  0.1167 -0.1133
    4loPI   C2A   56  10.717  11.435   8.345 -0.2098  0.0045  0.0575
    4loPI   C3A   57  10.757  11.467   7.850  0.2988 -0.3269 -0.0404
    4loPI   C4A   58  10.839  11.781   7.622  0.1209  0.1976 -0.2041
    4loPI   C5A   59  10.977  12.071   7.288 -0.1384 -0.2554 -0.1884
    4loPI   C6A   60  10.983  12.460   7.240 -0.1363 -0.0236 -0.0654
    4loPI   C1B   61  11.127  11.346   9.015  0.2574 -0.2338 -0.0378
    4loPI   C2B   62  11.469  11.532   8.697  0.0799 -0.2312  0.0173
    4loPI   C3B   63  11.706  11.578   8.258 -0.2309  0.1009 -0.1019
    4loPI   C4B   64  11.861  11.624   7.773  0.1839  0.2650 -0.0286
    5loPI    C1   65   7.554   3.258  10.502 -0.1132 -0.0459 -0.0563
    5loPI    C2   66   7.465   3.406  10.141  0.0329  0.1024 -0.0331
    5loPI    C3   67   7.209   3.160  10.326 -0.0924  0.1143 -0.1888
    5loPI   PO4   68   7.820   3.234  10.481 -0.2617  0.0282  0.1659
    5loPI   GL1   69   7.933   2.887  10.134  0.0580  0.1597 -0.0036
    5loPI   GL2   70   7.578   2.930  10.072  0.1801  0.0006 -0.0013
    5loPI   C1A   71   8.160   2.768   9.730 -0.1642 -0.3472 -0.0104
    5loPI   C2A   72   8.346   2.848   9.365 -0.0447  0.2634  0.0408
    5loPI   C3A   73   8.303   2.844   8.965  0.3486 -0.2579  0.2423
    5loPI   C4A   74   8.183   2.733   8.593 -0.5702  0.3637 -0.2123
    5loPI   C5A   75   7.795   2.581   8.367  0.0110 -0.0087  0.0944
    5loPI   C6A   76   7.761   2.639   7.936  0.2798 -0.1747 -0.2017
    5loPI   C1B   77   7.257   3.057   9.819 -0.0980  0.1138  0.2325
    5loPI   C2B   78   7.225   3.082   9.390 -0.1918  0.0323  0.4657
    5loPI   C3B   79   7.173   3.064   8.979  0.1829  0.3873  0.2797
    5loPI   C4B   80   7.173   2.981   8.533  0.1057  0.1745 -0.0616
    6loPI    C1   81  11.192  12.887   9.972 -0.2152 -0.0155 -0.2486
    6loPI    C2   82  11.273  13.277  10.003 -0.0540 -0.0794  0.2053
    6loPI    C3   83  10.944  13.127  10.174 -0.1275 -0.1404  0.0123
    6loPI   PO4   84  11.351  12.910   9.664  0.0505  0.1179 -0.0029
    6loPI   GL1   85  11.305  12.743   9.279 -0.0624  0.0079 -0.3035
    6loPI   GL2   86  11.467  12.436   9.193 -0.1425  0.0643 -0.2880
    6loPI   C1A   87  10.963  12.930   9.045  0.1713 -0.1208 -0.0242
    6loPI   C2A   88  10.799  13.244   8.776 -0.0080  0.0904  0.1565
    6loPI   C3A   89  10.863  13.314   8.380  0.0460  0.1907 -0.0852
    6loPI   C4A   90  10.875  13.325   8.008  0.0148 -0.2560  0.4210
    6loPI   C5A   91  10.774  13.459   7.555 -0.2014 -0.4234  0.0208
    6loPI   C6A   92  10.451  13.371   7.246 -0.0010 -0.4906  0.0175
    6loPI   C1B   93  11.494  12.452   8.803 -0.0657 -0.4711  0.2849
    6loPI   C2B   94  11.671  12.437   8.402  0.0244  0.1088 -0.0528
    6loPI   C3B   95  11.797  12.461   7.997 -0.0535 -0.0307 -0.1271
    6loPI   C4B   96  11.626  12.738   7.724  0.0153 -0.3300 -0.0451
    7loPI    C1   97  10.949   6.508   9.594 -0.3464 -0.0247 -0.1394
    7loPI    C2   98  10.746   6.763   9.827  0.0319  0.1546  0.0033
    7loPI    C3   99  11.004   6.505   9.990  0.0765  0.0734 -0.1924
    7loPI   PO4  100  10.970   6.692   9.410 -0.1377  0.0066 -0.0850
    7loPI   GL1  101  11.127   6.654   9.100  0.3517  0.2981 -0.0639
    7loPI   GL2  102  11.424   6.659   9.011 -0.0914 -0.0845  0.0977
    7loPI   C1A  103  10.938   6.735   8.709 -0.0158 -0.3003 -0.0569
    7loPI   C2A  104  10.620   6.816   8.345  0.0199  0.1708 -0.0998
    7loPI   C3A  105  10.639   6.747   7.942 -0.2609 -0.4417  0.1198
    7loPI   C4A  106  10.370   6.816   7.639 -0.1212  0.1249  0.0299
    7loPI   C5A  107  10.055   6.872   7.392  0.1286 -0.3920 -0.1602
    7loPI   C6A  108   9.691   6.721   7.108  0.2262  0.2861  0.3688
    7loPI   C1B  109  11.400   6.489   8.547  0.3054  0.2165 -0.1574
    7loPI   C2B  110  11.528   6.329   8.219  0.0436  0.2483  0.1503
    7loPI   C3B  111  11.374   6.364   7.797  0.2395 -0.1011 -0.1236
    7loPI   C4B  112  10.936   6.251   7.613 -0.3363  0.0639  0.1322
    8loPI    C1  113   3.100   0.952  10.478 -0.1318 -0.0502  0.1138
    8loPI    C2  114   3.056   0.802  10.846 -0.0397 -0.0607  0.1208
    8loPI    C3  115   3.260   1.142  10.792 -0.1116 -0.0227  0.0869
    8loPI   PO4  116   3.214   0.719  10.354  0.2782 -0.0999  0.0460
    8loPI   GL1  117   3.394   0.879  10.031  0.0794  0.0238 -0.0947
    8loPI   GL2  118   3.420   1.207  10.228  0.0096 -0.0938  0.1965
    8loPI   C1A  119   3.280   0.742   9.646 -0.0244  0.0197  0.0314
    8loPI   C2A  120   3.292   0.691   9.217  0.0501 -0.0704  0.2614
    8loPI   C3A  121   3.318   0.788   8.787  0.2363 -0.1129  0.1005
    8loPI   C4A  122   2.998   1.101   8.456  0.2820 -0.1900  0.4142
    8loPI   C5A  123   2.865   1.244   8.050  0.1332  0.1611 -0.1220
    8loPI   C6A  124   2.843   1.607   7.753  0.0517 -0.2091 -0.1108
    8loPI   C1B  125   3.638   1.200   9.708 -0.0131  0.3046 -0.3185
    8loPI   C2B  126   3.693   1.013   9.364 -0.1315 -0.2658  0.1525
    8loPI   C3B  127   3.759   1.031   8.937  0.1423  0.1174  0.4215
    8loPI   C4B  128   4.063   1.076   8.554 -0.0331  0.0294  0.4828
    9loPI    C1  129   4.865   5.118  10.292 -0.2964  0.0861  0.2311
    9loPI    C2  130   5.178   5.100  10.541 -0.2491 -0.0569  0.1624
    9loPI    C3  131   5.029   4.764  10.382 -0.1526  0.0479 -0.1582
    9loPI   PO4  132   4.980   5.280  10.094 -0.3682 -0.5937 -0.0261
    9loPI   GL1  133   4.731   5.420   9.724 -0.0911 -0.0042  0.0158
    9loPI   GL2  134   4.461   5.407   9.562  0.0269 -0.2374 -0.0115
    9loPI   C1A  135   4.938   5.084   9.422 -0.0402 -0.2548 -0.1700
    9loPI   C2A  136   5.352   4.984   9.308  0.0698 -0.0131 -0.3950
    9loPI   C3A  137   5.495   5.097   8.872  0.4072  0.2064  0.2349
    9loPI   C4A  138   5.582   4.835   8.464 -0.0820 -0.0093 -0.0650
    9loPI   C5A  139   5.829   4.711   8.106 -0.0579  0.2125  0.0434
    9loPI   C6A  140   6.136   4.982   7.912 -0.0956  0.0874 -0.1793
    9loPI   C1B  141   4.487   5.329   9.094  0.0860 -0.3886 -0.0365
    9loPI   C2B  142   4.344   5.115   8.734 -0.1927 -0.1300  0.0803
    9loPI   C3B  143   4.441   4.877   8.309 -0.2231 -0.1232 -0.1209
    9loPI   C4B  144   4.678   4.775   7.947 -0.1339 -0.0544 -0.3344
   10loPI    C1  145   3.276   2.236  10.438 -0.1510  0.3826  0.2440
   10loPI    C2  146   3.584   2.311  10.682  0.1104  0.1113  0.0066
   10loPI    C3  147   3.312   2.036  10.782  0.2678 -0.0657 -0.0457
   10loPI   PO4  148   3.245   2.546  10.405  0.1876 -0.0909 -0.1523
   10loPI   GL1  149   3.403   2.749  10.106 -0.0161 -0.1703 -0.1331
   10loPI   GL2  150   3.212   2.522   9.848 -0.0298 -0.0980 -0.3848
   10loPI   C1A  151   3.702   2.822   9.879  0.0087 -0.3073  0.2251
   10loPI   C2A  152   3.541   2.848   9.443  0.0020 -0.0809  0.3201
   10loPI   C3A  153   3.629   2.929   8.931  0.1843  0.3496 -0.3857
   10loPI   C4A  154   3.654   2.928   8.429  0.0069  0.1065  0.0136
   10loPI   C5A  155   3.951   3.122   8.143  0.0284 -0.0262  0.1794
   10loPI   C6A  156   4.291   3.453   8.106 -0.2729 -0.1906 -0.2247
   10loPI   C1B  157   3.599   2.370   9.622 -0.1948  0.3833 -0.0747
   10loPI   C2B  158   3.870   2.479   9.317 -0.2857 -0.0988  0.0416
   10loPI   C3B  159   3.867   2.405   8.838 -0.0259  0.0496 -0.0656
   10loPI   C4B  160   3.631   2.375   8.436  0.2680 -0.0436  0.0004
   11loPI    C1  161   5.783  16.524  10.448  0.0611  0.1551 -0.0413
   11loPI    C2  162   6.039  16.220  10.489 -0.1722 -0.0435 -0.0359
   11loPI    C3  163   5.816  16.337  10.800 -0.2078  0.0206 -0.0854
   11loPI   PO4  164   5.706  16.436  10.110 -0.3721 -0.0896 -0.0949
   11loPI   GL1  165   5.895  16.208   9.765 -0.2988  0.0575 -0.1700
   11loPI   GL2  166   5.825  16.476   9.597 -0.0037 -0.0249 -0.3429
   11loPI   C1A  167   5.875  15.930   9.523  0.0324  0.1808  0.2855
   11loPI   C2A  168   5.848  15.544   9.412  0.1644  0.1703 -0.3650
   11loPI   C3A  169   5.631  15.316   9.211 -0.0721  0.1560 -0.0788
   11loPI   C4A  170   5.600  14.981   8.859 -0.3865 -0.0317 -0.1510
   11loPI   C5A  171   5.937  15.064   8.507  0.3305  0.0476  0.0103
   11loPI   C6A  172   6.099  15.449   8.283 -0.1018  0.1278 -0.1810
   11loPI   C1B  173   5.819  16.522   9.180 -0.2122 -0.1637  0.1165
   11loPI   C2B  174   5.780  16.754   8.794 -0.0661 -0.2351 -0.1162
   11loPI   C3B  175   5.678  16.819   8.411 -0.0266 -0.0608 -0.1149
   11loPI   C4B  176   5.728  17.103   8.085  0.0954  0.0948 -0.5068
   12loPI    C1  177  14.673   5.142  10.320 -0.0957  0.0533  0.0385
   12loPI    C2  178  14.995   5.330  10.465  0.0696 -0.1493 -0.0603
   12loPI    C3  179  14.655   5.532  10.405  0.1680  0.0594  0.0743
   12loPI   PO4  180  14.697   5.080  10.029  0.0692  0.0617  0.2747
   12loPI   GL1  181  14.220   4.919   9.804  0.0330  0.0283  0.1921
   12loPI   GL2  182  14.444   4.875   9.663 -0.3098  0.0429  0.2576
   12loPI   C1A  183  14.048   4.791   9.381  0.0416  0.2395  0.4067
   12loPI   C2A  184  13.797   4.937   8.973  0.0696  0.1885  0.0041
   12loPI   C3A  185  13.736   4.944   8.670 -0.0202 -0.1932  0.1928
   12loPI   C4A  186  13.471   4.830   8.353 -0.1351  0.0699  0.0744
   12loPI   C5A  187  13.318   4.576   8.037 -0.0231  0.1549  0.1190
   12loPI   C6A  188  12.866   4.517   7.977 -0.4071  0.3336  0.0443
   12loPI   C1B  189  14.446   4.952   9.225 -0.0280 -0.1184 -0.0088
   12loPI   C2B  190  14.204   5.128   8.926 -0.3695  0.0321  0.4337
   12loPI   C3B  191  14.218   5.088   8.542  0.0593 -0.1566  0.0248
   12loPI   C4B  192  14.386   4.598   8.266  0.0548  0.2382  0.1280
   13loPI    C1  193  15.141  16.684  10.400 -0.1347  0.1472  0.0734
   13loPI    C2  194  15.111  17.060  10.533  0.1878  0.1809  0.0596
   13loPI    C3  195  15.392  16.817  10.681  0.1238  0.0131 -0.0901
   13loPI   PO4  196  15.034  16.806  10.094 -0.2554  0.0295  0.0141
   13loPI   GL1  197  15.237  16.657   9.675  0.1015  0.1703  0.4600
   13loPI   GL2  198  14.847  16.688   9.621 -0.0802 -0.3907 -0.1819
   13loPI   C1A  199  15.186  16.525   9.247 -0.3629 -0.0889 -0.2878
   13loPI   C2A  200  15.416  16.596   8.803  0.0388 -0.1525  0.1555
   13loPI   C3A  201  15.387  16.802   8.309 -0.1376  0.1883 -0.0077
   13loPI   C4A  202  15.649  17.062   7.990 -0.1179 -0.0640 -0.2047
   13loPI   C5A  203  15.661  17.245   7.540 -0.0370  0.5247  0.0755
   13loPI   C6A  204  15.673  17.191   7.161  0.2095 -0.0648  0.2824
   13loPI   C1B  205  14.775  16.703   9.072  0.1595 -0.1032 -0.0536
   13loPI   C2B  206  14.818  16.790   8.619  0.0800 -0.2421  0.2630
   13loPI   C3B  207  15.028  16.440   8.406  0.0356  0.0753 -0.2263
   13loPI   C4B  208  15.512  16.257   8.193 -0.0387  0.2095  0.0657
   14loPI    C1  209  12.511   9.123   9.894  0.0969  0.0474  0.0188
   14loPI    C2  210  12.812   8.969  10.107 -0.0621 -0.0183  0.1990
   14loPI    C3  211  12.439   8.956  10.250 -0.1766 -0.0928 -0.0990
   14loPI   PO4  212  12.532   9.032   9.687  0.2635  0.0113  0.1074
   14loPI   GL1  213  12.760   9.225   9.297  0.2630  0.2985 -0.6424
   14loPI   GL2  214  12.406   9.171   9.229  0.0093  0.0471  0.2146
   14loPI   C1A  215  13.093   9.057   9.145 -0.1197 -0.0709 -0.1324
   14loPI   C2A  216  13.085   9.065   8.716 -0.2538  0.1625 -0.0010
   14loPI   C3A  217  13.124   9.022   8.305  0.2964  0.0175  0.2515
   14loPI   C4A  218  13.105   8.815   7.823  0.0477 -0.0651  0.0584
   14loPI   C5A  219  13.140   8.563   7.472  0.1727 -0.1732  0.3881
   14loPI   C6A  220  12.968   8.182   7.456 -0.2819  0.2030  0.0738
   14loPI   C1B  221  12.470   9.081   8.851 -0.1869  0.3565 -0.2132
   14loPI   C2B  222  12.584   9.065   8.419 -0.4183  0.0079 -0.0812
   14loPI   C3B  223  12.620   8.976   7.988  0.3924  0.0134  0.2414
   14loPI   C4B  224  12.597   8.993   7.568 -0.3392 -0.2766 -0.0764
   15loPI    C1  225   4.198  13.022  10.303 -0.0206 -0.0517 -0.0828
   15loPI    C2  226   3.881  12.979  10.543 -0.1215  0.1168 -0.1835
   15loPI    C3  227   4.215  12.769  10.612 -0.1829  0.0916  0.0454
   15loPI   PO4  228   4.144  13.052  10.093 -0.1429  0.2321 -0.0197
   15loPI   GL1  229   3.926  13.024   9.822  0.4376 -0.2231  0.1786
   15loPI   GL2  230   3.662  13.152   9.799  0.1718 -0.2458 -0.0463
   15loPI   C1A  231   3.748  12.687   9.617 -0.2807  0.1384 -0.2287
   15loPI   C2A  232   3.621  12.524   9.181  0.1132 -0.0841 -0.0278
   15loPI   C3A  233   3.733  12.419   8.761  0.0756 -0.2383  0.1579
   15loPI   C4A  234   3.819  12.350   8.342  0.0232  0.0776 -0.2580
   15loPI   C5A  235   3.940  12.520   8.028 -0.1838  0.0005  0.2685
   15loPI   C6A  236   4.213  12.809   7.939 -0.1189 -0.3432 -0.1905
   15loPI   C1B  237   3.750  13.123   9.366  0.2234  0.3283 -0.2636
   15loPI   C2B  238   3.701  13.347   8.974 -0.0262 -0.3079 -0.2979
   15loPI   C3B  239   3.627  13.688   8.706 -0.1190  0.2933  0.1466
   15loPI   C4B  240   3.154  13.881   8.633 -0.0914  0.1495  0.2507
   16loPI    C1  241  16.077  11.770  10.266 -0.1007 -0.3000  0.1275
   16loPI    C2  242  16.164  11.766  10.656 -0.2198 -0.6058  0.1535
   16loPI    C3  243  16.417  11.602  10.393 -0.0625 -0.2570  0.0826
   16loPI   PO4  244  16.055  11.999  10.148 -0.1204  0.0094  0.0420
   16loPI   GL1  245  16.107  12.136   9.738  0.2045  0.1196  0.1541
   16loPI   GL2  246  15.803  11.883   9.681  0.0813 -0.2033 -0.1318
   16loPI   C1A  247  16.024  12.015   9.255  0.0879  0.0778 -0.1160
   16loPI   C2A  248  16.046  12.142   8.857 -0.1267  0.1254 -0.1366
   16loPI   C3A  249  16.099  12.290   8.419 -0.3241  0.1169 -0.0402
   16loPI   C4A  250  16.186  12.761   8.252  0.0968  0.0137 -0.1173
   16loPI   C5A  251  16.406  12.983   8.050 -0.2607  0.1228 -0.2065
   16loPI   C6A  252  16.809  13.138   8.010 -0.0088 -0.0877 -0.1190
   16loPI   C1B  253  15.546  11.717   9.332 -0.5098 -0.1692  0.1063
   16loPI   C2B  254  15.284  11.693   8.987  0.0844 -0.0893  0.4010
   16loPI   C3B  255  15.184  11.756   8.506 -0.2023  0.2797 -0.3092
   16loPI   C4B  256  15.136  11.946   8.141 -0.1089  0.0202  0.4048
   17loPI    C1  257  11.194   6.066   9.452  0.0316 -0.0797 -0.1382
   17loPI    C2  258  11.372   6.148   9.801  0.2231  0.0299 -0.2597
   17loPI    C3  259  11.351   5.770   9.671 -0.1101 -0.0491  0.0071
   17loPI   PO4  260  11.289   6.225   9.304 -0.2269  0.3195 -0.1806
   17loPI   GL1  261  11.183   6.186   8.921 -0.2550 -0.1718  0.2781
   17loPI   GL2  262  11.535   6.139   8.889  0.1751  0.0518 -0.1251
   17loPI   C1A  263  10.984   6.253   8.588  0.0824  0.0867  0.1075
   17loPI   C2A  264  10.732   6.322   8.206 -0.3671 -0.0619 -0.0226
   17loPI   C3A  265  10.538   6.162   7.862 -0.0392  0.1047 -0.2390
   17loPI   C4A  266  10.592   5.705   7.787  0.1295  0.3529  0.0447
   17loPI   C5A  267  10.728   5.355   7.644 -0.1259  0.0155 -0.1873
   17loPI   C6A  268  10.435   5.026   7.387 -0.0131 -0.1137  0.0897
   17loPI   C1B  269  11.503   5.872   8.547  0.0604 -0.2158 -0.0536
   17loPI   C2B  270  11.505   5.712   8.158  0.0073  0.0485 -0.1335
   17loPI   C3B  271  11.578   5.809   7.761 -0.2309  0.0504  0.2110
   17loPI   C4B  272  11.758   5.522   7.356 -0.2141 -0.1321 -0.0464
   18loPI    C1  273  14.545  14.239  10.143  0.0382  0.1048 -0.0683
   18loPI    C2  274  14.475  14.543   9.892 -0.0685 -0.0451 -0.2226
   18loPI    C3  275  14.329  14.553  10.264  0.0104  0.1353 -0.1957
   18loPI   PO4  276  14.485  13.941  10.043  0.4165  0.2394 -0.0704
   18loPI   GL1  277  14.555  13.565   9.821  0.1280  0.1196 -0.0224
   18loPI   GL2  278  14.884  13.742   9.920 -0.3318  0.1876  0.1558
   18loPI   C1A  279  14.662  13.326   9.350 -0.1561  0.2263  0.1976
   18loPI   C2A  280  14.861  13.313   8.892 -0.0113 -0.2272 -0.1836
   18loPI   C3A  281  14.727  13.304   8.507 -0.1301  0.2294 -0.2198
   18loPI   C4A  282  14.614  13.137   8.183 -0.0105  0.0448 -0.1892
   18loPI   C5A  283  14.719  13.478   7.901 -0.1864 -0.0303 -0.1701
   18loPI   C6A  284  15.120  13.635   7.881  0.1769  0.0531  0.0087
   18loPI   C1B  285  14.863  13.897   9.549 -0.3893  0.2399  0.0966
   18loPI   C2B  286  14.899  13.737   9.168  0.0627  0.1832 -0.0262
   18loPI   C3B  287  14.936  13.877   8.704  0.0756  0.0433 -0.3420
   18loPI   C4B  288  14.918  13.666   8.324 -0.3131  0.0281 -0.0070
   19loPI    C1  289  12.897   9.694   9.999  0.1417 -0.0286 -0.0952
   19loPI    C2  290  12.975   9.339   9.832  0.0772 -0.0699 -0.0375
   19loPI    C3  291  12.644   9.538   9.731  0.0466 -0.0872  0.0281
   19loPI   PO4  292  13.084   9.807   9.893 -0.2917  0.2068 -0.0028
   19loPI   GL1  293  13.068   9.896   9.367  0.2556  0.0143 -0.0269
   19loPI   GL2  294  12.754   9.954   9.258  0.0196 -0.0091 -0.0236
   19loPI   C1A  295  13.154   9.592   9.057  0.0132 -0.1772  0.0790
   19loPI   C2A  296  13.297   9.638   8.711  0.1696 -0.0599 -0.1044
   19loPI   C3A  297  13.696   9.626   8.462  0.0594 -0.3377 -0.1641
   19loPI   C4A  298  13.941   9.873   8.529  0.1039  0.0251 -0.0054
   19loPI   C5A  299  14.073  10.120   8.249 -0.1633 -0.1469  0.0893
   19loPI   C6A  300  14.453  10.266   8.071  0.3358 -0.1727  0.0990
   19loPI   C1B  301  12.819  10.092   8.862 -0.2899 -0.2471 -0.0899
   19loPI   C2B  302  13.003  10.042   8.391 -0.1391  0.2793 -0.1221
   19loPI   C3B  303  13.289   9.936   8.021  0.0436 -0.0193  0.2014
   19loPI   C4B  304  13.708   9.848   7.959 -0.0840 -0.3020 -0.0737
   20loPI    C1  305  15.808   1.176  10.093  0.0046  0.2594  0.0258
   20loPI    C2  306  15.779   0.948  10.420 -0.1447  0.3424  0.0713
   20loPI    C3  307  15.993   1.285  10.430  0.0321  0.2334  0.0193
   20loPI   PO4  308  15.634   1.091   9.948  0.1117 -0.0004 -0.0291
   20loPI   GL1  309  15.435   1.117   9.605 -0.0074  0.0777 -0.2382
   20loPI   GL2  310  15.449   1.389   9.605  0.1925  0.0739  0.2659
   20loPI   C1A  311  15.293   0.980   9.164 -0.1332 -0.0831  0.0360
   20loPI   C2A  312  14.962   0.916   8.962  0.0379  0.3516  0.3510
   20loPI   C3A  313  14.751   0.882   8.606  0.1506 -0.0731 -0.2803
   20loPI   C4A  314  14.693   0.957   8.220  0.3513  0.1419 -0.0235
   20loPI   C5A  315  15.033   1.183   8.036 -0.0149 -0.0431 -0.1141
   20loPI   C6A  316  15.405   1.334   8.106  0.0378  0.0901 -0.0450
   20loPI   C1B  317  15.641   1.532   9.011 -0.1505 -0.0277 -0.2282
   20loPI   C2B  318  15.656   1.416   8.618 -0.2293  0.2101 -0.0383
   20loPI   C3B  319  15.729   1.730   8.202  0.1891 -0.1949 -0.0843
   20loPI   C4B  320  15.938   1.962   7.913  0.0400  0.1201 -0.1106
   21loPI    C1  321   7.703   3.881  10.783 -0.1683 -0.0519  0.0252
   21loPI    C2  322   7.849   3.540  10.934  0.1552  0.0790  0.0173
   21loPI    C3  323   7.771   3.849  11.176 -0.2516 -0.0359  0.0411
   21loPI   PO4  324   7.500   3.808  10.547  0.2614 -0.0048 -0.0424
   21loPI   GL1  325   7.384   3.896  10.119  0.3078  0.1034 -0.0796
   21loPI   GL2  326   7.483   4.220   9.982  0.1125  0.0836 -0.2046
   21loPI   C1A  327   7.573   3.777   9.793 -0.0611 -0.0618 -0.0991
   21loPI   C2A  328   7.529   3.476   9.393 -0.0026  0.4495 -0.0100
   21loPI   C3A  329   7.539   3.475   8.958  0.0218  0.4196  0.0026
   21loPI   C4A  330   7.285   3.467   8.659  0.1242  0.2120  0.0727
   21loPI   C5A  331   6.999   3.790   8.441 -0.1918  0.1241 -0.0326
   21loPI   C6A  332   7.194   3.887   8.074  0.2624  0.1465 -0.0767
   21loPI   C1B  333   7.217   4.109   9.682  0.2684 -0.0397  0.0460
   21loPI   C2B  334   7.110   4.365   9.340 -0.2212 -0.2469 -0.2132
   21loPI   C3B  335   6.810   4.617   9.213  0.2389  0.1909 -0.0556
   21loPI   C4B  336   6.611   5.041   9.347  0.0194 -0.0369  0.1631
   22loPI    C1  337   0.219   0.315  10.581  0.0224 -0.3889  0.0828
   22loPI    C2  338   0.515   0.429  10.826 -0.2665  0.0988  0.2189
   22loPI    C3  339   0.282   0.118  10.924  0.1750 -0.2720  0.1231
   22loPI   PO4  340   0.299   0.292  10.313 -0.1383  0.1774 -0.1157
   22loPI   GL1  341   0.501   0.436  10.037  0.2035  0.1877 -0.1393
   22loPI   GL2  342   0.861   0.308  10.111  0.3104  0.0740 -0.4630
   22loPI   C1A  343   0.745   0.632   9.705 -0.0385  0.0215  0.0378
   22loPI   C2A  344   0.772   0.455   9.336  0.2656  0.1166 -0.0345
   22loPI   C3A  345   0.663   0.113   9.049 -0.0592  0.3374 -0.2393
   22loPI   C4A  346   0.591  -0.154   8.727  0.1338 -0.0836 -0.0266
   22loPI   C5A  347   0.481  -0.256   8.347 -0.1415 -0.1337 -0.0472
   22loPI   C6A  348   0.619  -0.269   7.932 -0.2664 -0.1227  0.4111
   22loPI   C1B  349   1.066   0.272   9.774  0.1794 -0.1852 -0.1373
   22loPI   C2B  350   1.133   0.146   9.398 -0.1846  0.0065  0.0387
   22loPI   C3B  351   1.233   0.045   9.026 -0.1359 -0.0365  0.1937
   22loPI   C4B  352   1.288   0.147   8.525  0.0465 -0.1630  0.0569
   23loPI    C1  353  11.066  10.344   9.538  0.2365  0.2227  0.2642
   23loPI    C2  354  10.788  10.624   9.473  0.0752  0.0266  0.0932
   23loPI    C3  355  11.005  10.632   9.809  0.0369  0.3245  0.1139
   23loPI   PO4  356  10.865  10.104   9.465  0.2598 -0.1786  0.1487
   23loPI   GL1  357  10.921   9.926   9.095 -0.0384  0.2480  0.1094
   23loPI   GL2  358  10.854  10.280   8.981 -0.1353  0.2800 -0.0091
   23loPI   C1A  359  11.103   9.949   8.638  0.2494 -0.0994 -0.0674
   23loPI   C2A  360  11.205   9.927   8.240  0.1113  0.0121  0.3755
   23loPI   C3A  361  11.218   9.541   7.996 -0.3808  0.2361 -0.0282
   23loPI   C4A  362  11.239   9.199   7.717 -0.0806 -0.1474  0.1690
   23loPI   C5A  363  11.207   9.048   7.438 -0.0136 -0.4842 -0.1612
   23loPI   C6A  364  11.002   9.281   7.098 -0.0976 -0.0111  0.1775
   23loPI   C1B  365  10.622  10.348   8.658  0.2118 -0.0243  0.0451
   23loPI   C2B  366  10.476  10.458   8.256 -0.3299 -0.1069  0.1768
   23loPI   C3B  367  10.359  10.614   7.719  0.4129 -0.3415  0.1043
   23loPI   C4B  368  10.554  10.314   7.363 -0.1325 -0.2087  0.0893
   24loPI    C1  369  18.156   5.321   9.728  0.1322  0.0986 -0.1909
   24loPI    C2  370  17.802   5.408   9.892  0.1573 -0.3565  0.1231
   24loPI    C3  371  18.139   5.512  10.080  0.1921 -0.1925 -0.0272
   24loPI   PO4  372  18.151   5.366   9.447 -0.0206 -0.4243  0.1311
   24loPI   GL1  373  18.292   5.714   9.109 -0.0606  0.0884 -0.0327
   24loPI   GL2  374  18.479   5.835   9.008  0.0639 -0.0596  0.2417
   24loPI   C1A  375  18.210   5.596   8.657 -0.0779 -0.0330 -0.1511
   24loPI   C2A  376  18.337   5.690   8.218  0.1144 -0.0581  0.1067
   24loPI   C3A  377  18.148   5.823   7.983  0.1965 -0.0274 -0.1659
   24loPI   C4A  378  17.905   6.082   7.725  0.1079  0.4387  0.0094
   24loPI   C5A  379  17.515   6.161   7.544  0.0237 -0.0879  0.1136
   24loPI   C6A  380  17.236   6.481   7.260  0.1889  0.2618 -0.2650
   24loPI   C1B  381  18.437   6.046   8.625 -0.0456 -0.1253 -0.2361
   24loPI   C2B  382  18.666   6.095   8.209  0.0859 -0.1704 -0.1779
   24loPI   C3B  383  18.686   6.010   7.787 -0.0533  0.1028  0.1042
   24loPI   C4B  384  18.802   5.668   7.476 -0.2111  0.0625 -0.1698
   25loPI    C1  385  16.473   8.942  10.121 -0.2488  0.0730  0.0884
   25loPI    C2  386  16.552   8.594  10.301 -0.0051  0.1163  0.0699
   25loPI    C3  387  16.267   8.614  10.021 -0.2794  0.0149  0.3350
   25loPI   PO4  388  16.704   9.117  10.047  0.1879 -0.0472  0.0505
   25loPI   GL1  389  16.672   9.235   9.614  0.0097 -0.3869  0.2640
   25loPI   GL2  390  16.972   9.314   9.654  0.3255  0.0260 -0.3714
   25loPI   C1A  391  16.468   9.378   9.325  0.2351  0.1179  0.0483
   25loPI   C2A  392  16.271   9.274   8.865 -0.1350 -0.0236  0.2350
   25loPI   C3A  393  16.499   9.235   8.589  0.2743 -0.1856  0.2402
   25loPI   C4A  394  16.608   9.128   8.202  0.1968 -0.0472 -0.1671
   25loPI   C5A  395  16.930   9.280   7.973  0.1280  0.1741  0.0492
   25loPI   C6A  396  17.356   9.319   8.152 -0.0662 -0.0864 -0.1488
   25loPI   C1B  397  17.095   9.295   9.282 -0.3969  0.2577  0.2936
   25loPI   C2B  398  16.947   9.292   8.925  0.0601  0.1151  0.0242
   25loPI   C3B  399  16.975   9.423   8.455  0.1129 -0.5319 -0.0254
   25loPI   C4B  400  17.017   9.835   8.142 -0.2310  0.0364 -0.0494
   26loPI    C1  401   1.548  10.187  10.059  0.3489 -0.1464 -0.1185
   26loPI    C2  402   1.527  10.483  10.328 -0.0346 -0.1857 -0.0988
   26loPI    C3  403   1.565  10.103  10.450 -0.0336 -0.1882 -0.1073
   26loPI   PO4  404   1.612  10.316   9.815 -0.0658 -0.3509  0.3605
   26loPI   GL1  405   1.849  10.558   9.567  0.0558 -0.0523 -0.0225
   26loPI   GL2  406   2.053  10.214   9.511 -0.1521  0.1853  0.0875
   26loPI   C1A  407   1.880  10.452   9.143  0.1034 -0.3200  0.2665
   26loPI   C2A  408   2.002  10.448   8.696 -0.2221  0.2461 -0.4438
   26loPI   C3A  409   2.219  10.178   8.274  0.1955  0.1456  0.0092
   26loPI   C4A  410   2.380   9.815   8.198 -0.2690 -0.0480  0.1465
   26loPI   C5A  411   2.279   9.459   8.320 -0.0325 -0.0679  0.1408
   26loPI   C6A  412   2.172   9.402   8.740 -0.1639 -0.1716  0.0027
   26loPI   C1B  413   2.327  10.211   9.285  0.3825  0.1083  0.2394
   26loPI   C2B  414   2.336  10.186   8.935 -0.0620  0.0147 -0.1613
   26loPI   C3B  415   2.475  10.477   8.570 -0.2711 -0.2197 -0.3562
   26loPI   C4B  416   2.385  10.646   8.115  0.1820 -0.0139  0.2785
   27loPI    C1  417   7.338  10.373  10.000  0.2258  0.0581 -0.0289
   27loPI    C2  418   7.304  10.771   9.977 -0.1030  0.0416  0.1128
   27loPI    C3  419   7.398  10.598  10.325  0.1059 -0.0030  0.0361
   27loPI   PO4  420   7.310  10.340   9.719  0.2545  0.2068  0.1774
   27loPI   GL1  421   7.181  10.693   9.476  0.3114 -0.0224  0.0873
   27loPI   GL2  422   7.508  10.582   9.394  0.3800 -0.0520  0.0545
   27loPI   C1A  423   7.108  10.457   9.083  0.0027  0.2094  0.0725
   27loPI   C2A  424   6.985  10.269   8.726  0.0377 -0.0741  0.2286
   27loPI   C3A  425   7.072  10.282   8.242 -0.1851 -0.0892  0.2314
   27loPI   C4A  426   7.090  10.284   7.800  0.1378  0.2805 -0.1726
   27loPI   C5A  427   6.858  10.322   7.449  0.2625 -0.0306  0.2496
   27loPI   C6A  428   6.490  10.558   7.281  0.0717  0.0616  0.1842
   27loPI   C1B  429   7.481  10.797   8.993  0.3330  0.3155  0.0446
   27loPI   C2B  430   7.317  10.596   8.520 -0.3244  0.0280  0.0134
   27loPI   C3B  431   7.081  10.801   8.132 -0.2903 -0.0827  0.0235
   27loPI   C4B  432   6.854  10.798   7.817  0.2128 -0.4162  0.0837
   28loPI    C1  433  17.658  11.952  10.071  0.0969  0.0378 -0.1474
   28loPI    C2  434  17.920  11.853  10.357 -0.0828  0.1056  0.0435
   28loPI    C3  435  17.599  12.074  10.448 -0.2387 -0.0271 -0.1762
   28loPI   PO4  436  17.578  11.725   9.875  0.2488  0.1383  0.2640
   28loPI   GL1  437  17.458  11.536   9.571  0.5959 -0.0409 -0.0611
   28loPI   GL2  438  17.435  11.219   9.577 -0.1376 -0.1239  0.0926
   28loPI   C1A  439  17.563  11.766   9.216 -0.0363 -0.3693  0.2006
   28loPI   C2A  440  17.463  11.843   8.780 -0.0403 -0.0175 -0.2445
   28loPI   C3A  441  17.397  11.733   8.376 -0.1869  0.1477  0.2111
   28loPI   C4A  442  17.634  11.725   7.987  0.0326  0.0901 -0.2195
   28loPI   C5A  443  17.599  11.407   7.687 -0.0892 -0.0314 -0.3143
   28loPI   C6A  444  17.628  11.085   7.442 -0.2326  0.1572 -0.0621
   28loPI   C1B  445  17.513  10.983   9.120 -0.2011  0.1449 -0.0803
   28loPI   C2B  446  17.515  10.849   8.721  0.2906 -0.0671 -0.0199
   28loPI   C3B  447  17.251  10.843   8.333 -0.4358 -0.0464  0.0344
   28loPI   C4B  448  17.185  10.719   7.901  0.1808  0.1597 -0.1995
   29loPI    C1  449  13.040  12.310  10.183 -0.0256  0.1087  0.0720
   29loPI    C2  450  12.740  12.472   9.973 -0.1577 -0.2819 -0.0481
   29loPI    C3  451  12.664  12.278  10.314  0.0109 -0.0092  0.1486
   29loPI   PO4  452  13.272  12.269  10.026  0.2835 -0.0713 -0.0725
   29loPI   GL1  453  13.545  12.267   9.604  0.3298 -0.1775  0.6394
   29loPI   GL2  454  13.499  12.574   9.504 -0.0953 -0.1403  0.1121
   29loPI   C1A  455  13.627  12.002   9.239 -0.0060 -0.0489  0.0101
   29loPI   C2A  456  13.740  12.089   8.785 -0.2378  0.2416 -0.4611
   29loPI   C3A  457  13.816  12.095   8.304 -0.1208  0.3721 -0.2368
   29loPI   C4A  458  14.034  11.829   7.998  0.1190 -0.0446  0.1143
   29loPI   C5A  459  14.077  11.383   7.986 -0.0069 -0.2149 -0.0952
   29loPI   C6A  460  14.262  11.028   8.016 -0.0403  0.0108 -0.2382
   29loPI   C1B  461  13.342  12.343   9.095 -0.1258  0.0189 -0.0899
   29loPI   C2B  462  13.261  11.979   8.830 -0.1646  0.0374 -0.1207
   29loPI   C3B  463  13.088  11.726   8.425 -0.1815  0.0623 -0.2680
   29loPI   C4B  464  12.917  11.692   7.996  0.0330  0.1039  0.1319
   30loPI    C1  465   4.856  11.228   9.999 -0.0791 -0.0632 -0.1871
   30loPI    C2  466   4.973  11.019  10.320 -0.0691  0.1140 -0.0742
   30loPI    C3  467   4.637  11.236  10.333 -0.2496 -0.1449 -0.2956
   30loPI   PO4  468   5.082  11.244   9.869 -0.0043 -0.1591  0.0866
   30loPI   GL1  469   5.285  11.085   9.592  0.1574  0.0824  0.0333
   30loPI   GL2  470   5.403  11.183   9.274 -0.0713  0.3638  0.2261
   30loPI   C1A  471   4.950  11.107   9.219 -0.1607  0.0789  0.2793
   30loPI   C2A  472   4.747  10.877   8.981  0.3297  0.4218 -0.2377
   30loPI   C3A  473   4.732  10.833   8.562 -0.0828 -0.1776 -0.0304
   30loPI   C4A  474   4.573  11.094   8.241 -0.1337  0.1923  0.3622
   30loPI   C5A  475   4.505  11.144   7.748  0.1314  0.0984  0.2294
   30loPI   C6A  476   4.778  10.969   7.362 -0.1063  0.1178  0.1323
   30loPI   C1B  477   5.472  11.158   8.876 -0.2181  0.1560 -0.4128
   30loPI   C2B  478   5.536  11.065   8.413  0.1414  0.1002 -0.0665
   30loPI   C3B  479   5.312  11.041   8.088  0.1099  0.1584 -0.0183
   30loPI   C4B  480   5.084  11.001   7.817  0.1096 -0.0707  0.0036
   31loPI    C1  481   2.297  16.355  10.185  0.3567  0.4673 -0.2131
   31loPI    C2  482   2.173  16.541  10.516 -0.2027 -0.0581 -0.1097
   31loPI    C3  483   2.430  16.236  10.542  0.0801  0.1678 -0.2051
   31loPI   PO4  484   2.141  16.493  10.029  0.1016 -0.1033  0.2399
   31loPI   GL1  485   2.081  16.988   9.905  0.1083  0.1271 -0.5628
   31loPI   GL2  486   2.372  16.923   9.646 -0.1063 -0.1765 -0.1820
   31loPI   C1A  487   1.926  17.080   9.531 -0.1997  0.1508 -0.1046
   31loPI   C2A  488   1.949  16.983   9.172 -0.2174 -0.0946  0.0889
   31loPI   C3A  489   2.087  16.913   8.819  0.0074  0.0561  0.2161
   31loPI   C4A  490   2.089  16.756   8.384 -0.1210 -0.1317 -0.3696
   31loPI   C5A  491   2.416  16.529   8.045  0.0776 -0.1362 -0.1209
   31loPI   C6A  492   2.268  16.453   7.630  0.2433  0.0104 -0.1580
   31loPI   C1B  493   2.485  16.856   9.146  0.0261  0.3031  0.3333
   31loPI   C2B  494   2.544  16.891   8.627 -0.0541  0.0455 -0.2409
   31loPI   C3B  495   2.532  17.001   8.265 -0.0934  0.0143 -0.0642
   31loPI   C4B  496   2.275  16.988   7.913  0.0180  0.1631 -0.0497
   32loPI    C1  497  15.492  17.608   9.876 -0.2863  0.0586 -0.2505
   32loPI    C2  498  15.273  17.871  10.084 -0.1343  0.0642 -0.0942
   32loPI    C3  499  15.223  17.478  10.141 -0.0473  0.0668  0.0011
   32loPI   PO4  500  15.468  17.630   9.642 -0.3310 -0.1415 -0.0883
   32loPI   GL1  501  15.320  17.609   9.232 -0.0917  0.4041  0.2347
   32loPI   GL2  502  15.128  17.501   9.201 -0.0846 -0.0485  0.3226
   32loPI   C1A  503  15.667  17.683   8.892  0.0577  0.0312 -0.0214
   32loPI   C2A  504  15.832  17.887   8.615 -0.1506  0.1048 -0.0754
   32loPI   C3A  505  15.929  18.002   8.159  0.0610  0.1360 -0.3453
   32loPI   C4A  506  16.208  17.942   7.802  0.0798 -0.0690 -0.1274
   32loPI   C5A  507  16.683  17.766   7.708 -0.1043 -0.0237 -0.1331
   32loPI   C6A  508  17.071  17.610   7.753  0.1712 -0.2400 -0.2067
   32loPI   C1B  509  15.125  17.584   8.766 -0.0327  0.0117  0.1504
   32loPI   C2B  510  15.195  17.694   8.515  0.0554  0.2972  0.4665
   32loPI   C3B  511  15.435  17.993   8.268 -0.1528 -0.2755 -0.1003
   32loPI   C4B  512  15.304  18.030   7.760 -0.0466 -0.0842 -0.1159
   33loPI    C1  513   9.817   3.938  10.515  0.0313 -0.0957  0.2112
   33loPI    C2  514  10.189   4.079  10.478 -0.0523  0.0542 -0.0950
   33loPI    C3  515   9.905   4.307  10.644  0.0141 -0.1029  0.2442
   33loPI   PO4  516   9.752   3.821  10.244  0.0001  0.4003 -0.0601
   33loPI   GL1  517   9.618   3.753   9.816 -0.0987 -0.0545  0.0231
   33loPI   GL2  518   9.424   3.859   9.729 -0.3194 -0.2075 -0.2803
   33loPI   C1A  519   9.845   3.524   9.509  0.1212 -0.2719 -0.1076
   33loPI   C2A  520   9.873   3.508   9.138 -0.0644  0.1784 -0.0196
   33loPI   C3A  521   9.675   3.449   8.771 -0.1453 -0.2394 -0.1572
   33loPI   C4A  522   9.654   3.437   8.359 -0.2717 -0.3162 -0.1475
   33loPI   C5A  523   9.919   3.478   7.991 -0.0073 -0.1399 -0.0835
   33loPI   C6A  524   9.748   3.393   7.648 -0.3079 -0.0666 -0.1259
   33loPI   C1B  525   9.348   3.774   9.324  0.1806  0.3119  0.2568
   33loPI   C2B  526   9.342   3.739   8.971  0.1951 -0.0921 -0.0661
   33loPI   C3B  527   9.113   3.683   8.631  0.0832  0.0443 -0.1928
   33loPI   C4B  528   9.001   3.853   8.292 -0.0499  0.2482 -0.4867
   34loPI    C1  529  16.648   4.944  10.109  0.0454  0.0723 -0.1495
   34loPI    C2  530  16.882   4.808  10.404 -0.0649 -0.1003 -0.1406
   34loPI    C3  531  16.693   4.551  10.163 -0.2225  0.0376 -0.1661
   34loPI   PO4  532  16.817   5.045   9.877 -0.1615 -0.0294 -0.3920
   34loPI   GL1  533  16.742   5.052   9.538  0.0407  0.1019  0.0083
   34loPI   GL2  534  16.463   5.195   9.425  0.0493 -0.1297  0.2011
   34loPI   C1A  535  16.787   5.052   9.010 -0.2313 -0.3436  0.2410
   34loPI   C2A  536  16.781   5.060   8.589 -0.1338 -0.2316 -0.2884
   34loPI   C3A  537  16.512   4.975   8.359  0.1616  0.2488 -0.0218
   34loPI   C4A  538  16.141   5.224   8.137  0.4710 -0.2121  0.2705
   34loPI   C5A  539  16.073   5.229   7.777  0.4005 -0.0900 -0.1875
   34loPI   C6A  540  15.662   4.947   7.647 -0.2425  0.0283 -0.0975
   34loPI   C1B  541  16.381   5.408   8.977 -0.1264 -0.0639 -0.3834
   34loPI   C2B  542  16.286   5.372   8.609 -0.2743 -0.0545 -0.1083
   34loPI   C3B  543  16.581   5.439   8.227  0.0799 -0.0415 -0.0500
   34loPI   C4B  544  16.942   5.303   8.127 -0.2493  0.0768 -0.2284
   35loPI    C1  545   4.760  15.305  10.567  0.0697 -0.2146  0.0181
   35loPI    C2  546   4.734  15.484  10.923 -0.1388  0.1123 -0.1566
   35loPI    C3  547   5.074  15.303  10.815  0.0214  0.2586  0.0918
   35loPI   PO4  548   4.742  15.509  10.426  0.1320  0.2824 -0.2433
   35loPI   GL1  549   4.806  15.429   9.986 -0.0015  0.1111  0.2766
   35loPI   GL2  550   4.991  15.738  10.014  0.0912  0.1338 -0.2819
   35loPI   C1A  551   4.922  15.360   9.612  0.0128  0.0819 -0.0219
   35loPI   C2A  552   5.124  15.479   9.264 -0.0233 -0.2299 -0.0544
   35loPI   C3A  553   5.106  15.192   8.992 -0.0109 -0.0664  0.0953
   35loPI   C4A  554   5.115  15.033   8.585  0.1087  0.0624 -0.0444
   35loPI   C5A  555   5.216  14.777   8.209 -0.1919 -0.0404  0.0680
   35loPI   C6A  556   5.477  14.495   7.912 -0.0247 -0.3511 -0.0836
   35loPI   C1B  557   5.029  15.844   9.574 -0.0568 -0.0698  0.3444
   35loPI   C2B  558   5.103  15.956   9.056  0.2640 -0.1691  0.0493
   35loPI   C3B  559   5.135  16.033   8.579  0.1707  0.0272 -0.1101
   35loPI   C4B  560   5.362  16.387   8.314  0.2432 -0.0894 -0.1073
   36loPI    C1  561  10.059   4.718   9.888 -0.0596 -0.0187  0.1857
   36loPI    C2  562  10.043   4.996  10.176 -0.0908  0.0235  0.1434
   36loPI    C3  563  10.121   4.615  10.270  0.2259  0.0919  0.1720
   36loPI   PO4  564   9.850   4.761   9.692  0.0640 -0.1551  0.1968
   36loPI   GL1  565  10.030   4.926   9.234 -0.0023  0.0929 -0.0589
   36loPI   GL2  566   9.873   4.656   9.203  0.0877 -0.3834  0.0353
   36loPI   C1A  567  10.087   4.952   8.879  0.1682  0.0884  0.0090
   36loPI   C2A  568  10.105   4.972   8.371 -0.2416 -0.1192  0.1311
   36loPI   C3A  569   9.859   5.097   8.033 -0.0544  0.2607  0.2992
   36loPI   C4A  570   9.582   5.029   7.731 -0.2828 -0.0473 -0.0691
   36loPI   C5A  571   9.339   5.002   7.542  0.0787 -0.2476  0.3610
   36loPI   C6A  572   9.251   5.394   7.321 -0.1658 -0.0340 -0.3010
   36loPI   C1B  573   9.812   4.505   8.861 -0.0582 -0.3103 -0.0276
   36loPI   C2B  574   9.878   4.354   8.397  0.2302  0.0961  0.0621
   36loPI   C3B  575   9.835   4.069   8.051 -0.0362  0.2846 -0.1243
   36loPI   C4B  576   9.556   3.941   7.628  0.0817  0.1050 -0.2133
   37loPI    C1  577  14.161  18.257   9.687 -0.0404  0.0365  0.0589
   37loPI    C2  578  14.304  17.964   9.918  0.1019 -0.1347 -0.2405
   37loPI    C3  579  14.518  18.096   9.607  0.2074  0.5439  0.1013
   37loPI   PO4  580  14.236  18.501   9.851  0.0287  0.3764 -0.1293
   37loPI   GL1  581  14.161  18.917   9.683  0.4143  0.2785  0.0218
   37loPI   GL2  582  13.989  18.725   9.450 -0.1865  0.4964 -0.2926
   37loPI   C1A  583  14.244  19.097   9.310  0.1432  0.0481  0.2636
   37loPI   C2A  584  14.129  19.056   8.896  0.2166  0.1247 -0.1073
   37loPI   C3A  585  14.086  18.970   8.485  0.0260 -0.2588  0.3022
   37loPI   C4A  586  14.102  19.018   8.047  0.0110 -0.0130 -0.2078
   37loPI   C5A  587  14.327  18.998   7.652 -0.2954 -0.2025 -0.3757
   37loPI   C6A  588  14.636  18.869   7.336  0.1836 -0.0968 -0.2363
   37loPI   C1B  589  14.029  18.549   9.126  0.0212  0.3069 -0.2497
   37loPI   C2B  590  14.168  18.584   8.720  0.1914  0.1555  0.1262
   37loPI   C3B  591  14.490  18.640   8.547 -0.0142 -0.0408 -0.3973
   37loPI   C4B  592  14.543  18.699   8.070 -0.0708  0.1394  0.2736
   38loPI    C1  593  10.666  17.755  10.076 -0.1341  0.1171  0.2280
   38loPI    C2  594  10.820  17.547  10.381  0.1964  0.0053 -0.0087
   38loPI    C3  595  10.890  17.940  10.350  0.2027  0.0077  0.0328
   38loPI   PO4  596  10.762  17.683   9.879  0.0339 -0.1027  0.2041
   38loPI   GL1  597  10.754  17.755   9.418 -0.2384 -0.0494 -0.0567
   38loPI   GL2  598  10.993  17.548   9.220 -0.0457  0.1722 -0.0756
   38loPI   C1A  599  10.785  17.946   8.983 -0.1666  0.3652 -0.0317
   38loPI   C2A  600  10.728  17.918   8.520 -0.6335  0.1450 -0.0529
   38loPI   C3A  601  10.858  17.896   8.168 -0.0563  0.4334  0.1866
   38loPI   C4A  602  10.749  17.677   7.757 -0.1363 -0.0256 -0.3658
   38loPI   C5A  603  10.526  17.323   7.678  0.3109  0.0263 -0.0351
   38loPI   C6A  604  10.758  16.865   7.685  0.5029  0.0021  0.2104
   38loPI   C1B  605  11.121  17.594   8.763  0.0141  0.2821 -0.0902
   38loPI   C2B  606  11.069  17.491   8.483  0.0251 -0.1584 -0.2702
   38loPI   C3B  607  11.099  17.414   8.068 -0.3640  0.3042  0.0763
   38loPI   C4B  608  11.060  17.332   7.640  0.2098 -0.2334  0.1187
   39loPI    C1  609   5.512  17.765  10.609  0.0398  0.4424 -0.0311
   39loPI    C2  610   5.717  17.778  10.952 -0.0225 -0.0409  0.0318
   39loPI    C3  611   5.322  17.721  10.958 -0.0429  0.0770 -0.1186
   39loPI   PO4  612   5.495  17.920  10.412 -0.2645  0.0145 -0.3314
   39loPI   GL1  613   5.280  17.981  10.041 -0.0178  0.1611  0.2063
   39loPI   GL2  614   5.199  17.720   9.837  0.5008 -0.1811  0.1574
   39loPI   C1A  615   5.505  18.137   9.721 -0.0160  0.0363 -0.0244
   39loPI   C2A  616   5.538  18.121   9.312  0.0476  0.2008  0.1161
   39loPI   C3A  617   5.615  18.030   8.926 -0.0917  0.2811 -0.2136
   39loPI   C4A  618   5.624  17.973   8.508  0.2034 -0.0462  0.0236
   39loPI   C5A  619   5.419  17.923   8.183 -0.0707 -0.1094 -0.3692
   39loPI   C6A  620   5.107  18.137   7.993 -0.0872  0.2438  0.3323
   39loPI   C1B  621   5.243  17.731   9.316 -0.0401 -0.0686  0.1015
   39loPI   C2B  622   5.179  17.813   8.884  0.1609 -0.5175  0.4812
   39loPI   C3B  623   5.200  17.676   8.565  0.1433 -0.1255  0.0824
   39loPI   C4B  624   5.064  17.599   8.197 -0.0454  0.0217  0.0341
   40loPI    C1  625  11.839  18.376  10.227 -0.0510 -0.0243  0.0362
   40loPI    C2  626  11.982  18.014  10.134  0.1718  0.0441  0.1083
   40loPI    C3  627  12.118  18.206  10.457  0.0866  0.2110  0.0462
   40loPI   PO4  628  11.770  18.487  10.008  0.0589 -0.0388  0.1340
   40loPI   GL1  629  11.947  18.376   9.654 -0.3871 -0.1514  0.2442
   40loPI   GL2  630  11.712  18.252   9.431 -0.2286 -0.0643 -0.1234
   40loPI   C1A  631  11.840  18.722   9.329 -0.1525  0.2017 -0.1260
   40loPI   C2A  632  11.889  18.861   8.831 -0.0104  0.2880 -0.2177
   40loPI   C3A  633  11.720  18.966   8.432  0.0932 -0.0974 -0.1113
   40loPI   C4A  634  11.516  19.048   8.082 -0.3357  0.0708  0.1841
   40loPI   C5A  635  11.140  19.275   7.762  0.0322  0.3174  0.3388
   40loPI   C6A  636  11.171  19.549   7.377 -0.0399 -0.0247 -0.0502
   40loPI   C1B  637  11.649  18.375   9.057  0.2458 -0.0079 -0.3327
   40loPI   C2B  638  11.624  18.445   8.654  0.1197  0.0333  0.1029
   40loPI   C3B  639  11.466  18.466   8.282 -0.0308 -0.0563 -0.1297
   40loPI   C4B  640  11.406  18.529   7.863  0.0026  0.3902 -0.2057
   41loPI    C1  641   2.845   1.898  10.731 -0.2253  0.2372  0.0188
   41loPI    C2  642   2.588   1.706  10.970 -0.0709  0.0352  0.0254
   41loPI    C3  643   2.736   2.061  11.080 -0.3698  0.1684  0.0065
   41loPI   PO4  644   2.822   1.894  10.444 -0.0611 -0.0437  0.0739
   41loPI   GL1  645   3.058   1.717  10.073  0.3810 -0.1259  0.2031
   41loPI   GL2  646   3.209   1.981  10.023  0.0213 -0.2400  0.2405
   41loPI   C1A  647   2.709   1.833   9.798  0.2388  0.3888 -0.1152
   41loPI   C2A  648   2.472   1.929   9.506  0.2377 -0.0246 -0.1194
   41loPI   C3A  649   2.478   1.913   9.086 -0.2349  0.1956  0.3122
   41loPI   C4A  650   2.496   1.987   8.677  0.2166 -0.1142 -0.1135
   41loPI   C5A  651   2.159   1.870   8.392 -0.1727 -0.1570  0.2235
   41loPI   C6A  652   1.774   1.569   8.457 -0.2190 -0.0844  0.0219
   41loPI   C1B  653   3.421   1.911   9.647 -0.1708 -0.0026  0.0884
   41loPI   C2B  654   3.566   1.936   9.155 -0.0688  0.2613 -0.0416
   41loPI   C3B  655   3.483   1.929   8.699 -0.3047  0.0041 -0.1283
   41loPI   C4B  656   3.428   1.635   8.356 -0.0878  0.0775  0.1819
   42loPI    C1  657  14.930   9.070  10.148 -0.0242 -0.1934 -0.1388
   42loPI    C2  658  14.916   8.696  10.288  0.1590 -0.0407  0.3063
   42loPI    C3  659  14.673   8.976  10.440  0.1521  0.0644  0.1052
   42loPI   PO4  660  14.943   9.082   9.833 -0.0770  0.2463  0.2623
   42loPI   GL1  661  14.903   9.288   9.415  0.3374  0.4813 -0.1426
   42loPI   GL2  662  14.670   8.991   9.343  0.2708 -0.1427 -0.2186
   42loPI   C1A  663  14.725   9.307   9.000 -0.1371 -0.1063 -0.0226
   42loPI   C2A  664  14.896   9.142   8.687  0.0387  0.1537 -0.1469
   42loPI   C3A  665  14.831   9.102   8.344 -0.1589 -0.0646 -0.0745
   42loPI   C4A  666  15.109   9.150   7.969  0.0814  0.2533  0.1152
   42loPI   C5A  667  15.487   9.380   7.764  0.0789 -0.3348  0.0267
   42loPI   C6A  668  15.890   9.575   7.637  0.2558  0.3509 -0.3511
   42loPI   C1B  669  14.415   8.855   8.963  0.0390 -0.1527 -0.2264
   42loPI   C2B  670  14.412   8.819   8.531  0.0927  0.0771  0.0213
   42loPI   C3B  671  14.418   8.634   8.185 -0.2151 -0.1117 -0.0317
   42loPI   C4B  672  14.062   8.420   8.064 -0.2708  0.1517 -0.2299
   43loPI    C1  673  17.331  14.384  10.335  0.0150  0.2551  0.0161
   43loPI    C2  674  17.215  14.194  10.667 -0.1624 -0.1233 -0.2551
   43loPI    C3  675  17.048  14.544  10.568 -0.0325  0.0452  0.1047
   43loPI   PO4  676  17.545  14.318  10.298  0.2825 -0.1034 -0.0686
   43loPI   GL1  677  17.567  14.065   9.869  0.3181 -0.1987  0.0288
   43loPI   GL2  678  17.409  14.289   9.818  0.0840 -0.1894 -0.0118
   43loPI   C1A  679  17.518  14.049   9.370  0.1927  0.2833 -0.0217
   43loPI   C2A  680  17.255  14.193   9.130  0.3119  0.0063  0.1684
   43loPI   C3A  681  17.312  14.259   8.654  0.0255  0.0013 -0.2221
   43loPI   C4A  682  17.227  14.327   8.224 -0.0348  0.2001 -0.0439
   43loPI   C5A  683  17.207  14.670   7.918 -0.0046  0.2085 -0.2105
   43loPI   C6A  684  17.345  14.831   7.475 -0.0011 -0.0474 -0.1884
   43loPI   C1B  685  17.379  14.574   9.430  0.1062  0.0341  0.0201
   43loPI   C2B  686  17.489  14.622   9.032  0.1608 -0.0191 -0.0805
   43loPI   C3B  687  17.407  14.812   8.635 -0.1709 -0.1155  0.0123
   43loPI   C4B  688  17.423  15.051   8.216  0.4599 -0.0734  0.3150
   44loPI    C1  689  15.197  18.370   9.826  0.1228 -0.1441  0.3117
   44loPI    C2  690  15.566  18.524   9.819  0.0849 -0.0626 -0.0142
   44loPI    C3  691  15.511  18.135   9.747  0.1061 -0.0728  0.0247
   44loPI   PO4  692  15.062  18.485   9.716 -0.2149 -0.1222  0.1184
   44loPI   GL1  693  14.834  18.364   9.390  0.1153 -0.1029 -0.0682
   44loPI   GL2  694  14.646  18.715   9.316 -0.1534  0.0660 -0.1389
   44loPI   C1A  695  14.569  18.264   9.054  0.0820  0.0276 -0.2053
   44loPI   C2A  696  14.389  18.097   8.711 -0.1876 -0.0288  0.3419
   44loPI   C3A  697  14.463  18.144   8.339 -0.0417  0.1040  0.0639
   44loPI   C4A  698  14.423  17.959   8.041  0.0620 -0.1661  0.3001
   44loPI   C5A  699  14.207  17.534   7.896  0.1539  0.3151 -0.0365
   44loPI   C6A  700  14.398  17.050   7.658  0.0907 -0.0577  0.0044
   44loPI   C1B  701  14.855  18.743   9.008  0.1960 -0.3133 -0.0169
   44loPI   C2B  702  14.951  18.793   8.467  0.3240  0.0398  0.1408
   44loPI   C3B  703  15.024  18.787   8.060  0.0989  0.0308 -0.0808
   44loPI   C4B  704  14.896  18.862   7.762 -0.1614 -0.0354  0.2770
   45loPI    C1  705  12.073  12.608   9.998  0.0009  0.1128  0.1913
   45loPI    C2  706  12.335  12.710  10.283  0.0381 -0.1012  0.2356
   45loPI    C3  707  12.161  12.350  10.291  0.0211 -0.0995  0.0009
   45loPI   PO4  708  12.192  12.649   9.639  0.2922 -0.4009  0.3275
   45loPI   GL1  709  12.092  12.449   9.239 -0.0719 -0.0593 -0.2154
   45loPI   GL2  710  11.920  12.580   9.099 -0.4631 -0.0706 -0.0377
   45loPI   C1A  711  12.028  12.248   8.767 -0.1340  0.2267 -0.0793
   45loPI   C2A  712  11.897  12.026   8.400 -0.5192 -0.0296  0.1129
   45loPI   C3A  713  12.115  12.033   7.985  0.0652 -0.2116  0.0762
   45loPI   C4A  714  12.080  12.099   7.614  0.1746  0.2202  0.1841
   45loPI   C5A  715  12.235  12.199   7.249  0.1582  0.0696 -0.2540
   45loPI   C6A  716  12.232  12.197   6.782  0.2294 -0.0818 -0.2398
   45loPI   C1B  717  11.878  12.776   8.710 -0.0260  0.5213 -0.2971
   45loPI   C2B  718  11.983  12.921   8.338  0.0633  0.1556 -0.1901
   45loPI   C3B  719  11.965  12.998   7.964  0.1240  0.2323 -0.2151
   45loPI   C4B  720  12.043  13.056   7.575 -0.0894  0.1233  0.1109
   46loPI    C1  721   7.070  15.841  10.205  0.0637 -0.0635  0.1110
   46loPI    C2  722   6.947  15.846  10.586 -0.1180 -0.1891  0.0554
   46loPI    C3  723   7.146  16.159  10.436 -0.1459 -0.0908  0.2207
   46loPI   PO4  724   7.108  15.508  10.181  0.0518  0.1065 -0.1639
   46loPI   GL1  725   6.795  15.229   9.986 -0.1908  0.0456 -0.3069
   46loPI   GL2  726   6.964  15.215   9.779 -0.1015 -0.2359 -0.0735
   46loPI   C1A  727   6.537  15.399   9.636 -0.3502 -0.1648 -0.2355
   46loPI   C2A  728   6.279  15.836   9.379 -0.0660  0.2619  0.0075
   46loPI   C3A  729   6.184  16.157   9.100  0.2172  0.2384 -0.0631
   46loPI   C4A  730   6.075  16.340   8.729 -0.0557 -0.3448 -0.2418
   46loPI   C5A  731   5.919  16.242   8.256  0.2821  0.2781 -0.2088
   46loPI   C6A  732   5.900  15.966   7.942 -0.1056 -0.1516 -0.2476
   46loPI   C1B  733   6.911  15.209   9.304 -0.0558 -0.0002  0.0149
   46loPI   C2B  734   6.598  15.304   9.039 -0.0355 -0.3295 -0.2868
   46loPI   C3B  735   6.464  15.305   8.586 -0.0205 -0.1634 -0.2754
   46loPI   C4B  736   6.310  14.998   8.134  0.0976 -0.2325  0.4560
   47loPI    C1  737  17.935   0.037  10.457 -0.0170 -0.3833  0.2642
   47loPI    C2  738  18.214  -0.052  10.729  0.0460 -0.0508  0.3121
   47loPI    C3  739  18.012   0.293  10.755 -0.0552 -0.0863  0.0239
   47loPI   PO4  740  18.118   0.018  10.227 -0.0585 -0.0705  0.2066
   47loPI   GL1  741  18.104   0.179   9.704 -0.4050  0.1808  0.2473
   47loPI   GL2  742  18.306   0.484   9.529  0.0029 -0.0263  0.0953
   47loPI   C1A  743  18.127  -0.078   9.309  0.0593 -0.0425 -0.0875
   47loPI   C2A  744  18.101  -0.220   8.874  0.1409  0.2022 -0.0619
   47loPI   C3A  745  18.278  -0.207   8.340  0.1199 -0.3182 -0.1907
   47loPI   C4A  746  18.499  -0.184   8.042  0.0773 -0.0077 -0.2791
   47loPI   C5A  747  18.784   0.017   7.883  0.0536 -0.4092 -0.1938
   47loPI   C6A  748  18.761   0.286   7.627  0.0506  0.1150 -0.1469
   47loPI   C1B  749  18.398   0.390   9.115  0.0027  0.0959  0.0490
   47loPI   C2B  750  18.326   0.371   8.653  0.1442  0.1708 -0.0378
   47loPI   C3B  751  18.404   0.264   8.199 -0.1207 -0.1970  0.2343
   47loPI   C4B  752  18.394   0.590   7.884 -0.1081  0.0530 -0.0723
   48loPI    C1  753   9.135  15.548  10.082 -0.0893  0.0229 -0.1031
   48loPI    C2  754   9.248  15.922  10.166  0.0650 -0.0371 -0.0391
   48loPI    C3  755   9.180  15.662  10.463  0.2931 -0.1568 -0.0894
   48loPI   PO4  756   8.949  15.580   9.857 -0.1829 -0.3639  0.1227
   48loPI   GL1  757   8.810  15.260   9.521  0.0477  0.1583  0.0874
   48loPI   GL2  758   8.498  15.170   9.541  0.2554  0.0681  0.0393
   48loPI   C1A  759   8.937  15.332   9.046  0.0741 -0.2764  0.1211
   48loPI   C2A  760   8.719  15.279   8.599 -0.2188 -0.0343  0.0846
   48loPI   C3A  761   8.358  15.112   8.364  0.3136 -0.1567  0.0778
   48loPI   C4A  762   8.014  15.106   8.068 -0.2314 -0.1978  0.0703
   48loPI   C5A  763   7.756  15.225   7.708  0.2417  0.0053  0.2510
   48loPI   C6A  764   7.883  15.299   7.304 -0.5092  0.1130  0.0324
   48loPI   C1B  765   8.445  15.092   9.062  0.1620  0.1204 -0.1483
   48loPI   C2B  766   8.629  14.794   8.886  0.1911  0.0437 -0.0557
   48loPI   C3B  767   8.592  14.379   8.883 -0.0478  0.1116 -0.1497
   48loPI   C4B  768   8.665  14.071   9.349 -0.2850  0.0940 -0.0366
   49loPI    C1  769   2.602  10.752  10.336 -0.1122  0.0106  0.2768
   49loPI    C2  770   2.477  11.126  10.404 -0.0029  0.0516  0.2530
   49loPI    C3  771   2.745  10.957  10.649  0.0521  0.0388  0.1840
   49loPI   PO4  772   2.580  10.797  10.044 -0.2482 -0.3255  0.2222
   49loPI   GL1  773   2.359  10.778   9.695 -0.1409 -0.1040 -0.0578
   49loPI   GL2  774   2.619  10.501   9.549  0.2087 -0.0695  0.2485
   49loPI   C1A  775   2.490  11.177   9.438 -0.0301  0.2369 -0.1177
   49loPI   C2A  776   2.542  11.619   9.421  0.1267 -0.2083 -0.1516
   49loPI   C3A  777   2.805  11.857   9.317  0.1030  0.4502  0.1742
   49loPI   C4A  778   2.974  11.930   8.845  0.1323 -0.5796  0.0467
   49loPI   C5A  779   3.398  11.962   8.672 -0.0216  0.1337 -0.0739
   49loPI   C6A  780   3.686  11.867   8.370  0.0789 -0.0640 -0.3216
   49loPI   C1B  781   2.657  10.642   9.203  0.1979 -0.1297 -0.1785
   49loPI   C2B  782   2.936  10.676   8.754  0.4065  0.0487 -0.3178
   49loPI   C3B  783   3.187  10.359   8.494  0.1995 -0.2293 -0.0907
   49loPI   C4B  784   3.303  10.178   8.135  0.1836  0.3264 -0.1652
   50loPI    C1  785  16.726   0.133  10.120 -0.0350  0.1140 -0.0262
   50loPI    C2  786  16.583   0.045  10.483 -0.2028 -0.0368 -0.1270
   50loPI    C3  787  16.677   0.423  10.391  0.0487 -0.0296  0.1449
   50loPI   PO4  788  16.571  -0.095   9.992  0.1632 -0.1627 -0.1420
   50loPI   GL1  789  16.635  -0.205   9.540  0.0459  0.1688 -0.0712
   50loPI   GL2  790  16.513   0.106   9.352 -0.1424  0.3174  0.1756
   50loPI   C1A  791  16.830  -0.486   9.283  0.1107  0.1717 -0.0038
   50loPI   C2A  792  17.007  -0.539   8.873  0.1426 -0.0411 -0.0413
   50loPI   C3A  793  16.887  -0.779   8.592  0.5008 -0.2113 -0.0400
   50loPI   C4A  794  17.139  -1.018   8.308  0.0152  0.1192 -0.0122
   50loPI   C5A  795  17.454  -1.364   8.023  0.0850  0.3115 -0.0975
   50loPI   C6A  796  17.808  -1.324   7.741 -0.4478 -0.0339 -0.1344
   50loPI   C1B  797  16.289   0.244   9.030 -0.1643 -0.3526  0.1939
   50loPI   C2B  798  16.504   0.249   8.551 -0.0074 -0.1702  0.0506
   50loPI   C3B  799  16.639   0.079   8.149 -0.1212  0.0820  0.1223
   50loPI   C4B  800  16.592  -0.329   7.846  0.2268  0.2086  0.0106
   51loPI    C1  801   5.320   3.308  10.657  0.0398 -0.0683  0.0329
   51loPI    C2  802   5.706   3.410  10.675  0.0298 -0.0773  0.3544
   51loPI    C3  803   5.458   3.514  10.971 -0.2466  0.0540  0.0825
   51loPI   PO4  804   5.282   3.298  10.395  0.2086  0.1486 -0.0543
   51loPI   GL1  805   5.007   3.360  10.177 -0.0347 -0.0666 -0.0811
   51loPI   GL2  806   4.827   3.085  10.113 -0.1714 -0.1625  0.1364
   51loPI   C1A  807   4.897   3.607   9.772  0.0660 -0.1449 -0.1887
   51loPI   C2A  808   4.900   3.694   9.279  0.1049  0.2440 -0.0755
   51loPI   C3A  809   4.817   3.428   8.936 -0.0025  0.3681  0.3602
   51loPI   C4A  810   4.874   3.346   8.440 -0.1029  0.3534 -0.0215
   51loPI   C5A  811   4.903   3.620   8.076  0.1162  0.0233  0.1183
   51loPI   C6A  812   5.092   3.613   7.684  0.2023  0.3804 -0.0802
   51loPI   C1B  813   4.645   2.931   9.695 -0.0458  0.2455 -0.4411
   51loPI   C2B  814   4.611   2.908   9.208 -0.2221  0.3535  0.2625
   51loPI   C3B  815   4.642   2.871   8.786 -0.2846  0.2031  0.0265
   51loPI   C4B  816   4.741   2.688   8.411 -0.1500  0.1437  0.1432
   52loPI    C1  817   6.215  13.529   9.958  0.2502 -0.2547 -0.0642
   52loPI    C2  818   6.310  13.496  10.346  0.1290 -0.1480 -0.0248
   52loPI    C3  819   6.057  13.235  10.179  0.0171 -0.0690  0.0202
   52loPI   PO4  820   6.384  13.829   9.868 -0.0501 -0.1184 -0.2596
   52loPI   GL1  821   6.626  13.905   9.468 -0.4052  0.2658  0.0227
   52loPI   GL2  822   6.864  13.841   9.580  0.2057 -0.1999  0.1672
   52loPI   C1A  823   6.729  13.916   9.051  0.1982 -0.1734 -0.0847
   52loPI   C2A  824   6.738  13.860   8.605 -0.0727  0.1578  0.0540
   52loPI   C3A  825   6.632  13.850   8.205 -0.0300 -0.1992 -0.0194
   52loPI   C4A  826   6.493  13.916   7.821 -0.1953  0.0181  0.2363
   52loPI   C5A  827   6.154  13.808   7.568 -0.0824 -0.0394 -0.0588
   52loPI   C6A  828   5.817  13.505   7.639 -0.5376  0.0519 -0.4227
   52loPI   C1B  829   6.985  13.517   9.272 -0.1529  0.3569  0.1595
   52loPI   C2B  830   7.043  13.436   8.705  0.1002  0.1206 -0.2064
   52loPI   C3B  831   6.946  13.442   8.329  0.0254  0.0232 -0.0695
   52loPI   C4B  832   7.020  13.502   7.933  0.0013 -0.4095  0.1590
   53loPI    C1  833  10.382   5.724   9.871 -0.0506 -0.1219 -0.1415
   53loPI    C2  834  10.372   5.434  10.146 -0.1070  0.0705  0.0627
   53loPI    C3  835  10.574   5.772  10.219 -0.0065  0.0671 -0.1905
   53loPI   PO4  836  10.355   5.613   9.619 -0.0533  0.0325  0.1782
   53loPI   GL1  837  10.060   5.662   9.248 -0.0168  0.2265  0.1210
   53loPI   GL2  838   9.869   5.433   9.295  0.0883  0.3934  0.2591
   53loPI   C1A  839   9.959   5.460   8.824  0.1240  0.0243  0.2892
   53loPI   C2A  840   9.719   5.320   8.501  0.0599  0.3497  0.2460
   53loPI   C3A  841   9.348   5.219   8.198 -0.0498 -0.2394 -0.2110
   53loPI   C4A  842   9.073   5.308   7.833  0.3914  0.3375  0.0140
   53loPI   C5A  843   8.835   5.076   7.494 -0.0645 -0.2464  0.1654
   53loPI   C6A  844   8.986   4.856   7.182 -0.4490  0.0002  0.1190
   53loPI   C1B  845   9.595   5.080   9.204  0.3848 -0.2794  0.0801
   53loPI   C2B  846   9.602   4.891   8.713 -0.0601  0.1130  0.0287
   53loPI   C3B  847   9.568   4.745   8.371  0.0171 -0.0107  0.2040
   53loPI   C4B  848   9.760   4.593   8.020 -0.1158 -0.1150  0.0561
   54loPI    C1  849  12.799  10.825  10.033  0.0076  0.1916  0.1131
   54loPI    C2  850  12.923  10.701  10.392  0.1975  0.1532  0.0354
   54loPI    C3  851  12.746  11.058  10.354  0.1120  0.1270  0.1775
   54loPI   PO4  852  12.995  10.746   9.903  0.0515 -0.0368 -0.3016
   54loPI   GL1  853  12.879  10.786   9.487  0.1666 -0.2091 -0.0687
   54loPI   GL2  854  12.791  10.995   9.247  0.0955  0.2557 -0.0948
   54loPI   C1A  855  13.118  10.485   9.077  0.3146 -0.0887  0.0829
   54loPI   C2A  856  13.377  10.597   8.735  0.1730 -0.0529 -0.1148
   54loPI   C3A  857  13.390  10.769   8.347  0.0334 -0.2011 -0.1723
   54loPI   C4A  858  13.625  10.918   8.067  0.2748 -0.1294  0.2399
   54loPI   C5A  859  13.727  10.871   7.694 -0.2802 -0.2112  0.2594
   54loPI   C6A  860  13.472  10.893   7.142 -0.3133 -0.4856 -0.1245
   54loPI   C1B  861  12.960  10.955   8.936 -0.0411 -0.1952  0.0522
   54loPI   C2B  862  12.984  11.026   8.581  0.1175  0.1127  0.2321
   54loPI   C3B  863  12.926  10.836   8.193  0.0512  0.0248  0.0996
   54loPI   C4B  864  13.120  10.445   8.081 -0.2041 -0.1216 -0.2328
   55loPI    C1  865  15.362   4.360  10.161  0.0240 -0.1325  0.0789
   55loPI    C2  866  14.978   4.270  10.227  0.0068 -0.1063  0.0153
   55loPI    C3  867  15.203   4.417  10.523 -0.0210 -0.1612  0.0638
   55loPI   PO4  868  15.401   4.481  10.014 -0.0073  0.0570 -0.3133
   55loPI   GL1  869  15.516   4.460   9.640 -0.0505 -0.2389  0.0562
   55loPI   GL2  870  15.309   4.628   9.346  0.2481 -0.0805  0.1528
   55loPI   C1A  871  15.283   4.148   9.349 -0.0267 -0.0446 -0.1436
   55loPI   C2A  872  15.175   3.931   8.940  0.1677  0.0096  0.2278
   55loPI   C3A  873  15.290   3.848   8.537 -0.1423 -0.1655 -0.1731
   55loPI   C4A  874  15.666   3.756   8.444 -0.2223  0.0407  0.2140
   55loPI   C5A  875  15.788   3.368   8.052  0.1252 -0.0281  0.0014
   55loPI   C6A  876  15.909   3.192   7.650  0.1305  0.1580 -0.5973
   55loPI   C1B  877  15.359   4.419   8.936  0.0084  0.3557  0.2323
   55loPI   C2B  878  15.265   4.407   8.407 -0.0783 -0.3595 -0.0932
   55loPI   C3B  879  15.367   4.673   8.060  0.1877 -0.1901 -0.2605
   55loPI   C4B  880  15.708   4.986   8.164 -0.1234  0.0352 -0.0530
   56loPI    C1  881   5.557  11.389   9.958  0.1947  0.0029  0.0201
   56loPI    C2  882   5.632  11.431  10.349 -0.3294  0.0482  0.1232
   56loPI    C3  883   5.469  11.093  10.212 -0.2268  0.0657 -0.0455
   56loPI   PO4  884   5.707  11.571   9.832  0.0521  0.2056 -0.3666
   56loPI   GL1  885   5.800  11.454   9.469 -0.0125 -0.2747 -0.0709
   56loPI   GL2  886   5.901  11.121   9.354  0.1216 -0.0266  0.3972
   56loPI   C1A  887   5.968  11.764   9.093  0.0375 -0.0201 -0.2656
   56loPI   C2A  888   6.207  11.697   8.771 -0.0278  0.0273  0.1921
   56loPI   C3A  889   6.240  11.702   8.378  0.1529 -0.2119  0.1247
   56loPI   C4A  890   6.425  11.645   7.857 -0.2360 -0.0717 -0.0826
   56loPI   C5A  891   6.777  11.589   7.519  0.2510  0.2356  0.0795
   56loPI   C6A  892   7.110  11.763   7.603  0.0551  0.2859 -0.1006
   56loPI   C1B  893   5.969  11.271   8.948  0.0046 -0.0182  0.2142
   56loPI   C2B  894   5.931  11.322   8.528 -0.1547 -0.0434  0.0625
   56loPI   C3B  895   5.844  11.381   8.118 -0.3784  0.3122 -0.2382
   56loPI   C4B  896   6.079  11.263   7.735 -0.0083  0.0696  0.0961
   57loPI    C1  897  11.041   5.374   9.624 -0.1293  0.0450 -0.1724
   57loPI    C2  898  11.026   5.430  10.020  0.0614 -0.2319 -0.1229
   57loPI    C3  899  10.742   5.216   9.837 -0.0807 -0.0212 -0.1527
   57loPI   PO4  900  10.869   5.604   9.451 -0.1293  0.1374 -0.1768
   57loPI   GL1  901  10.962   5.819   9.083 -0.0043 -0.1394  0.0201
   57loPI   GL2  902  11.075   5.661   8.841  0.3220  0.1033  0.2033
   57loPI   C1A  903  10.673   5.892   8.686 -0.2229 -0.1120  0.0196
   57loPI   C2A  904  10.675   5.860   8.307  0.1986  0.0816 -0.0691
   57loPI   C3A  905  10.323   5.969   8.214 -0.0043 -0.0677  0.1759
   57loPI   C4A  906  10.133   5.867   7.919  0.1029  0.2564  0.1971
   57loPI   C5A  907  10.191   5.909   7.526 -0.3854  0.2333 -0.0567
   57loPI   C6A  908  10.601   5.934   7.380 -0.1817  0.0628  0.1485
   57loPI   C1B  909  11.099   5.654   8.400  0.0155  0.2225  0.0789
   57loPI   C2B  910  11.042   5.630   7.964 -0.1814  0.0197 -0.0009
   57loPI   C3B  911  11.129   5.764   7.638  0.0953 -0.0380 -0.5781
   57loPI   C4B  912  11.294   5.807   7.285  0.0738  0.1494  0.0623
   58loPI    C1  913  10.874  15.489   9.536  0.0712  0.0724 -0.0878
   58loPI    C2  914  10.838  15.482   9.935 -0.0652 -0.2121 -0.1028
   58loPI    C3  915  11.184  15.379   9.764  0.0736  0.1532 -0.0515
   58loPI   PO4  916  10.625  15.338   9.483  0.1103 -0.2737  0.0040
   58loPI   GL1  917  10.667  15.007   9.342 -0.0560  0.1374  0.0195
   58loPI   GL2  918  10.447  14.765   9.254 -0.0556  0.2238  0.1709
   58loPI   C1A  919  10.695  15.121   8.869  0.1495 -0.3526  0.1146
   58loPI   C2A  920  10.740  15.036   8.546  0.1289 -0.3511  0.0120
   58loPI   C3A  921  10.675  15.065   8.178 -0.1306 -0.2703 -0.0346
   58loPI   C4A  922  10.498  14.776   7.838  0.0588  0.0342  0.2450
   58loPI   C5A  923  10.380  14.834   7.452 -0.4311  0.1922  0.1398
   58loPI   C6A  924  10.416  14.720   7.068  0.2174 -0.5993 -0.4183
   58loPI   C1B  925  10.422  14.680   8.813  0.0642 -0.1361 -0.3330
   58loPI   C2B  926  10.423  14.672   8.412  0.2229  0.0450  0.3497
   58loPI   C3B  927  10.123  14.515   8.101 -0.0294 -0.0003  0.0550
   58loPI   C4B  928  10.074  14.465   7.703 -0.0461 -0.2202  0.3188
   59loPI    C1  929  13.545   8.609   9.813  0.1046 -0.1042  0.1341
   59loPI    C2  930  13.875   8.435   9.958  0.0215 -0.2145  0.1916
   59loPI    C3  931  13.607   8.596  10.208  0.0428 -0.1047  0.1440
   59loPI   PO4  932  13.559   8.641   9.593  0.0004  0.2854  0.3276
   59loPI   GL1  933  13.471   8.764   9.148 -0.0810 -0.1071 -0.0881
   59loPI   GL2  934  13.291   8.440   9.173  0.1553  0.1092  0.0972
   59loPI   C1A  935  13.550   8.769   8.689  0.2157 -0.3283  0.1593
   59loPI   C2A  936  13.570   8.617   8.177 -0.3057 -0.0236  0.1370
   59loPI   C3A  937  13.560   8.622   7.757  0.0879  0.0546 -0.0281
   59loPI   C4A  938  13.646   8.315   7.303  0.0146  0.2098 -0.1017
   59loPI   C5A  939  13.734   8.567   6.937 -0.1998 -0.0441 -0.0442
   59loPI   C6A  940  13.926   8.491   6.527  0.0778 -0.0645 -0.1403
   59loPI   C1B  941  13.598   8.249   8.822 -0.0824  0.0331 -0.2126
   59loPI   C2B  942  13.749   8.233   8.412  0.5201 -0.1154 -0.1736
   59loPI   C3B  943  13.697   8.090   7.939 -0.0934  0.0565 -0.1580
   59loPI   C4B  944  13.422   7.996   7.584  0.2156  0.0901  0.4080
   60loPI    C1  945  16.301  18.215   9.841  0.2220 -0.0260 -0.1581
   60loPI    C2  946  16.406  17.986   9.530  0.2119  0.0598 -0.2250
   60loPI    C3  947  16.677  18.084   9.806  0.1326 -0.3358  0.0012
   60loPI   PO4  948  15.975  18.272   9.697 -0.0178  0.0531 -0.3204
   60loPI   GL1  949  15.802  18.362   9.374 -0.0799 -0.2704 -0.1393
   60loPI   GL2  950  15.863  18.712   9.280  0.1181 -0.2367  0.1124
   60loPI   C1A  951  15.765  18.264   8.918 -0.1613 -0.1201 -0.1247
   60loPI   C2A  952  15.630  18.360   8.535  0.0276  0.3448  0.1605
   60loPI   C3A  953  15.615  18.533   8.169 -0.3665  0.0982  0.1704
   60loPI   C4A  954  15.791  18.803   7.787  0.2193 -0.4729 -0.6518
   60loPI   C5A  955  15.952  19.175   7.678  0.0248  0.1988  0.2660
   60loPI   C6A  956  16.396  19.447   7.642 -0.0807  0.1350  0.0089
   60loPI   C1B  957  15.910  18.709   8.868 -0.0414 -0.0988 -0.0667
   60loPI   C2B  958  16.120  18.480   8.440  0.2010 -0.0932 -0.3294
   60loPI   C3B  959  16.142  18.487   7.983 -0.1663 -0.3756  0.0745
   60loPI   C4B  960  16.351  18.908   7.708  0.0224  0.1745 -0.1470
   61loPI    C1  961  13.375  14.079  10.040  0.1941  0.0005 -0.1567
   61loPI    C2  962  13.516  14.089  10.414  0.2259 -0.1650 -0.1636
   61loPI    C3  963  13.383  13.745  10.259 -0.0690 -0.0369 -0.2007
   61loPI   PO4  964  13.546  14.275   9.912  0.1017  0.1953 -0.0993
   61loPI   GL1  965  13.633  14.579   9.555  0.1065 -0.1304 -0.1150
   61loPI   GL2  966  14.030  14.427   9.472 -0.3313 -0.0553  0.5992
   61loPI   C1A  967  13.607  14.339   9.200 -0.3292 -0.3880  0.2891
   61loPI   C2A  968  13.670  14.274   8.692  0.0132  0.0047  0.1250
   61loPI   C3A  969  13.662  14.386   8.252 -0.3815 -0.1652 -0.0192
   61loPI   C4A  970  13.637  14.302   7.884  0.2634 -0.0537  0.2322
   61loPI   C5A  971  13.801  13.884   7.779  0.0949  0.0128  0.0112
   61loPI   C6A  972  14.114  13.534   7.859  0.1878  0.2790  0.1873
   61loPI   C1B  973  14.057  14.528   9.074  0.2017 -0.2183  0.2480
   61loPI   C2B  974  14.143  14.498   8.629  0.4210 -0.2861 -0.0798
   61loPI   C3B  975  14.341  14.497   8.215  0.1098  0.1149  0.0939
   61loPI   C4B  976  14.044  14.642   8.056  0.0618 -0.1250  0.0836
   62loPI    C1  977  13.923  17.260   9.535 -0.0169  0.0223  0.0125
   62loPI    C2  978  13.838  17.056   9.201  0.1108  0.1094 -0.0744
   62loPI    C3  979  13.543  17.214   9.420  0.0099 -0.1722 -0.0024
   62loPI   PO4  980  14.146  17.058   9.693 -0.1424 -0.1654  0.0674
   62loPI   GL1  981  14.428  16.903   9.426 -0.1326  0.0799  0.3239
   62loPI   GL2  982  14.300  16.567   9.394 -0.2157 -0.0238  0.0084
   62loPI   C1A  983  14.277  16.906   9.063  0.0371 -0.4691 -0.0379
   62loPI   C2A  984  14.308  16.933   8.614  0.3656 -0.0735  0.1703
   62loPI   C3A  985  14.455  17.102   8.276 -0.2324 -0.0313  0.1152
   62loPI   C4A  986  14.620  17.388   8.015 -0.1321 -0.1179  0.0188
   62loPI   C5A  987  14.826  17.296   7.701 -0.0382 -0.1231 -0.2127
   62loPI   C6A  988  14.848  16.931   7.494 -0.1424 -0.0326  0.0457
   62loPI   C1B  989  14.335  16.427   9.039  0.3079  0.0286 -0.0388
   62loPI   C2B  990  14.501  16.390   8.670 -0.0931 -0.1777  0.1138
   62loPI   C3B  991  14.428  16.620   8.276 -0.2391 -0.1225 -0.2260
   62loPI   C4B  992  14.857  16.819   8.038 -0.0034  0.1436 -0.2309
   63loPI    C1  993   0.427   8.341   9.867  0.4123  0.1541  0.3449
   63loPI    C2  994   0.077   8.485   9.997  0.1870 -0.0470 -0.0219
   63loPI    C3  995   0.270   8.207  10.210  0.3028  0.3139  0.3584
   63loPI   PO4  996   0.528   8.486   9.735  0.0195  0.0141  0.2147
   63loPI   GL1  997   0.636   8.590   9.406 -0.1135  0.0685 -0.1199
   63loPI   GL2  998   0.977   8.617   9.452 -0.2986 -0.2736  0.3932
   63loPI   C1A  999   0.753   8.306   9.075 -0.0041  0.2504  0.3202
   63loPI   C2A 1000   0.859   8.290   8.700  0.0940 -0.1047  0.2455
   63loPI   C3A 1001   1.068   8.223   8.368 -0.4759 -0.2086  0.2751
   63loPI   C4A 1002   1.235   8.083   8.003 -0.1952 -0.1154 -0.1935
   63loPI   C5A 1003   1.625   7.923   7.748 -0.1382 -0.2262 -0.2546
   63loPI   C6A 1004   1.971   7.915   7.532 -0.0428  0.0303 -0.3665
   63loPI   C1B 1005   1.186   8.701   9.054  0.0147 -0.1016 -0.2133
   63loPI   C2B 1006   1.235   8.639   8.575 -0.2611  0.1336  0.3720
   63loPI   C3B 1007   1.329   8.657   8.128 -0.1706 -0.3388 -0.0445
   63loPI   C4B 1008   1.319   8.844   7.706 -0.1393  0.1508  0.0511
   64loPI    C1 1009   5.928  17.409  10.454 -0.2573 -0.3640  0.0470
   64loPI    C2 1010   6.267  17.227  10.565  0.1052  0.0616 -0.3233
   64loPI    C3 1011   6.107  17.511  10.797 -0.0480 -0.1957 -0.1091
   64loPI   PO4 1012   5.972  17.459  10.271  0.0716 -0.2359 -0.2912
   64loPI   GL1 1013   5.754  17.675   9.996  0.1618  0.1779  0.0220
   64loPI   GL2 1014   5.683  17.615   9.672  0.5528 -0.3490 -0.0041
   64loPI   C1A 1015   5.964  18.011   9.656  0.0185 -0.1553  0.0971
   64loPI   C2A 1016   6.080  18.172   9.235  0.1048 -0.1373  0.1856
   64loPI   C3A 1017   6.240  18.173   8.861 -0.0937 -0.0773  0.2862
   64loPI   C4A 1018   6.491  18.289   8.562 -0.1156 -0.1559  0.2725
   64loPI   C5A 1019   6.698  18.583   8.600 -0.3761 -0.1154  0.0549
   64loPI   C6A 1020   6.899  18.893   8.449 -0.5422  0.0147 -0.2032
   64loPI   C1B 1021   5.833  17.737   9.285 -0.2904 -0.0299  0.3767
   64loPI   C2B 1022   6.019  17.734   8.812  0.1362  0.0397 -0.1200
   64loPI   C3B 1023   6.119  17.890   8.430  0.0008  0.0627 -0.0690
   64loPI   C4B 1024   6.062  17.932   8.059  0.1476  0.1595 -0.0855
   65loPI    C1 1025  12.229  15.101   9.624  0.3041 -0.1212  0.0226
   65loPI    C2 1026  12.172  14.851   9.931  0.1802  0.2273  0.2894
   65loPI    C3 1027  12.459  15.129   9.950  0.3784  0.0521 -0.0437
   65loPI   PO4 1028  12.285  14.916   9.401 -0.6038 -0.3121  0.1991
   65loPI   GL1 1029  12.133  14.679   9.095 -0.1944  0.2123 -0.2210
   65loPI   GL2 1030  11.984  14.739   8.851 -0.1268  0.1476 -0.4200
   65loPI   C1A 1031  12.421  14.960   8.732 -0.0576 -0.0893 -0.1059
   65loPI   C2A 1032  12.543  15.123   8.297 -0.1103  0.3222  0.1658
   65loPI   C3A 1033  12.416  15.367   7.926  0.2047  0.0161 -0.1658
   65loPI   C4A 1034  12.245  15.517   7.595  0.3258  0.0518 -0.1324
   65loPI   C5A 1035  11.971  15.422   7.218  0.1712  0.2868  0.0899
   65loPI   C6A 1036  11.741  15.463   6.863  0.1520  0.1946  0.0054
   65loPI   C1B 1037  11.986  14.708   8.499 -0.0475 -0.0716  0.0103
   65loPI   C2B 1038  12.152  14.783   8.228  0.3542 -0.2050  0.2003
   65loPI   C3B 1039  12.182  14.758   7.757 -0.1704 -0.0142  0.5216
   65loPI   C4B 1040  12.123  15.000   7.482 -0.2375  0.3526  0.0089
   66loPI    C1 1041  18.098   1.955  10.387  0.2061  0.0970 -0.1777
   66loPI    C2 1042  17.940   1.651  10.594  0.1902  0.0499 -0.2589
   66loPI    C3 1043  17.898   2.026  10.727  0.2125  0.0166 -0.1570
   66loPI   PO4 1044  18.058   1.830  10.116 -0.3120  0.2731 -0.3940
   66loPI   GL1 1045  17.807   1.847   9.731 -0.1800 -0.0784 -0.0050
   66loPI   GL2 1046  17.498   1.715   9.735 -0.1113 -0.2339 -0.0357
   66loPI   C1A 1047  17.905   1.964   9.336 -0.2047  0.0752  0.0138
   66loPI   C2A 1048  17.772   1.808   8.906  0.2730 -0.0761  0.0542
   66loPI   C3A 1049  17.652   1.775   8.559 -0.3653 -0.0155  0.2529
   66loPI   C4A 1050  17.786   1.903   8.219 -0.1171 -0.0119  0.0235
   66loPI   C5A 1051  17.944   1.943   7.812  0.2072  0.1604 -0.0283
   66loPI   C6A 1052  18.199   2.279   7.438 -0.1765  0.1499 -0.1013
   66loPI   C1B 1053  17.562   1.551   9.280  0.1405  0.0093 -0.0551
   66loPI   C2B 1054  17.382   1.417   8.864  0.2800 -0.1536  0.1731
   66loPI   C3B 1055  17.235   1.560   8.536 -0.1339  0.4125  0.0116
   66loPI   C4B 1056  17.425   1.516   8.099  0.0325 -0.1763 -0.2272
   67loPI    C1 1057  11.436   6.964   9.933  0.0915  0.1391 -0.1480
   67loPI    C2 1058  11.368   6.810  10.296 -0.0683  0.2226 -0.1421
   67loPI    C3 1059  11.589   6.607  10.031  0.0033  0.1367 -0.0175
   67loPI   PO4 1060  11.096   7.146   9.714 -0.3066  0.0636 -0.0597
   67loPI   GL1 1061  11.021   7.156   9.249  0.0782 -0.1811 -0.2215
   67loPI   GL2 1062  11.330   7.100   9.290  0.2439 -0.2587 -0.2360
   67loPI   C1A 1063  10.813   7.213   8.817 -0.2219 -0.1842 -0.3270
   67loPI   C2A 1064  10.885   7.257   8.428 -0.2670 -0.2626 -0.1611
   67loPI   C3A 1065  10.997   7.109   8.022  0.2005 -0.0759  0.0719
   67loPI   C4A 1066  11.015   6.871   7.665 -0.0632 -0.2094 -0.2681
   67loPI   C5A 1067  11.012   6.679   7.280 -0.1472 -0.2034  0.0500
   67loPI   C6A 1068  11.278   6.746   6.871  0.2765 -0.2347  0.0972
   67loPI   C1B 1069  11.392   7.100   8.772 -0.0583 -0.0583 -0.3983
   67loPI   C2B 1070  11.359   6.989   8.295 -0.0157 -0.0763 -0.1297
   67loPI   C3B 1071  11.144   6.634   8.154 -0.2081 -0.1608 -0.1463
   67loPI   C4B 1072  11.142   6.087   8.120 -0.0888  0.2236  0.1503
   68loPI    C1 1073  16.016   7.105  10.298  0.0849 -0.0208 -0.1254
   68loPI    C2 1074  16.374   6.984  10.428 -0.0145 -0.0749  0.1026
   68loPI    C3 1075  16.241   7.350  10.520 -0.0071 -0.0450 -0.0045
   68loPI   PO4 1076  15.833   6.927  10.285  0.3572  0.0140 -0.4445
   68loPI   GL1 1077  15.683   6.710   9.895 -0.1083 -0.0550 -0.2627
   68loPI   GL2 1078  15.510   6.664   9.656  0.0007  0.1494  0.0315
   68loPI   C1A 1079  16.098   6.504   9.707 -0.1887 -0.2185  0.2108
   68loPI   C2A 1080  16.266   6.415   9.338 -0.1348 -0.1782 -0.3307
   68loPI   C3A 1081  16.344   6.379   8.856  0.1118 -0.0261  0.0136
   68loPI   C4A 1082  16.368   6.500   8.450 -0.4410 -0.2817  0.0121
   68loPI   C5A 1083  16.152   6.541   8.029 -0.1442  0.0504 -0.0152
   68loPI   C6A 1084  15.834   6.620   7.758 -0.2353 -0.0928  0.2116
   68loPI   C1B 1085  15.827   6.462   9.276  0.1038 -0.2926 -0.3988
   68loPI   C2B 1086  15.865   6.454   8.744  0.0585  0.2876  0.1280
   68loPI   C3B 1087  15.738   6.291   8.376 -0.1211 -0.0229  0.3310
   68loPI   C4B 1088  15.750   6.029   7.949  0.0121 -0.0557  0.0187
   69loPI    C1 1089   5.684  17.028  10.188 -0.0780  0.0784  0.2509
   69loPI    C2 1090   5.430  16.919  10.477 -0.3530 -0.1908 -0.0838
   69loPI    C3 1091   5.330  16.869  10.093  0.0595  0.0434 -0.2283
   69loPI   PO4 1092   5.978  16.906  10.215  0.0317 -0.1505 -0.0015
   69loPI   GL1 1093   6.169  16.925   9.799 -0.0868 -0.0548 -0.2162
   69loPI   GL2 1094   6.112  17.182   9.868  0.4263  0.0962  0.0450
   69loPI   C1A 1095   6.055  17.061   9.341  0.3003 -0.0104 -0.2145
   69loPI   C2A 1096   6.056  17.314   8.986 -0.0697  0.1534  0.0763
   69loPI   C3A 1097   6.115  17.342   8.463  0.2188  0.1521 -0.1499
   69loPI   C4A 1098   6.154  17.393   8.042 -0.1974 -0.4228  0.2671
   69loPI   C5A 1099   6.027  17.101   7.708  0.3109  0.1025  0.0715
   69loPI   C6A 1100   6.221  16.789   7.680 -0.4319  0.2146  0.5035
   69loPI   C1B 1101   6.196  17.466   9.612 -0.0976 -0.2636 -0.0094
   69loPI   C2B 1102   6.280  17.660   9.344 -0.1730 -0.0026  0.1510
   69loPI   C3B 1103   6.532  17.947   9.185  0.2561 -0.0296  0.1923
   69loPI   C4B 1104   6.753  18.000   8.884 -0.0444 -0.1439 -0.1900
   70loPI    C1 1105   0.935  16.033  10.132 -0.1171 -0.0821  0.1762
   70loPI    C2 1106   0.953  16.246  10.470  0.0500  0.0640  0.0772
   70loPI    C3 1107   0.623  16.257  10.244 -0.0181  0.0577  0.1758
   70loPI   PO4 1108   1.191  16.153  10.046  0.0771 -0.3426 -0.1813
   70loPI   GL1 1109   1.274  16.339   9.714 -0.0290  0.0469 -0.1566
   70loPI   GL2 1110   0.850  16.437   9.780 -0.1054  0.1349 -0.5038
   70loPI   C1A 1111   1.194  16.388   9.271 -0.2125  0.0752  0.1619
   70loPI   C2A 1112   1.191  16.373   8.725  0.1578  0.1664  0.1068
   70loPI   C3A 1113   1.361  16.509   8.341 -0.2134 -0.3573 -0.1670
   70loPI   C4A 1114   1.426  16.385   7.943 -0.4230 -0.2001 -0.1131
   70loPI   C5A 1115   1.348  16.019   7.655 -0.1495 -0.2179  0.0804
   70loPI   C6A 1116   1.215  15.538   7.572 -0.0459 -0.0431  0.4189
   70loPI   C1B 1117   0.702  16.411   9.331 -0.0498 -0.0535 -0.1216
   70loPI   C2B 1118   0.512  16.398   8.970 -0.1317  0.1610 -0.0162
   70loPI   C3B 1119   0.688  16.521   8.648 -0.1580  0.1736  0.3547
   70loPI   C4B 1120   0.892  16.589   8.157  0.1115  0.1114 -0.0307
   71loPI    C1 1121  12.532   5.086   9.750 -0.1118 -0.0471 -0.0244
   71loPI    C2 1122  12.626   4.814   9.473  0.2365  0.0615 -0.0171
   71loPI    C3 1123  12.677   4.730   9.861  0.0401  0.0222  0.0013
   71loPI   PO4 1124  12.437   5.273   9.580 -0.0917 -0.0229  0.1851
   71loPI   GL1 1125  12.268   5.371   9.102  0.0556  0.2533  0.2178
   71loPI   GL2 1126  12.492   5.071   9.059  0.1467 -0.1783  0.0353
   71loPI   C1A 1127  12.330   5.568   8.710 -0.1165  0.2189 -0.1634
   71loPI   C2A 1128  12.362   5.452   8.206  0.1868  0.4805  0.2401
   71loPI   C3A 1129  12.406   5.115   7.927  0.0216 -0.2389  0.0467
   71loPI   C4A 1130  12.720   4.870   7.650 -0.0795 -0.1856  0.2826
   71loPI   C5A 1131  13.132   5.206   7.531  0.0771 -0.1730 -0.0350
   71loPI   C6A 1132  13.216   5.702   7.582 -0.1476  0.6129 -0.1884
   71loPI   C1B 1133  12.469   5.011   8.629  0.3362 -0.0509  0.0511
   71loPI   C2B 1134  12.470   4.747   8.295  0.0708 -0.2520 -0.1021
   71loPI   C3B 1135  12.270   4.569   7.822 -0.1320  0.1972  0.2364
   71loPI   C4B 1136  12.312   4.162   7.517 -0.0597 -0.0863 -0.3124
   72loPI    C1 1137  10.743  11.153   9.754 -0.1358 -0.1196 -0.0283
   72loPI    C2 1138  10.923  11.446   9.959 -0.1053 -0.1583  0.0004
   72loPI    C3 1139  10.643  11.221  10.135  0.0445 -0.3049  0.0538
   72loPI   PO4 1140  11.063  11.097   9.620  0.3557  0.2700 -0.0762
   72loPI   GL1 1141  11.157  10.860   9.259  0.0497  0.0184 -0.0763
   72loPI   GL2 1142  11.419  10.719   9.526  0.1777  0.1518  0.1386
   72loPI   C1A 1143  11.300  10.936   8.708 -0.1364 -0.2124 -0.1169
   72loPI   C2A 1144  11.406  10.782   8.247 -0.1515  0.2172 -0.3954
   72loPI   C3A 1145  11.381  10.440   7.965 -0.1259 -0.0899 -0.1545
   72loPI   C4A 1146  11.390   9.938   7.722  0.1251 -0.2694 -0.0007
   72loPI   C5A 1147  11.149   9.622   7.471  0.1307  0.0761 -0.0238
   72loPI   C6A 1148  10.767   9.453   7.740  0.5034  0.0338 -0.0359
   72loPI   C1B 1149  11.609  10.630   9.061  0.4398 -0.3086 -0.1114
   72loPI   C2B 1150  11.745  10.663   8.644 -0.0691 -0.2437  0.2601
   72loPI   C3B 1151  11.747  10.399   8.268  0.1422 -0.3898  0.0104
   72loPI   C4B 1152  11.833  10.219   7.875 -0.2366  0.1903 -0.2343
   73loPI    C1 1153  16.831   8.117  10.548  0.1303 -0.0848  0.0959
   73loPI    C2 1154  17.025   8.412  10.735 -0.0895  0.1209  0.0042
   73loPI    C3 1155  16.766   8.184  10.937  0.0566  0.0101  0.0677
   73loPI   PO4 1156  16.988   8.141  10.302 -0.0833 -0.1360 -0.0937
   73loPI   GL1 1157  17.417   8.077  10.042  0.2479  0.1352  0.0626
   73loPI   GL2 1158  17.318   7.873  10.037 -0.0882  0.0345  0.0026
   73loPI   C1A 1159  17.140   8.295   9.714 -0.0588 -0.0175  0.1388
   73loPI   C2A 1160  16.968   8.399   9.302 -0.3087  0.2742 -0.2717
   73loPI   C3A 1161  16.683   8.399   9.070  0.1611 -0.1741  0.0452
   73loPI   C4A 1162  16.401   8.291   8.742 -0.0107  0.1999  0.0459
   73loPI   C5A 1163  16.594   8.193   8.220  0.1343 -0.0421  0.0675
   73loPI   C6A 1164  16.897   7.892   8.118 -0.2692  0.2143 -0.0446
   73loPI   C1B 1165  17.331   7.898   9.493 -0.1182 -0.0176 -0.0720
   73loPI   C2B 1166  17.191   7.972   9.063 -0.0377  0.0023  0.0901
   73loPI   C3B 1167  17.246   8.329   8.802 -0.0940  0.1737  0.0619
   73loPI   C4B 1168  17.061   8.483   8.454 -0.1175 -0.1949  0.1387
   74loPI    C1 1169   7.557   1.462  10.890 -0.1323 -0.2951  0.0132
   74loPI    C2 1170   7.261   1.258  11.065 -0.2455  0.0542  0.2400
   74loPI    C3 1171   7.518   1.469  11.288  0.0421 -0.0661  0.0290
   74loPI   PO4 1172   7.614   1.225  10.622 -0.2782  0.1684  0.3197
   74loPI   GL1 1173   7.288   0.931  10.380 -0.2929  0.0225 -0.1303
   74loPI   GL2 1174   7.030   0.618  10.278  0.0379 -0.1537 -0.0788
   74loPI   C1A 1175   7.339   1.183   9.954  0.0729 -0.1452 -0.3302
   74loPI   C2A 1176   7.390   1.166   9.526 -0.4340 -0.3031 -0.3167
   74loPI   C3A 1177   7.347   1.035   9.133 -0.2538 -0.0537 -0.0381
   74loPI   C4A 1178   7.410   0.946   8.726 -0.0484 -0.0621 -0.1386
   74loPI   C5A 1179   7.398   1.157   8.310  0.1773  0.2015 -0.2369
   74loPI   C6A 1180   7.614   1.345   8.015  0.2002 -0.0543 -0.1573
   74loPI   C1B 1181   6.797   0.474   9.940  0.2762  0.5126  0.2036
   74loPI   C2B 1182   7.056   0.287   9.657  0.0588 -0.3748  0.1618
   74loPI   C3B 1183   7.081   0.159   9.243 -0.1915 -0.2265  0.1611
   74loPI   C4B 1184   7.084   0.044   8.878  0.0812  0.2209 -0.2619
   75loPI    C1 1185   4.008   0.485  10.634  0.0544 -0.0528  0.1081
   75loPI    C2 1186   4.244   0.432  10.952  0.2610  0.0330 -0.0289
   75loPI    C3 1187   4.036   0.771  10.912  0.3185  0.0674 -0.0382
   75loPI   PO4 1188   4.234   0.524  10.361 -0.2384  0.0202  0.1428
   75loPI   GL1 1189   4.181   0.629   9.999  0.1573  0.0888  0.1147
   75loPI   GL2 1190   3.958   0.764   9.836 -0.0255  0.1216 -0.3212
   75loPI   C1A 1191   4.333   0.232   9.669  0.3689 -0.0128  0.3023
   75loPI   C2A 1192   4.285  -0.023   9.370 -0.1025  0.1392  0.0777
   75loPI   C3A 1193   4.238   0.022   8.862  0.0830  0.0279 -0.2592
   75loPI   C4A 1194   4.156   0.122   8.429  0.3062 -0.1495 -0.1942
   75loPI   C5A 1195   4.497   0.120   8.145 -0.1323  0.2361 -0.0351
   75loPI   C6A 1196   4.937  -0.065   8.176 -0.1954 -0.0969 -0.0849
   75loPI   C1B 1197   4.174   1.049   9.590 -0.0030  0.1503 -0.0215
   75loPI   C2B 1198   4.185   0.968   9.198 -0.1157  0.3021 -0.0346
   75loPI   C3B 1199   4.487   0.954   8.840 -0.3174  0.0921  0.0436
   75loPI   C4B 1200   4.476   0.853   8.441  0.0199  0.1454 -0.0842
   76loPI    C1 1201   9.302   7.147   9.611 -0.2418 -0.0840  0.3025
   76loPI    C2 1202   9.655   7.333   9.634 -0.2420 -0.0056 -0.2235
   76loPI    C3 1203   9.530   7.105   9.938  0.1982  0.0702  0.0236
   76loPI   PO4 1204   9.209   7.319   9.393 -0.4352 -0.0890 -0.0599
   76loPI   GL1 1205   8.913   7.276   9.098 -0.0078 -0.3051  0.0551
   76loPI   GL2 1206   8.961   7.702   9.153 -0.0832 -0.3480 -0.0253
   76loPI   C1A 1207   8.806   7.320   8.725  0.0756  0.2439  0.0118
   76loPI   C2A 1208   8.741   7.264   8.277 -0.1207  0.4296 -0.2976
   76loPI   C3A 1209   8.509   6.997   7.983 -0.2710 -0.1064 -0.0413
   76loPI   C4A 1210   8.433   7.014   7.546 -0.2693  0.1357  0.2165
   76loPI   C5A 1211   8.168   7.097   7.326 -0.2719  0.0791  0.1726
   76loPI   C6A 1212   7.830   7.356   7.453 -0.0832 -0.0737  0.2554
   76loPI   C1B 1213   9.144   7.889   8.805  0.1965  0.0595  0.5601
   76loPI   C2B 1214   9.088   7.955   8.323  0.0216  0.0189  0.1900
   76loPI   C3B 1215   8.964   8.320   8.156  0.4194  0.1095  0.2030
   76loPI   C4B 1216   8.772   8.527   7.854 -0.0554 -0.2323 -0.0390
   77loPI    C1 1217   0.848   3.502   9.888 -0.0029  0.3538  0.3111
   77loPI    C2 1218   0.578   3.477  10.182 -0.0381  0.2909  0.2736
   77loPI    C3 1219   0.882   3.217  10.167 -0.3874 -0.1122 -0.0987
   77loPI   PO4 1220   0.713   3.504   9.651 -0.3944 -0.1396 -0.3054
   77loPI   GL1 1221   0.442   3.349   9.299  0.0911  0.0687  0.2305
   77loPI   GL2 1222   0.159   3.423   9.360  0.1012  0.2275  0.1235
   77loPI   C1A 1223   0.449   3.618   9.021  0.0700 -0.3721 -0.2095
   77loPI   C2A 1224   0.422   3.610   8.624 -0.0079  0.2882  0.3521
   77loPI   C3A 1225   0.350   3.590   8.194  0.2748  0.4969  0.2111
   77loPI   C4A 1226   0.276   3.548   7.822 -0.0299  0.0359  0.1598
   77loPI   C5A 1227   0.383   3.325   7.451 -0.1558 -0.0313  0.2843
   77loPI   C6A 1228   0.547   3.164   7.040 -0.2025 -0.2201 -0.2324
   77loPI   C1B 1229  -0.024   3.341   8.951  0.1873  0.0204 -0.0788
   77loPI   C2B 1230  -0.120   3.367   8.536 -0.0355 -0.0061  0.0380
   77loPI   C3B 1231  -0.182   3.196   8.078 -0.0264 -0.3927  0.0676
   77loPI   C4B 1232  -0.312   3.341   7.669  0.0936  0.4656  0.0037
   78loPI    C1 1233   3.967  10.233  10.739 -0.0277  0.0023 -0.1281
   78loPI    C2 1234   3.647  10.019  10.848 -0.0276 -0.1054 -0.3346
   78loPI    C3 1235   4.005   9.843  10.819  0.1721  0.1306  0.4526
   78loPI   PO4 1236   3.894  10.295  10.402 -0.1125 -0.0432 -0.2357
   78loPI   GL1 1237   4.043  10.175   9.911 -0.0374 -0.3018  0.0697
   78loPI   GL2 1238   4.188  10.511   9.813 -0.1671  0.3159 -0.0367
   78loPI   C1A 1239   4.073   9.938   9.398  0.2338  0.2562 -0.2371
   78loPI   C2A 1240   4.279  10.054   9.025  0.3252 -0.1986 -0.2879
   78loPI   C3A 1241   4.591  10.016   8.830  0.3758 -0.3056 -0.0134
   78loPI   C4A 1242   4.841  10.324   8.581 -0.0620  0.0954 -0.4959
   78loPI   C5A 1243   4.574  10.389   8.295  0.0029  0.2011  0.1294
   78loPI   C6A 1244   4.521  10.188   7.824 -0.0674  0.0829 -0.1668
   78loPI   C1B 1245   4.028  10.417   9.313 -0.1550  0.0313 -0.1839
   78loPI   C2B 1246   3.804  10.481   8.980 -0.0015 -0.1722  0.1016
   78loPI   C3B 1247   3.650  10.439   8.499 -0.0159 -0.2876  0.0200
   78loPI   C4B 1248   3.896  10.477   8.120 -0.2383 -0.0546  0.3467
   79loPI    C1 1249  14.030   5.675  10.099 -0.2140 -0.1000  0.1264
   79loPI    C2 1250  13.870   5.317  10.020 -0.2387 -0.1003  0.1770
   79loPI    C3 1251  14.267   5.359  10.036 -0.2295 -0.0722 -0.0776
   79loPI   PO4 1252  13.794   5.788   9.942  0.0965 -0.2057  0.2083
   79loPI   GL1 1253  13.820   5.664   9.484 -0.0106  0.0717  0.0173
   79loPI   GL2 1254  13.861   6.024   9.510 -0.2304  0.3147 -0.0517
   79loPI   C1A 1255  13.824   5.423   9.083 -0.2829 -0.1327  0.0835
   79loPI   C2A 1256  13.789   5.585   8.693 -0.2221 -0.1813 -0.0504
   79loPI   C3A 1257  13.820   5.353   8.339  0.4245 -0.4146  0.0194
   79loPI   C4A 1258  13.870   5.049   8.125  0.3209  0.2087 -0.1393
   79loPI   C5A 1259  13.629   4.820   7.751  0.1558 -0.0203  0.1925
   79loPI   C6A 1260  13.442   4.324   7.599  0.1299  0.0465 -0.0943
   79loPI   C1B 1261  13.710   6.361   9.181  0.2744 -0.0954 -0.3011
   79loPI   C2B 1262  13.518   6.603   8.831  0.0314 -0.0037 -0.0894
   79loPI   C3B 1263  13.570   6.839   8.536 -0.0475  0.2607 -0.1016
   79loPI   C4B 1264  13.223   6.803   8.221 -0.3628 -0.1674 -0.2493
   80loPI    C1 1265  15.568   1.676  10.318  0.0108  0.1424  0.1643
   80loPI    C2 1266  15.223   1.533  10.461 -0.0294  0.2538  0.1799
   80loPI    C3 1267  15.567   1.441  10.641 -0.0205 -0.0950 -0.0053
   80loPI   PO4 1268  15.538   1.574  10.070  0.0535  0.0818  0.0542
   80loPI   GL1 1269  15.662   1.890   9.684 -0.0434 -0.1813 -0.0979
   80loPI   GL2 1270  15.397   1.880   9.522 -0.2424  0.1321 -0.0437
   80loPI   C1A 1271  16.028   1.844   9.395  0.1484  0.0361  0.3633
   80loPI   C2A 1272  15.922   1.971   8.944 -0.1097  0.0214  0.3048
   80loPI   C3A 1273  15.956   2.101   8.423 -0.0845  0.1032 -0.0782
   80loPI   C4A 1274  16.268   2.315   8.096 -0.0674  0.0017 -0.1753
   80loPI   C5A 1275  16.339   2.209   7.639 -0.1259  0.0221 -0.0445
   80loPI   C6A 1276  16.111   2.026   7.315  0.2082 -0.0308  0.1948
   80loPI   C1B 1277  15.449   1.972   9.038 -0.1130  0.1590 -0.0711
   80loPI   C2B 1278  15.514   1.919   8.629  0.2816  0.1836 -0.0414
   80loPI   C3B 1279  15.255   1.932   8.365  0.1577 -0.0856 -0.0935
   80loPI   C4B 1280  15.100   2.190   8.040 -0.0088 -0.1738  0.1197
   81loPI    C1 1281  15.315  14.950  10.012 -0.3211 -0.0462 -0.0937
   81loPI    C2 1282  15.222  15.270   9.791 -0.3878  0.1028  0.1464
   81loPI    C3 1283  15.490  15.302  10.087 -0.2858 -0.0992  0.0777
   81loPI   PO4 1284  15.242  14.772   9.783 -0.0218 -0.1520 -0.0740
   81loPI   GL1 1285  15.450  14.860   9.327 -0.1389 -0.0049 -0.0964
   81loPI   GL2 1286  15.699  15.055   9.640  0.0581 -0.0608 -0.0596
   81loPI   C1A 1287  15.507  14.740   8.906 -0.1927  0.4281  0.2751
   81loPI   C2A 1288  15.600  14.493   8.523 -0.0836  0.0322 -0.1476
   81loPI   C3A 1289  15.556  14.476   8.067  0.1505  0.0033 -0.2025
   81loPI   C4A 1290  15.348  14.437   7.661  0.4421 -0.1077 -0.0229
   81loPI   C5A 1291  15.437  14.728   7.311  0.0242 -0.1564 -0.0444
   81loPI   C6A 1292  15.521  15.023   6.981 -0.1617  0.2351 -0.1215
   81loPI   C1B 1293  15.915  14.828   9.233  0.3877  0.0607  0.0156
   81loPI   C2B 1294  16.065  14.654   8.771  0.0804  0.0610 -0.1696
   81loPI   C3B 1295  15.983  14.828   8.379  0.1363  0.0410  0.1528
   81loPI   C4B 1296  16.111  14.646   7.947  0.0943 -0.0084  0.3149
   82loPI    C1 1297  10.778   3.694   9.999 -0.0461 -0.4368 -0.1406
   82loPI    C2 1298  10.983   3.525  10.298  0.0883  0.2649  0.1846
   82loPI    C3 1299  10.608   3.651  10.359 -0.0495 -0.0024 -0.0850
   82loPI   PO4 1300  10.924   3.976   9.847  0.1093  0.1259  0.1952
   82loPI   GL1 1301  10.892   3.962   9.475 -0.1677 -0.0351 -0.0280
   82loPI   GL2 1302  10.707   3.844   9.226  0.1778 -0.1917 -0.3171
   82loPI   C1A 1303  11.081   3.931   8.941  0.4408 -0.2581  0.1295
   82loPI   C2A 1304  11.129   3.754   8.509  0.2253 -0.1749  0.0261
   82loPI   C3A 1305  11.406   3.803   8.211 -0.0460  0.1616  0.2630
   82loPI   C4A 1306  11.588   3.672   7.905 -0.0210  0.2260 -0.2381
   82loPI   C5A 1307  11.721   3.417   7.562 -0.4619  0.1582 -0.0406
   82loPI   C6A 1308  11.914   3.408   7.140 -0.0218  0.0975 -0.4548
   82loPI   C1B 1309  10.603   3.623   8.896 -0.2765 -0.0737 -0.3094
   82loPI   C2B 1310  10.598   3.506   8.582  0.1181  0.2611  0.0547
   82loPI   C3B 1311  10.825   3.511   8.288 -0.1530  0.0111 -0.0281
   82loPI   C4B 1312  10.829   3.425   7.792 -0.0094 -0.2944  0.0427
   83loPI    C1 1313   5.652  16.023  10.378 -0.1910 -0.1192 -0.0184
   83loPI    C2 1314   5.482  15.718  10.573 -0.0651  0.0021  0.2863
   83loPI    C3 1315   5.859  15.823  10.656  0.1011 -0.1452 -0.2500
   83loPI   PO4 1316   5.508  15.925  10.144  0.1199 -0.0043  0.0444
   83loPI   GL1 1317   5.211  16.191   9.878 -0.0725 -0.1691 -0.0179
   83loPI   GL2 1318   5.296  16.443   9.811  0.1754  0.4135 -0.2782
   83loPI   C1A 1319   5.447  16.145   9.466  0.2972 -0.2163  0.0637
   83loPI   C2A 1320   5.570  15.872   9.145  0.0926  0.2814 -0.2627
   83loPI   C3A 1321   5.361  15.612   8.809  0.2862  0.0874  0.1067
   83loPI   C4A 1322   5.579  15.404   8.487  0.0446  0.1496  0.1529
   83loPI   C5A 1323   5.341  15.219   8.125  0.2431  0.0006 -0.0775
   83loPI   C6A 1324   5.363  14.981   7.761 -0.2821 -0.0297  0.2059
   83loPI   C1B 1325   5.393  16.618   9.419 -0.3574  0.1670  0.2620
   83loPI   C2B 1326   5.242  16.812   9.059  0.2275  0.0890  0.1872
   83loPI   C3B 1327   5.231  16.780   8.645 -0.2774 -0.0205  0.0478
   83loPI   C4B 1328   4.934  16.975   8.293  0.0258  0.2905  0.2657
   84loPI    C1 1329  12.075   4.629  10.018 -0.1667  0.1307  0.2156
   84loPI    C2 1330  12.321   4.862  10.231 -0.0740  0.1161  0.1255
   84loPI    C3 1331  12.191   4.515  10.383  0.1061  0.0377  0.1022
   84loPI   PO4 1332  12.204   4.683   9.733  0.1286  0.1122 -0.5331
   84loPI   GL1 1333  12.311   4.432   9.454 -0.0464 -0.0274 -0.2854
   84loPI   GL2 1334  12.077   4.200   9.424 -0.0413 -0.1525  0.1209
   84loPI   C1A 1335  12.493   4.474   9.088  0.1155 -0.0688  0.2496
   84loPI   C2A 1336  12.546   4.454   8.727 -0.2768 -0.0138  0.0531
   84loPI   C3A 1337  12.832   4.352   8.477 -0.3602 -0.1990 -0.0682
   84loPI   C4A 1338  12.931   3.950   8.208  0.0348 -0.1049 -0.3257
   84loPI   C5A 1339  13.205   3.877   7.931 -0.1411 -0.0375  0.3540
   84loPI   C6A 1340  13.498   3.680   7.766  0.0322 -0.0365  0.0316
   84loPI   C1B 1341  12.151   4.117   8.958 -0.0568 -0.1647 -0.2052
   84loPI   C2B 1342  12.265   4.061   8.689 -0.4587  0.0605  0.0073
   84loPI   C3B 1343  12.449   3.976   8.369  0.0950 -0.0299  0.0847
   84loPI   C4B 1344  12.503   4.178   7.990  0.1174 -0.0386  0.0449
   85loPI    C1 1345   2.617   9.483  10.153 -0.0682  0.0756  0.0996
   85loPI    C2 1346   2.361   9.765  10.277  0.1198  0.2735  0.0432
   85loPI    C3 1347   2.733   9.752  10.425  0.1482  0.1249 -0.0391
   85loPI   PO4 1348   2.549   9.529   9.876  0.1000 -0.0557  0.1642
   85loPI   GL1 1349   2.768   9.256   9.525  0.0456  0.2651 -0.0488
   85loPI   GL2 1350   2.450   9.043   9.640 -0.2603 -0.3712 -0.1116
   85loPI   C1A 1351   2.585   9.135   8.988 -0.2503 -0.0817  0.2774
   85loPI   C2A 1352   2.668   9.053   8.462  0.0726 -0.4185 -0.1562
   85loPI   C3A 1353   2.626   8.875   8.099 -0.3388 -0.0868  0.1613
   85loPI   C4A 1354   2.659   8.451   7.906 -0.0364  0.1020 -0.0919
   85loPI   C5A 1355   2.856   8.169   7.771 -0.1561  0.1058  0.2343
   85loPI   C6A 1356   3.014   7.976   7.451  0.1753 -0.1574  0.0937
   85loPI   C1B 1357   2.392   8.683   9.232  0.3412 -0.0204  0.0375
   85loPI   C2B 1358   2.499   8.638   8.812 -0.0328  0.3327 -0.1757
   85loPI   C3B 1359   2.608   8.483   8.442 -0.2900  0.0742  0.1693
   85loPI   C4B 1360   2.934   8.186   8.442 -0.3722 -0.2086  0.2565
   86loPI    C1 1361  10.080  13.151   9.654 -0.0289 -0.0799 -0.0501
   86loPI    C2 1362  10.095  13.114  10.053  0.2023  0.0383 -0.0461
   86loPI    C3 1363   9.959  13.452   9.888  0.0994 -0.0134 -0.0683
   86loPI   PO4 1364  10.340  13.090   9.549  0.2955  0.0820  0.1945
   86loPI   GL1 1365  10.511  12.880   9.183 -0.1214 -0.3916 -0.2959
   86loPI   GL2 1366  10.137  12.793   9.122  0.1374  0.3910 -0.2406
   86loPI   C1A 1367  10.538  12.799   8.791 -0.0148  0.1491  0.1318
   86loPI   C2A 1368  10.766  12.853   8.410  0.0976  0.2027  0.1398
   86loPI   C3A 1369  10.849  12.837   7.997 -0.0492  0.2604  0.1249
   86loPI   C4A 1370  10.727  12.825   7.614  0.3550  0.2579  0.1107
   86loPI   C5A 1371  10.641  12.792   7.091 -0.1029  0.1122  0.0690
   86loPI   C6A 1372  10.321  12.968   6.777  0.1072 -0.2694  0.3671
   86loPI   C1B 1373   9.980  12.725   8.746 -0.1039 -0.3547  0.3026
   86loPI   C2B 1374   9.898  12.644   8.384  0.4313  0.1177 -0.0711
   86loPI   C3B 1375  10.003  12.312   8.136 -0.0237 -0.1804  0.0844
   86loPI   C4B 1376  10.298  12.116   7.844  0.0328 -0.2752  0.1764
   87loPI    C1 1377   3.892   6.123   9.997  0.0015 -0.1516  0.1071
   87loPI    C2 1378   3.733   6.053  10.358 -0.0477  0.0648  0.1286
   87loPI    C3 1379   4.119   5.973  10.291 -0.0736 -0.1127  0.1855
   87loPI   PO4 1380   3.720   6.412   9.873 -0.2159 -0.0543 -0.0365
   87loPI   GL1 1381   3.739   6.364   9.395 -0.0065  0.4170  0.2651
   87loPI   GL2 1382   4.007   6.644   9.291 -0.0106  0.2114 -0.1836
   87loPI   C1A 1383   3.543   6.388   8.979  0.0504  0.2702 -0.0780
   87loPI   C2A 1384   3.267   6.573   8.646  0.0691 -0.2012  0.1391
   87loPI   C3A 1385   3.288   6.592   8.229  0.0577 -0.2639  0.1329
   87loPI   C4A 1386   3.532   6.963   7.952 -0.0181  0.1008  0.0345
   87loPI   C5A 1387   4.000   7.025   7.971 -0.3527 -0.1334  0.1464
   87loPI   C6A 1388   4.397   6.975   8.192  0.5662 -0.0835  0.4319
   87loPI   C1B 1389   3.898   6.700   8.933 -0.1014  0.1863 -0.1925
   87loPI   C2B 1390   4.254   6.658   8.521  0.0757  0.4465  0.1822
   87loPI   C3B 1391   4.682   6.717   8.524 -0.1434 -0.1240  0.4611
   87loPI   C4B 1392   5.091   6.852   8.692  0.1149 -0.1339  0.2061
   88loPI    C1 1393   3.653  12.098  10.270  0.1016 -0.0468  0.1212
   88loPI    C2 1394   3.468  12.439  10.368  0.0642 -0.0521  0.0698
   88loPI    C3 1395   3.349  12.093  10.529  0.0187 -0.0578  0.0242
   88loPI   PO4 1396   3.559  12.129   9.941  0.4436 -0.2400  0.1457
   88loPI   GL1 1397   3.676  12.208   9.558 -0.0535  0.1701  0.2004
   88loPI   GL2 1398   3.884  11.934   9.550 -0.1187  0.0875 -0.2392
   88loPI   C1A 1399   4.061  12.331   9.319  0.0481 -0.0083  0.1576
   88loPI   C2A 1400   4.511  12.510   9.339  0.1101  0.0195  0.0485
   88loPI   C3A 1401   4.847  12.693   9.198 -0.2084 -0.0416 -0.2231
   88loPI   C4A 1402   4.820  12.728   8.732  0.3262 -0.2004 -0.0604
   88loPI   C5A 1403   4.923  12.553   8.344 -0.4463 -0.0570 -0.0534
   88loPI   C6A 1404   5.057  12.564   7.890  0.2720 -0.1437 -0.0615
   88loPI   C1B 1405   3.749  12.005   9.090  0.0689  0.2604  0.0807
   88loPI   C2B 1406   4.036  11.846   8.803  0.2202  0.2750 -0.0570
   88loPI   C3B 1407   4.209  11.915   8.461  0.0677 -0.0546  0.2623
   88loPI   C4B 1408   4.496  12.070   8.260  0.2197 -0.0325 -0.1229
   89loPI    C1 1409   8.232   8.457   9.798  0.0424 -0.2529  0.0513
   89loPI    C2 1410   7.896   8.500  10.011  0.1964 -0.0230  0.2533
   89loPI    C3 1411   8.193   8.271  10.150  0.1410 -0.1938  0.0939
   89loPI   PO4 1412   8.077   8.649   9.585  0.2575  0.0384 -0.0534
   89loPI   GL1 1413   7.819   8.702   9.276 -0.0134 -0.0320  0.0431
   89loPI   GL2 1414   7.502   8.854   9.345  0.3604 -0.0084  0.4321
   89loPI   C1A 1415   8.108   8.569   8.906  0.3478 -0.2539  0.2302
   89loPI   C2A 1416   8.046   8.594   8.434  0.2030  0.0352 -0.1807
   89loPI   C3A 1417   7.800   8.571   8.137 -0.2623  0.1397 -0.0113
   89loPI   C4A 1418   7.467   8.543   7.995 -0.2991  0.2892 -0.0397
   89loPI   C5A 1419   7.149   8.332   7.676 -0.1329  0.2977  0.1454
   89loPI   C6A 1420   7.030   7.977   7.416 -0.0048  0.0513 -0.0517
   89loPI   C1B 1421   7.587   9.097   8.959  0.2520  0.4222  0.2811
   89loPI   C2B 1422   7.493   9.085   8.557  0.0422  0.0966 -0.1688
   89loPI   C3B 1423   7.385   8.992   8.094  0.1074  0.1469 -0.2904
   89loPI   C4B 1424   7.099   8.905   7.711 -0.3206 -0.0231 -0.0763
   90loPI    C1 1425   4.509   3.223  11.070 -0.0926 -0.0951 -0.1340
   90loPI    C2 1426   4.513   2.871  10.881  0.2666 -0.2127  0.0830
   90loPI    C3 1427   4.855   3.031  11.013  0.1012  0.1981  0.0273
   90loPI   PO4 1428   4.408   3.444  10.832  0.1329 -0.3062 -0.0581
   90loPI   GL1 1429   4.172   3.198  10.433 -0.2544  0.1238 -0.1522
   90loPI   GL2 1430   4.427   3.409  10.265 -0.0282  0.3762 -0.0202
   90loPI   C1A 1431   4.217   2.769  10.253 -0.1553 -0.2199  0.1918
   90loPI   C2A 1432   4.170   2.575   9.868  0.1973 -0.0901  0.1229
   90loPI   C3A 1433   4.373   2.498   9.522 -0.2714 -0.1895  0.1371
   90loPI   C4A 1434   4.416   2.422   9.077 -0.0640 -0.0267  0.1920
   90loPI   C5A 1435   4.360   2.313   8.617  0.3332 -0.3800 -0.2041
   90loPI   C6A 1436   4.057   2.338   8.240  0.0846  0.1045 -0.3312
   90loPI   C1B 1437   4.166   3.133   9.893 -0.0358  0.2181 -0.1173
   90loPI   C2B 1438   4.007   2.947   9.508 -0.0282  0.1037  0.0941
   90loPI   C3B 1439   4.143   2.847   9.028  0.1434 -0.1831  0.2000
   90loPI   C4B 1440   4.084   2.778   8.653  0.1587  0.1378  0.1309
   91loPI    C1 1441  11.110  18.055   9.849  0.0868 -0.1188  0.1297
   91loPI    C2 1442  11.361  18.354   9.761  0.1804 -0.2627 -0.1020
   91loPI    C3 1443  11.335  18.218  10.137  0.2618 -0.0783 -0.0284
   91loPI   PO4 1444  10.806  18.173   9.707 -0.1345 -0.4010 -0.3929
   91loPI   GL1 1445  11.069  18.270   9.344  0.1752 -0.0331 -0.2386
   91loPI   GL2 1446  11.211  18.027   9.337 -0.0818 -0.0339  0.0915
   91loPI   C1A 1447  10.808  18.657   9.195  0.0744  0.2787  0.2758
   91loPI   C2A 1448  10.694  18.829   8.849  0.0499 -0.3638 -0.0032
   91loPI   C3A 1449  10.668  18.748   8.470 -0.1170 -0.2088  0.3401
   91loPI   C4A 1450  10.497  18.774   8.054 -0.3145 -0.0363 -0.0473
   91loPI   C5A 1451  10.408  18.616   7.704  0.0975 -0.1719 -0.0174
   91loPI   C6A 1452  10.408  18.301   7.313 -0.0267 -0.1438 -0.0588
   91loPI   C1B 1453  11.246  18.102   8.890  0.1146 -0.3366  0.1676
   91loPI   C2B 1454  11.252  18.030   8.476  0.3555  0.0258 -0.1306
   91loPI   C3B 1455  11.356  18.040   8.109 -0.0964  0.0494  0.0623
   91loPI   C4B 1456  11.348  17.756   7.793 -0.1287 -0.0050  0.0448
   92loPI    C1 1457  13.633  16.774   9.640  0.1647  0.4835 -0.1751
   92loPI    C2 1458  13.553  16.503   9.923 -0.1074  0.4616 -0.2700
   92loPI    C3 1459  13.893  16.480   9.715 -0.0196  0.3332 -0.1143
   92loPI   PO4 1460  13.325  16.808   9.462 -0.0911 -0.0770 -0.2170
   92loPI   GL1 1461  13.319  16.644   9.034  0.1271  0.2471  0.2036
   92loPI   GL2 1462  13.405  16.934   8.942 -0.3336 -0.3608 -0.2726
   92loPI   C1A 1463  13.334  16.462   8.586 -0.1116 -0.1203  0.2552
   92loPI   C2A 1464  13.426  16.314   8.149  0.1397  0.1362 -0.0910
   92loPI   C3A 1465  13.514  16.078   7.807  0.2093 -0.0448  0.4238
   92loPI   C4A 1466  13.874  15.949   7.602  0.0389  0.0879 -0.1398
   92loPI   C5A 1467  13.992  15.554   7.487 -0.0886 -0.0339 -0.0392
   92loPI   C6A 1468  14.105  15.326   7.119 -0.0916  0.3966 -0.0188
   92loPI   C1B 1469  13.456  16.987   8.463  0.2206 -0.2139  0.0499
   92loPI   C2B 1470  13.604  16.836   8.073  0.1584  0.1905  0.0364
   92loPI   C3B 1471  13.705  16.820   7.695 -0.0624  0.1248  0.0513
   92loPI   C4B 1472  14.040  16.811   7.310 -0.3509  0.0228  0.1473
   93loPI    C1 1473   0.272   1.592  10.784  0.1133  0.1073 -0.1589
   93loPI    C2 1474  -0.035   1.729  11.001  0.1833  0.2263 -0.1340
   93loPI    C3 1475  -0.018   1.342  10.900  0.2427  0.1310  0.2273
   93loPI   PO4 1476   0.193   1.718  10.529  0.1362  0.1135  0.2023
   93loPI   GL1 1477   0.315   1.501  10.063 -0.2048 -0.0160  0.2815
   93loPI   GL2 1478   0.161   1.627   9.816 -0.2309 -0.0354 -0.0050
   93loPI   C1A 1479   0.602   1.530   9.716  0.0352  0.1205  0.3142
   93loPI   C2A 1480   0.828   1.494   9.239  0.1088  0.2196  0.1511
   93loPI   C3A 1481   0.874   1.483   8.817  0.1673  0.1098  0.1919
   93loPI   C4A 1482   0.789   1.820   8.576 -0.1173  0.2573 -0.2817
   93loPI   C5A 1483   0.884   2.369   8.545 -0.2139 -0.2184 -0.2691
   93loPI   C6A 1484   1.215   2.558   8.565  0.2004  0.0136  0.1753
   93loPI   C1B 1485   0.231   1.564   9.366 -0.1052  0.1881  0.0768
   93loPI   C2B 1486   0.390   1.531   8.928 -0.3361  0.0392  0.0501
   93loPI   C3B 1487   0.395   1.521   8.480  0.2861  0.1194  0.1919
   93loPI   C4B 1488   0.523   1.380   8.046 -0.1123 -0.2987 -0.2794
   94loPI    C1 1489   5.569  12.040  10.332  0.0592 -0.3207  0.1611
   94loPI    C2 1490   5.465  12.418  10.412  0.0299 -0.2865 -0.0325
   94loPI    C3 1491   5.707  12.220  10.661 -0.1474 -0.2214  0.1953
   94loPI   PO4 1492   5.587  12.127  10.016  0.1195  0.2443 -0.0529
   94loPI   GL1 1493   5.392  12.331   9.604  0.0306 -0.2097  0.0459
   94loPI   GL2 1494   5.114  12.661   9.607 -0.0662  0.0393  0.2142
   94loPI   C1A 1495   5.610  12.148   9.395 -0.3488 -0.4360  0.2013
   94loPI   C2A 1496   5.569  12.133   8.985 -0.2777 -0.0638 -0.0451
   94loPI   C3A 1497   5.808  12.076   8.662  0.0372  0.2473  0.0486
   94loPI   C4A 1498   5.835  11.908   8.226  0.0750  0.2273 -0.1032
   94loPI   C5A 1499   5.969  11.785   7.886  0.2147  0.0206 -0.0205
   94loPI   C6A 1500   5.759  11.579   7.510 -0.2735 -0.0106  0.1714
   94loPI   C1B 1501   5.331  12.557   9.147 -0.2485 -0.1865 -0.5661
   94loPI   C2B 1502   5.188  12.468   8.761 -0.1246 -0.0174 -0.2358
   94loPI   C3B 1503   5.371  12.245   8.376  0.0449  0.1581 -0.2445
   94loPI   C4B 1504   5.532  12.154   7.886  0.0133 -0.5538 -0.2967
   95loPI    C1 1505   8.056  12.886   9.993  0.2520 -0.0370  0.0039
   95loPI    C2 1506   8.235  12.971  10.341  0.0740 -0.0693  0.1047
   95loPI    C3 1507   7.838  12.920  10.327  0.0621  0.0720 -0.1291
   95loPI   PO4 1508   8.335  12.766   9.834 -0.0346  0.2535 -0.1657
   95loPI   GL1 1509   8.267  12.615   9.489  0.0080 -0.1801 -0.0577
   95loPI   GL2 1510   8.092  12.361   9.341  0.2384 -0.1907 -0.0226
   95loPI   C1A 1511   8.435  13.007   9.259 -0.2838  0.0362 -0.3581
   95loPI   C2A 1512   8.236  13.278   9.033 -0.1344  0.1032 -0.1162
   95loPI   C3A 1513   8.072  13.461   8.658  0.6406  0.0646 -0.0851
   95loPI   C4A 1514   8.354  13.582   8.379 -0.2933 -0.0614  0.1348
   95loPI   C5A 1515   8.672  13.602   8.105 -0.0484 -0.0870  0.0683
   95loPI   C6A 1516   8.868  13.693   7.692  0.0287  0.0400 -0.1142
   95loPI   C1B 1517   8.466  12.481   8.981  0.2335 -0.0989 -0.2542
   95loPI   C2B 1518   8.579  12.416   8.579  0.0949 -0.2624  0.3070
   95loPI   C3B 1519   8.616  12.727   8.274  0.3179  0.3301  0.0693
   95loPI   C4B 1520   8.736  12.604   7.921  0.2524  0.0771  0.0431
   96loPI    C1 1521  12.398  18.643  10.172  0.1879 -0.2121 -0.1753
   96loPI    C2 1522  12.134  18.864   9.967 -0.0786 -0.2764  0.0907
   96loPI    C3 1523  12.261  18.986  10.326  0.3546 -0.1840 -0.0878
   96loPI   PO4 1524  12.332  18.385   9.981  0.2498  0.2344 -0.0146
   96loPI   GL1 1525  12.464  18.200   9.589  0.0205  0.1634  0.0242
   96loPI   GL2 1526  12.793  18.223   9.492 -0.0334  0.1171 -0.2015
   96loPI   C1A 1527  12.128  18.220   9.165 -0.2169  0.0685  0.0140
   96loPI   C2A 1528  12.146  18.279   8.760 -0.1709 -0.3850 -0.0413
   96loPI   C3A 1529  12.078  18.533   8.485 -0.1247  0.3299 -0.0660
   96loPI   C4A 1530  11.894  18.699   8.089 -0.0470  0.0802  0.2517
   96loPI   C5A 1531  11.815  18.846   7.632  0.4021  0.1120  0.1004
   96loPI   C6A 1532  11.936  18.782   7.263  0.0147 -0.0279 -0.2312
   96loPI   C1B 1533  12.777  18.249   9.042  0.2317 -0.0323  0.2066
   96loPI   C2B 1534  12.779  18.303   8.580  0.1563 -0.3799 -0.1901
   96loPI   C3B 1535  12.633  18.457   8.166 -0.4721  0.1928  0.3735
   96loPI   C4B 1536  12.363  18.660   7.838  0.1186  0.3130 -0.0032
   97loPI    C1 1537  13.206  18.447   9.934  0.1304 -0.0467  0.0069
   97loPI    C2 1538  12.870  18.246  10.014  0.0776  0.0758  0.0964
   97loPI    C3 1539  12.960  18.576  10.221  0.2381  0.0609  0.0521
   97loPI   PO4 1540  13.191  18.495   9.680  0.2272 -0.0483  0.1907
   97loPI   GL1 1541  12.923  18.685   9.316  0.1348 -0.0267 -0.0375
   97loPI   GL2 1542  13.017  18.961   9.318  0.0277 -0.0774  0.5154
   97loPI   C1A 1543  13.189  18.545   8.970  0.0346 -0.2977 -0.1518
   97loPI   C2A 1544  13.619  18.416   8.732 -0.0287  0.1250 -0.0610
   97loPI   C3A 1545  13.878  18.262   8.479  0.0118 -0.0480 -0.2853
   97loPI   C4A 1546  14.106  18.417   8.063  0.0838  0.0708 -0.1747
   97loPI   C5A 1547  14.367  18.399   7.663 -0.1355  0.2643 -0.5230
   97loPI   C6A 1548  14.421  18.384   7.193  0.0464 -0.0451  0.0506
   97loPI   C1B 1549  12.972  18.957   8.875  0.0761 -0.0541 -0.0226
   97loPI   C2B 1550  13.110  18.783   8.494 -0.0997 -0.2718 -0.0795
   97loPI   C3B 1551  13.174  18.805   8.074 -0.1001  0.1462 -0.1727
   97loPI   C4B 1552  13.282  18.717   7.652 -0.3099  0.0571 -0.0252
   98loPI    C1 1553  17.578   2.155  10.024  0.3041 -0.0889 -0.0120
   98loPI    C2 1554  17.501   2.228  10.409  0.2233 -0.1068 -0.0247
   98loPI    C3 1555  17.534   1.851  10.279  0.0055 -0.1073 -0.0823
   98loPI   PO4 1556  17.821   2.269   9.982  0.3408  0.2877  0.1949
   98loPI   GL1 1557  18.020   2.358   9.624  0.0207  0.1903 -0.0942
   98loPI   GL2 1558  17.624   2.319   9.514 -0.3644 -0.2106 -0.1404
   98loPI   C1A 1559  18.261   2.324   9.274 -0.0958 -0.2082  0.1391
   98loPI   C2A 1560  18.190   2.222   8.909  0.1639  0.1522  0.0709
   98loPI   C3A 1561  18.196   2.092   8.547  0.0378  0.7240  0.1164
   98loPI   C4A 1562  18.282   1.855   8.188  0.2851 -0.3002  0.1200
   98loPI   C5A 1563  18.439   1.814   7.795 -0.1335  0.0184 -0.0923
   98loPI   C6A 1564  18.310   1.734   7.509 -0.2169 -0.2541 -0.0282
   98loPI   C1B 1565  17.779   2.475   9.219 -0.3027 -0.1369  0.1175
   98loPI   C2B 1566  17.721   2.386   8.823  0.1096 -0.0384  0.1637
   98loPI   C3B 1567  17.598   2.347   8.405 -0.1542 -0.0002 -0.2084
   98loPI   C4B 1568  17.536   2.307   8.075 -0.0364  0.1325  0.2120
   99loPI    C1 1569  17.571   9.525  10.010  0.0570 -0.2052 -0.1914
   99loPI    C2 1570  17.959   9.547   9.915  0.0943  0.1891  0.0316
   99loPI    C3 1571  17.849   9.443  10.285 -0.0212 -0.0975 -0.0798
   99loPI   PO4 1572  17.466   9.434   9.769 -0.0850  0.0603  0.1310
   99loPI   GL1 1573  17.597   9.089   9.484  0.1915 -0.2686  0.0746
   99loPI   GL2 1574  17.869   9.293   9.459 -0.0115  0.1034  0.1677
   99loPI   C1A 1575  17.511   9.080   8.974  0.1756  0.0983  0.0425
   99loPI   C2A 1576  17.478   9.412   8.636  0.2067 -0.2987 -0.1136
   99loPI   C3A 1577  17.439   9.692   8.458 -0.1752 -0.0141 -0.0131
   99loPI   C4A 1578  17.529   9.936   8.206 -0.0102 -0.4029 -0.0613
   99loPI   C5A 1579  17.738  10.088   7.731  0.1803  0.0476 -0.1710
   99loPI   C6A 1580  17.835  10.057   7.213  0.0576  0.0819 -0.1801
   99loPI   C1B 1581  17.875   9.422   8.990 -0.1096  0.2123 -0.0742
   99loPI   C2B 1582  17.897   9.186   8.630  0.1033 -0.0484 -0.2262
   99loPI   C3B 1583  17.760   9.034   8.244  0.0657  0.2145  0.2763
   99loPI   C4B 1584  17.498   8.798   7.997 -0.0455  0.1989 -0.2208
  100loPI    C1 1585   1.090  17.284  10.429  0.1621  0.1482  0.0820
  100loPI    C2 1586   1.396  17.033  10.369  0.1685  0.0911  0.3427
  100loPI    C3 1587   1.305  17.153  10.740 -0.1108  0.1260  0.2650
  100loPI   PO4 1588   0.847  17.115  10.279 -0.0456 -0.2168  0.0597
  100loPI   GL1 1589   0.495  17.169   9.980  0.1208 -0.0529  0.0710
  100loPI   GL2 1590   0.318  17.097   9.829 -0.4945 -0.1845 -0.0458
  100loPI   C1A 1591   0.741  17.394   9.600  0.1483  0.2384  0.2288
  100loPI   C2A 1592   0.872  17.444   9.082  0.2706  0.0580 -0.0492
  100loPI   C3A 1593   0.940  17.456   8.623  0.0316  0.1722 -0.3517
  100loPI   C4A 1594   1.123  17.498   8.185  0.2766  0.0257  0.0611
  100loPI   C5A 1595   1.273  17.845   7.932 -0.0911  0.2666 -0.1099
  100loPI   C6A 1596   1.491  18.305   8.043  0.2252  0.1388 -0.3750
  100loPI   C1B 1597   0.355  16.744   9.584  0.2353 -0.0383  0.0715
  100loPI   C2B 1598   0.330  16.837   9.184 -0.0443  0.0104  0.0031
  100loPI   C3B 1599   0.381  16.892   8.719  0.0947  0.1117 -0.1247
  100loPI   C4B 1600   0.670  17.055   8.356 -0.2661 -0.1415 -0.1987
  101loPI    C1 1601   1.956  13.084  10.385 -0.0771  0.1707  0.0299
  101loPI    C2 1602   2.091  12.780  10.608 -0.4412 -0.0614 -0.0565
  101loPI    C3 1603   1.993  13.128  10.781  0.3524  0.1555 -0.0041
  101loPI   PO4 1604   2.040  13.089  10.119  0.3713  0.0963  0.1154
  101loPI   GL1 1605   2.355  12.981   9.787 -0.1812  0.2026 -0.1666
  101loPI   GL2 1606   2.335  13.130   9.599  0.1077 -0.3189 -0.0367
  101loPI   C1A 1607   2.068  12.619   9.601  0.1298  0.0433  0.3177
  101loPI   C2A 1608   1.998  12.292   9.401  0.2047  0.4782 -0.0339
  101loPI   C3A 1609   2.183  11.898   9.235 -0.1011  0.0787  0.1950
  101loPI   C4A 1610   2.440  11.751   8.903 -0.0096  0.0436  0.2100
  101loPI   C5A 1611   2.561  11.682   8.467  0.2267  0.0353 -0.5271
  101loPI   C6A 1612   2.568  11.292   8.078 -0.0973  0.1121  0.1949
  101loPI   C1B 1613   2.175  13.189   9.152 -0.7834  0.3116  0.1084
  101loPI   C2B 1614   2.305  13.224   8.727 -0.0013 -0.2041 -0.0935
  101loPI   C3B 1615   2.610  13.086   8.472  0.2264 -0.3333 -0.2449
  101loPI   C4B 1616   2.786  12.917   8.142 -0.3578  0.0172 -0.1790
  102loPI    C1 1617   4.616   6.829   9.942  0.0723 -0.1457 -0.1414
  102loPI    C2 1618   4.877   7.057  10.142 -0.1203 -0.1627  0.1347
  102loPI    C3 1619   4.726   6.728  10.312 -0.3354 -0.1435 -0.0144
  102loPI   PO4 1620   4.811   6.790   9.741 -0.0985 -0.2309  0.0997
  102loPI   GL1 1621   4.812   6.507   9.380 -0.1042  0.0964  0.0276
  102loPI   GL2 1622   4.650   6.202   9.278  0.2451 -0.3452 -0.0683
  102loPI   C1A 1623   4.954   6.479   9.017 -0.2852  0.2079  0.2244
  102loPI   C2A 1624   5.038   6.389   8.573 -0.0461 -0.0544 -0.2312
  102loPI   C3A 1625   5.123   6.290   8.147 -0.1294  0.3202  0.1394
  102loPI   C4A 1626   5.098   6.088   7.774 -0.0968  0.1079 -0.2199
  102loPI   C5A 1627   5.093   5.828   7.379 -0.1330 -0.2626 -0.3503
  102loPI   C6A 1628   5.258   5.877   7.085  0.0207  0.1354 -0.3227
  102loPI   C1B 1629   4.588   6.125   8.832  0.2889  0.2155  0.0664
  102loPI   C2B 1630   4.539   6.262   8.386 -0.2255  0.0392  0.2301
  102loPI   C3B 1631   4.660   5.890   8.063  0.1397 -0.2513  0.1574
  102loPI   C4B 1632   4.716   5.528   7.849 -0.1036 -0.0871 -0.1143
  103loPI    C1 1633   7.969  15.029   9.990 -0.1090 -0.1425 -0.0904
  103loPI    C2 1634   8.193  15.266  10.221  0.0721 -0.1411 -0.2648
  103loPI    C3 1635   8.130  14.885  10.326 -0.0163 -0.0848 -0.1097
  103loPI   PO4 1636   8.044  15.111   9.780 -0.0490  0.3359 -0.0005
  103loPI   GL1 1637   8.003  15.498   9.494 -0.1761 -0.1586  0.0031
  103loPI   GL2 1638   8.044  15.309   9.303 -0.3012  0.1056  0.4113
  103loPI   C1A 1639   7.696  15.692   9.224 -0.2471  0.3474  0.0191
  103loPI   C2A 1640   7.632  15.682   8.856  0.1798  0.0329 -0.4261
  103loPI   C3A 1641   7.548  15.780   8.425  0.1283 -0.1435  0.1687
  103loPI   C4A 1642   7.392  16.087   8.224 -0.0552 -0.2428 -0.0959
  103loPI   C5A 1643   7.132  16.301   8.182 -0.0375  0.0831  0.0359
  103loPI   C6A 1644   6.801  16.591   8.076  0.3030 -0.2608  0.1783
  103loPI   C1B 1645   8.017  15.309   8.788 -0.4696  0.3248 -0.2096
  103loPI   C2B 1646   7.957  15.459   8.427 -0.1232  0.1433  0.1075
  103loPI   C3B 1647   8.137  15.652   8.096  0.0917 -0.0067  0.0528
  103loPI   C4B 1648   8.086  15.688   7.660 -0.1360  0.0521 -0.1015
  104loPI    C1 1649   9.004   2.379  10.405  0.0922 -0.1644 -0.1886
  104loPI    C2 1650   8.872   2.073  10.625  0.1643 -0.0133  0.0683
  104loPI    C3 1651   8.765   2.103  10.241 -0.0497 -0.2218  0.1091
  104loPI   PO4 1652   9.369   2.437  10.305 -0.0036  0.3067  0.1022
  104loPI   GL1 1653   9.469   2.512   9.848  0.0057  0.3374 -0.0279
  104loPI   GL2 1654   9.180   2.804   9.901 -0.4082  0.0552  0.0935
  104loPI   C1A 1655   9.142   2.215   9.766 -0.1282  0.3003  0.3521
  104loPI   C2A 1656   8.853   2.284   9.397 -0.0555 -0.0495 -0.0329
  104loPI   C3A 1657   8.833   2.273   8.999 -0.0833 -0.1166  0.0072
  104loPI   C4A 1658   8.673   2.588   8.735 -0.3789 -0.0999  0.0658
  104loPI   C5A 1659   8.635   2.854   8.387 -0.6287  0.1326 -0.1389
  104loPI   C6A 1660   8.581   3.261   8.190 -0.3598 -0.0078 -0.0862
  104loPI   C1B 1661   9.176   2.676   9.469  0.2647 -0.1416 -0.2935
  104loPI   C2B 1662   9.030   2.748   9.075  0.1277 -0.1166  0.1142
  104loPI   C3B 1663   9.113   2.623   8.592 -0.1785 -0.0071  0.2229
  104loPI   C4B 1664   9.087   2.348   8.085  0.0171 -0.0420 -0.1069
  105loPI    C1 1665   7.623   5.355   9.862 -0.0174  0.0272 -0.3809
  105loPI    C2 1666   7.834   5.086   9.654  0.0902 -0.0467 -0.1790
  105loPI    C3 1667   7.946   5.184  10.026 -0.0505  0.1477 -0.1862
  105loPI   PO4 1668   7.573   5.528   9.679  0.0657 -0.0944 -0.0203
  105loPI   GL1 1669   7.399   5.439   9.218  0.1027  0.2056 -0.0704
  105loPI   GL2 1670   7.643   5.214   9.197 -0.1979  0.2097 -0.5053
  105loPI   C1A 1671   7.221   5.568   8.795  0.1193 -0.2063 -0.0478
  105loPI   C2A 1672   6.982   5.499   8.554 -0.1863  0.1170  0.0248
  105loPI   C3A 1673   6.605   5.504   8.372  0.5037 -0.0983 -0.0067
  105loPI   C4A 1674   6.176   5.416   8.226 -0.0614  0.0407 -0.0411
  105loPI   C5A 1675   5.805   5.336   8.280  0.0068 -0.1339  0.2476
  105loPI   C6A 1676   5.385   5.356   8.406 -0.1302 -0.0057  0.0904
  105loPI   C1B 1677   7.988   5.378   9.114  0.0067  0.2608  0.4492
  105loPI   C2B 1678   8.147   5.361   8.621  0.1155  0.3013  0.1240
  105loPI   C3B 1679   8.148   5.008   8.275 -0.2102 -0.0733 -0.0975
  105loPI   C4B 1680   7.847   4.975   7.938  0.1091 -0.1846 -0.0122
  106loPI    C1 1681   7.047  16.993  10.492 -0.0431 -0.1306  0.2021
  106loPI    C2 1682   6.729  17.215  10.398  0.0706 -0.0245  0.0655
  106loPI    C3 1683   6.700  16.937  10.683 -0.0828  0.1401  0.2133
  106loPI   PO4 1684   7.082  16.904  10.265  0.0033 -0.2445  0.0616
  106loPI   GL1 1685   6.815  16.889   9.856  0.0450  0.0496 -0.5059
  106loPI   GL2 1686   7.174  17.043   9.730  0.1198 -0.0417 -0.3105
  106loPI   C1A 1687   6.654  17.101   9.590  0.0302 -0.3165  0.2676
  106loPI   C2A 1688   6.545  17.140   9.287  0.1331  0.0818  0.1234
  106loPI   C3A 1689   6.626  17.471   8.994 -0.0041  0.2059 -0.0089
  106loPI   C4A 1690   6.531  17.560   8.649  0.0395 -0.1430 -0.0991
  106loPI   C5A 1691   6.614  17.800   8.362  0.1316  0.0514 -0.0739
  106loPI   C6A 1692   6.895  17.800   8.068 -0.0460  0.2855  0.1787
  106loPI   C1B 1693   7.055  17.145   9.292  0.2091 -0.0517 -0.0209
  106loPI   C2B 1694   6.952  17.077   8.824  0.0016 -0.0525  0.1291
  106loPI   C3B 1695   6.772  17.162   8.552  0.2560 -0.1446  0.1073
  106loPI   C4B 1696   6.830  17.358   8.206 -0.2928  0.2385  0.3179
  107loPI    C1 1697  13.073  15.161   9.531  0.2364 -0.0146  0.1049
  107loPI    C2 1698  12.891  15.419   9.777  0.2218  0.0169  0.0612
  107loPI    C3 1699  12.690  15.260   9.470  0.1819 -0.1729  0.1840
  107loPI   PO4 1700  13.270  15.257   9.465  0.0999 -0.0712 -0.1060
  107loPI   GL1 1701  13.603  15.240   9.201  0.1652 -0.1009  0.0715
  107loPI   GL2 1702  13.453  14.901   9.200  0.1074  0.0612  0.2707
  107loPI   C1A 1703  13.697  15.299   8.755 -0.0027 -0.1762  0.2731
  107loPI   C2A 1704  13.765  15.495   8.370  0.1262 -0.0169  0.0145
  107loPI   C3A 1705  13.674  15.490   7.844  0.0022  0.2280 -0.1153
  107loPI   C4A 1706  13.498  15.646   7.504  0.1427  0.1405 -0.3834
  107loPI   C5A 1707  13.385  16.055   7.309  0.1514  0.0764  0.1412
  107loPI   C6A 1708  13.013  16.124   7.235 -0.0130  0.3228  0.2627
  107loPI   C1B 1709  13.619  14.796   8.796  0.1091 -0.2285 -0.3125
  107loPI   C2B 1710  13.724  14.793   8.472 -0.0715  0.2095  0.0617
  107loPI   C3B 1711  13.830  15.056   8.129  0.1342  0.2002  0.0949
  107loPI   C4B 1712  14.009  15.008   7.713  0.0191 -0.1345  0.2360
  108loPI    C1 1713  13.483   9.595  10.154  0.1364 -0.0620 -0.1851
  108loPI    C2 1714  13.698   9.931  10.165  0.1053 -0.0338 -0.4018
  108loPI    C3 1715  13.336   9.920  10.333  0.1767 -0.0106 -0.2452
  108loPI   PO4 1716  13.535   9.471   9.908 -0.0109 -0.1294 -0.0266
  108loPI   GL1 1717  13.345   9.465   9.509  0.1221 -0.0165  0.1095
  108loPI   GL2 1718  13.382   9.132   9.528  0.2502 -0.2131  0.0925
  108loPI   C1A 1719  13.549   9.789   9.224 -0.1403 -0.1923  0.0795
  108loPI   C2A 1720  13.433  10.094   8.996  0.1139 -0.0149  0.1116
  108loPI   C3A 1721  13.541  10.148   8.546  0.2041 -0.1146  0.2979
  108loPI   C4A 1722  13.636  10.386   8.124 -0.3460  0.0403 -0.1301
  108loPI   C5A 1723  13.669  10.311   7.713  0.1331 -0.0871  0.1445
  108loPI   C6A 1724  13.278  10.116   7.544  0.1217  0.1685 -0.0049
  108loPI   C1B 1725  13.535   9.284   9.061 -0.0518  0.1527  0.3266
  108loPI   C2B 1726  13.568   9.202   8.569 -0.3673  0.1136 -0.2394
  108loPI   C3B 1727  13.524   9.266   8.188 -0.0200  0.1345  0.1403
  108loPI   C4B 1728  13.610   9.172   7.835 -0.3138 -0.1525 -0.1519
  109loPI    C1 1729   2.411  14.536  10.254  0.0355 -0.3930  0.0316
  109loPI    C2 1730   2.430  14.670  10.631  0.0026 -0.2718 -0.0092
  109loPI    C3 1731   2.758  14.670  10.401 -0.0468 -0.0430 -0.0825
  109loPI   PO4 1732   2.108  14.583  10.097 -0.3805 -0.0782 -0.1298
  109loPI   GL1 1733   1.787  14.920   9.705 -0.0935 -0.0328  0.0276
  109loPI   GL2 1734   2.051  14.910   9.705 -0.0241  0.1232 -0.1265
  109loPI   C1A 1735   1.923  15.036   9.281  0.1261 -0.2225 -0.2001
  109loPI   C2A 1736   1.873  15.095   8.903  0.0701  0.1013  0.2029
  109loPI   C3A 1737   1.906  15.132   8.493  0.1660  0.2044 -0.0862
  109loPI   C4A 1738   1.753  15.045   8.083  0.1560 -0.1564  0.0433
  109loPI   C5A 1739   1.568  14.689   7.918 -0.1779  0.0363  0.2293
  109loPI   C6A 1740   1.614  14.283   7.847  0.1810 -0.0616  0.0851
  109loPI   C1B 1741   2.129  14.598   9.454 -0.1961  0.0925  0.0842
  109loPI   C2B 1742   2.341  14.491   9.069 -0.1936  0.1456  0.3395
  109loPI   C3B 1743   2.265  14.298   8.558  0.0009  0.1320 -0.1085
  109loPI   C4B 1744   2.350  14.279   8.105 -0.4507 -0.0085  0.0613
  110loPI    C1 1745   5.363   9.408   9.689 -0.0549 -0.0869  0.1267
  110loPI    C2 1746   5.512   9.729   9.874  0.2900 -0.2777  0.1895
  110loPI    C3 1747   5.211   9.525  10.040  0.0347  0.0365  0.1249
  110loPI   PO4 1748   5.604   9.408   9.495 -0.2294  0.0188  0.1241
  110loPI   GL1 1749   5.707   9.118   9.131 -0.2360 -0.0555 -0.0007
  110loPI   GL2 1750   5.977   9.281   9.240 -0.4695  0.0961  0.2354
  110loPI   C1A 1751   5.658   8.929   8.673 -0.1422  0.3539  0.1064
  110loPI   C2A 1752   5.932   8.654   8.397  0.1000  0.1538  0.2659
  110loPI   C3A 1753   5.798   8.670   7.926  0.0045  0.3552  0.0426
  110loPI   C4A 1754   5.866   8.657   7.514 -0.1075 -0.1273 -0.0376
  110loPI   C5A 1755   5.999   8.596   7.068 -0.2114 -0.0670 -0.0365
  110loPI   C6A 1756   6.401   8.350   7.001 -0.0002  0.0517  0.2577
  110loPI   C1B 1757   6.188   8.943   9.015  0.2162 -0.1013  0.0950
  110loPI   C2B 1758   6.265   8.893   8.608  0.0672  0.2067 -0.4533
  110loPI   C3B 1759   6.306   8.905   8.131 -0.1582 -0.2488  0.0742
  110loPI   C4B 1760   6.320   8.836   7.775 -0.2649  0.1355  0.2952
  111loPI    C1 1761   7.278  11.712   9.943 -0.0261 -0.1050  0.2675
  111loPI    C2 1762   7.296  12.111   9.922 -0.0435 -0.1212 -0.1227
  111loPI    C3 1763   7.378  11.926  10.266  0.0600  0.2122  0.0365
  111loPI   PO4 1764   7.443  11.611   9.695 -0.4802  0.0321  0.0919
  111loPI   GL1 1765   7.379  11.587   9.339  0.0648  0.0030  0.3245
  111loPI   GL2 1766   7.476  11.327   9.216  0.3697 -0.1861 -0.0726
  111loPI   C1A 1767   7.782  11.744   9.054 -0.3806 -0.0301 -0.0943
  111loPI   C2A 1768   8.112  12.011   8.904 -0.3170  0.3797 -0.6078
  111loPI   C3A 1769   8.080  12.307   8.667  0.3106  0.0372 -0.3173
  111loPI   C4A 1770   8.137  12.603   8.396  0.1770  0.1850 -0.2830
  111loPI   C5A 1771   8.062  12.629   8.018  0.0774 -0.0621  0.1465
  111loPI   C6A 1772   7.869  12.569   7.699 -0.1208  0.2497  0.0275
  111loPI   C1B 1773   7.425  11.440   8.750 -0.2015  0.2287 -0.2559
  111loPI   C2B 1774   7.563  11.521   8.347 -0.0980 -0.1035 -0.2528
  111loPI   C3B 1775   7.591  11.777   8.114 -0.0184 -0.0272 -0.2814
  111loPI   C4B 1776   7.884  12.073   7.913  0.0089  0.3380  0.1921
  112loPI    C1 1777   9.491  11.445  10.062 -0.3777 -0.2629 -0.0829
  112loPI    C2 1778   9.760  11.161   9.977 -0.0136  0.0544 -0.0173
  112loPI    C3 1779   9.685  11.258  10.358 -0.0495  0.1277 -0.0427
  112loPI   PO4 1780   9.526  11.554   9.768  0.1284  0.1281 -0.0252
  112loPI   GL1 1781   9.590  11.401   9.324 -0.1389 -0.3056  0.0994
  112loPI   GL2 1782   9.766  11.267   9.106  0.1805 -0.3477  0.3098
  112loPI   C1A 1783   9.637  11.741   8.933  0.0673  0.2837 -0.0119
  112loPI   C2A 1784   9.658  11.742   8.518  0.1028  0.1513  0.0377
  112loPI   C3A 1785   9.805  11.782   8.126  0.1487 -0.0990 -0.1546
  112loPI   C4A 1786   9.871  11.588   7.734 -0.1469  0.1710 -0.1416
  112loPI   C5A 1787   9.698  11.316   7.483 -0.0016 -0.0404  0.4241
  112loPI   C6A 1788   9.208  11.231   7.450 -0.1021  0.1808 -0.2832
  112loPI   C1B 1789   9.737  11.306   8.659  0.0961  0.2931 -0.0996
  112loPI   C2B 1790   9.691  11.287   8.198 -0.0095 -0.0564  0.1927
  112loPI   C3B 1791   9.412  11.031   7.845  0.1848  0.1904 -0.0934
  112loPI   C4B 1792   9.273  10.753   7.502  0.1306 -0.0148 -0.2057
  113loPI    C1 1793  14.212   9.912  10.289 -0.1009 -0.0349  0.0280
  113loPI    C2 1794  14.099   9.618  10.043 -0.1312 -0.0933  0.1118
  113loPI    C3 1795  13.972   9.622  10.423 -0.1501  0.0408  0.1043
  113loPI   PO4 1796  14.536  10.019  10.156  0.0531  0.1476  0.4430
  113loPI   GL1 1797  14.638   9.945   9.743 -0.1069 -0.1288 -0.1969
  113loPI   GL2 1798  14.707   9.725   9.529  0.0680 -0.1319  0.0803
  113loPI   C1A 1799  14.320   9.941   9.298  0.0533 -0.1301 -0.2286
  113loPI   C2A 1800  14.375   9.873   8.891  0.0792 -0.3450 -0.1100
  113loPI   C3A 1801  14.494   9.877   8.428 -0.0421  0.1797  0.1297
  113loPI   C4A 1802  14.679   9.733   8.058  0.0858  0.1493  0.1116
  113loPI   C5A 1803  15.157   9.739   8.041  0.2052 -0.2559 -0.0393
  113loPI   C6A 1804  15.523   9.911   7.867 -0.1194  0.1478 -0.2297
  113loPI   C1B 1805  14.843   9.813   9.024 -0.3640 -0.0024 -0.1227
  113loPI   C2B 1806  14.980   9.757   8.585  0.2626 -0.0651  0.0601
  113loPI   C3B 1807  15.158   9.462   8.404  0.0257  0.2291 -0.0860
  113loPI   C4B 1808  15.609   9.502   8.221  0.0899  0.1029 -0.2564
  114loPI    C1 1809   5.926   5.756  10.524 -0.1296 -0.3101 -0.1625
  114loPI    C2 1810   5.552   5.867  10.436  0.0270  0.4242  0.0293
  114loPI    C3 1811   5.800   6.125  10.614  0.5861 -0.0998  0.0412
  114loPI   PO4 1812   5.890   5.567  10.297  0.1044  0.0525  0.0016
  114loPI   GL1 1813   5.905   5.339   9.968  0.2370  0.0626  0.0540
  114loPI   GL2 1814   5.808   5.641   9.802  0.1048 -0.1833  0.4060
  114loPI   C1A 1815   6.222   5.278   9.669  0.0800  0.1211 -0.1663
  114loPI   C2A 1816   6.088   5.070   9.277  0.1242 -0.0062 -0.0684
  114loPI   C3A 1817   6.336   4.751   8.943 -0.1669 -0.4214  0.1222
  114loPI   C4A 1818   6.660   4.517   8.662  0.2081 -0.0356 -0.2521
  114loPI   C5A 1819   6.840   4.687   8.343 -0.0328 -0.0748  0.2150
  114loPI   C6A 1820   6.959   5.094   8.150  0.3554 -0.0557 -0.0839
  114loPI   C1B 1821   5.748   5.450   9.401  0.0223  0.3301 -0.1123
  114loPI   C2B 1822   5.870   5.415   9.024  0.0085 -0.0031 -0.2192
  114loPI   C3B 1823   5.826   5.697   8.675 -0.0796 -0.0167 -0.0602
  114loPI   C4B 1824   5.840   5.853   8.283 -0.0153 -0.0992  0.0508
  115loPI    C1 1825   8.975  11.362   9.919 -0.0832 -0.1715 -0.1791
  115loPI    C2 1826   9.127  11.095  10.175  0.2387 -0.0517 -0.2399
  115loPI    C3 1827   9.084  11.476  10.287  0.3765  0.0003 -0.3605
  115loPI   PO4 1828   8.867  11.224   9.761 -0.0883 -0.1508  0.2507
  115loPI   GL1 1829   8.636  11.213   9.324  0.2357 -0.0555  0.3191
  115loPI   GL2 1830   8.359  11.273   9.436 -0.1066 -0.0923 -0.0257
  115loPI   C1A 1831   8.404  10.953   9.031  0.0129  0.1776 -0.0355
  115loPI   C2A 1832   8.315  10.989   8.646  0.0310  0.3106  0.3166
  115loPI   C3A 1833   8.120  10.825   8.287  0.0628 -0.1533 -0.1531
  115loPI   C4A 1834   8.041  10.617   7.919  0.2644 -0.0861  0.1222
  115loPI   C5A 1835   8.237  10.670   7.428  0.0385 -0.1498 -0.1399
  115loPI   C6A 1836   8.795  10.635   7.346  0.1094 -0.3180 -0.0513
  115loPI   C1B 1837   8.309  11.534   9.055 -0.1087  0.5327 -0.0703
  115loPI   C2B 1838   8.066  11.628   8.662  0.0477  0.1014 -0.2187
  115loPI   C3B 1839   8.152  11.885   8.336 -0.2070  0.2158  0.2122
  115loPI   C4B 1840   8.381  12.241   8.089 -0.3334  0.1869  0.2557
  116loPI    C1 1841   1.353   4.396  10.198  0.1213  0.0512  0.2466
  116loPI    C2 1842   1.736   4.295  10.141  0.1610  0.3349 -0.0115
  116loPI    C3 1843   1.642   4.585  10.400  0.0992  0.1023  0.2304
  116loPI   PO4 1844   1.239   4.282   9.936 -0.1534  0.0082 -0.0567
  116loPI   GL1 1845   1.054   4.311   9.588 -0.1403 -0.1481 -0.0140
  116loPI   GL2 1846   0.763   4.465   9.321 -0.3004  0.2236 -0.1512
  116loPI   C1A 1847   1.281   4.121   9.241 -0.1654  0.2982  0.2723
  116loPI   C2A 1848   1.359   3.940   8.791 -0.2637 -0.0409  0.3040
  116loPI   C3A 1849   1.364   3.817   8.313  0.1196 -0.1977 -0.0503
  116loPI   C4A 1850   1.191   4.112   7.957 -0.3071 -0.0246  0.0571
  116loPI   C5A 1851   0.977   4.228   7.537 -0.2837  0.5038 -0.1439
  116loPI   C6A 1852   0.866   4.163   7.186  0.0533 -0.0700  0.2025
  116loPI   C1B 1853   0.512   4.589   8.981 -0.0998  0.0681  0.4371
  116loPI   C2B 1854   0.623   4.545   8.542  0.2277 -0.1086  0.0905
  116loPI   C3B 1855   0.772   4.383   8.106  0.1271 -0.3682  0.0302
  116loPI   C4B 1856   0.868   4.701   7.742 -0.2076 -0.1113 -0.1568
  117loPI    C1 1857  15.512   6.368  10.574  0.0707  0.0436  0.1770
  117loPI    C2 1858  15.729   6.113  10.792  0.0455 -0.0433  0.1013
  117loPI    C3 1859  15.330   6.097  10.804  0.0435 -0.1941 -0.1187
  117loPI   PO4 1860  15.655   6.392  10.314  0.2464 -0.2085  0.0169
  117loPI   GL1 1861  15.513   6.210   9.833  0.2038 -0.3002  0.1726
  117loPI   GL2 1862  15.818   6.212   9.927 -0.0625  0.3634  0.2801
  117loPI   C1A 1863  15.542   6.059   9.478 -0.3965 -0.1140 -0.0603
  117loPI   C2A 1864  15.692   5.982   9.029  0.2768  0.1237 -0.0577
  117loPI   C3A 1865  15.537   5.790   8.705 -0.1885  0.2021 -0.1663
  117loPI   C4A 1866  15.444   5.782   8.263 -0.1406  0.0920  0.2720
  117loPI   C5A 1867  15.309   5.874   7.826  0.0495  0.1053 -0.0470
  117loPI   C6A 1868  14.880   5.905   7.619  0.2400  0.1438  0.0612
  117loPI   C1B 1869  16.025   6.006   9.628 -0.2258  0.0063  0.1439
  117loPI   C2B 1870  15.979   5.721   9.271 -0.0499  0.0813  0.0120
  117loPI   C3B 1871  15.788   5.451   9.008  0.0863  0.2676  0.0879
  117loPI   C4B 1872  15.764   5.272   8.546  0.0450 -0.0193  0.1500
  118loPI    C1 1873   1.519  12.800  10.180  0.1757  0.0289  0.2507
  118loPI    C2 1874   1.631  12.549  10.471  0.0929  0.1075  0.3507
  118loPI    C3 1875   1.528  12.925  10.559  0.2876  0.1997  0.1926
  118loPI   PO4 1876   1.341  12.613   9.981 -0.0160 -0.0864 -0.1380
  118loPI   GL1 1877   1.136  12.521   9.591 -0.4189 -0.2668  0.0603
  118loPI   GL2 1878   0.891  12.338   9.786  0.2343  0.1175 -0.1052
  118loPI   C1A 1879   1.483  12.359   9.291  0.2098  0.1424 -0.2766
  118loPI   C2A 1880   1.685  12.410   8.970  0.0004 -0.1707 -0.1668
  118loPI   C3A 1881   1.843  12.445   8.596 -0.1032  0.2513  0.0042
  118loPI   C4A 1882   1.989  12.407   8.176 -0.1437  0.1908  0.3236
  118loPI   C5A 1883   1.700  12.107   7.991 -0.0742  0.3726 -0.2848
  118loPI   C6A 1884   1.466  11.786   7.807 -0.1321  0.2749 -0.4311
  118loPI   C1B 1885   0.710  12.478   9.361 -0.1540  0.0675  0.1272
  118loPI   C2B 1886   0.638  12.464   8.945  0.0478 -0.1784  0.0939
  118loPI   C3B 1887   0.416  12.553   8.527 -0.1352 -0.1418  0.2995
  118loPI   C4B 1888   0.475  12.568   8.155  0.1508 -0.1722 -0.3308
  119loPI    C1 1889   6.620   1.574  10.683 -0.0437 -0.3559 -0.3167
  119loPI    C2 1890   6.730   1.305  10.958  0.2362  0.0698  0.0021
  119loPI    C3 1891   6.504   1.617  11.064  0.2767  0.1942 -0.2701
  119loPI   PO4 1892   6.684   1.393  10.485  0.0951  0.0905 -0.0904
  119loPI   GL1 1893   6.876   1.311  10.114  0.2682  0.0425 -0.1758
  119loPI   GL2 1894   6.641   1.049  10.122  0.2073  0.2941  0.2825
  119loPI   C1A 1895   6.933   1.321   9.659 -0.3703  0.1257  0.2084
  119loPI   C2A 1896   6.934   1.310   9.321  0.0180 -0.1112  0.0183
  119loPI   C3A 1897   6.948   1.202   8.862  0.0681 -0.2432  0.0908
  119loPI   C4A 1898   6.953   1.005   8.445  0.3363 -0.4150 -0.0111
  119loPI   C5A 1899   6.654   0.537   8.240 -0.4318  0.1155 -0.2955
  119loPI   C6A 1900   6.505   0.182   7.968  0.1175 -0.0321 -0.0314
  119loPI   C1B 1901   6.460   1.306   9.786  0.2040  0.0413 -0.0939
  119loPI   C2B 1902   6.340   1.245   9.421 -0.0827  0.1791  0.1280
  119loPI   C3B 1903   6.504   1.562   9.134  0.0980  0.4205 -0.1495
  119loPI   C4B 1904   6.676   1.583   8.747  0.0713  0.2062 -0.0415
  120loPI    C1 1905   4.896  16.987  10.310 -0.4946  0.0604  0.0221
  120loPI    C2 1906   4.669  17.027  10.637 -0.2982 -0.2455  0.2016
  120loPI    C3 1907   4.968  16.762  10.633 -0.0841 -0.0069 -0.1107
  120loPI   PO4 1908   4.911  17.175  10.191  0.3217 -0.2582  0.0134
  120loPI   GL1 1909   5.097  17.229   9.811  0.1212 -0.0634 -0.3461
  120loPI   GL2 1910   5.010  16.898   9.737 -0.0018  0.0517 -0.2047
  120loPI   C1A 1911   5.040  17.308   9.375  0.4742 -0.0897  0.2169
  120loPI   C2A 1912   5.039  17.295   8.839  0.3107 -0.2297  0.1153
  120loPI   C3A 1913   4.695  17.341   8.519  0.1672  0.0282  0.0997
  120loPI   C4A 1914   4.397  17.310   8.133  0.1392  0.0349  0.0283
  120loPI   C5A 1915   4.200  16.952   8.057 -0.1724 -0.2377  0.0636
  120loPI   C6A 1916   4.303  16.730   7.699 -0.2295  0.1221  0.0576
  120loPI   C1B 1917   4.816  16.883   9.397  0.0324  0.2299  0.2730
  120loPI   C2B 1918   4.641  17.135   9.023 -0.2022  0.1931  0.1542
  120loPI   C3B 1919   4.503  16.907   8.594 -0.0064 -0.2639 -0.1957
  120loPI   C4B 1920   4.421  16.596   8.379  0.0203  0.0838 -0.0472
  121loPI    C1 1921  15.482   7.243  10.343 -0.2867 -0.2757  0.1721
  121loPI    C2 1922  15.332   7.478  10.630  0.0409  0.2356 -0.0605
  121loPI    C3 1923  15.714   7.362  10.646 -0.1059 -0.2578  0.0282
  121loPI   PO4 1924  15.469   7.373  10.046 -0.2042  0.0015  0.0778
  121loPI   GL1 1925  15.141   7.418   9.671 -0.0396 -0.0265 -0.0948
  121loPI   GL2 1926  15.259   7.096   9.598  0.3023 -0.3437 -0.2389
  121loPI   C1A 1927  15.295   7.497   9.212 -0.0684 -0.1007  0.2863
  121loPI   C2A 1928  15.344   7.504   8.835  0.2044 -0.0254 -0.2259
  121loPI   C3A 1929  15.496   7.335   8.469  0.0536 -0.4245 -0.2295
  121loPI   C4A 1930  15.766   7.190   8.174  0.4056 -0.2819  0.0557
  121loPI   C5A 1931  16.084   7.029   7.894 -0.4867 -0.0861 -0.2316
  121loPI   C6A 1932  16.527   7.054   7.826  0.0278  0.1987  0.0929
  121loPI   C1B 1933  15.345   6.900   9.276 -0.1339  0.1119 -0.3475
  121loPI   C2B 1934  15.499   6.793   8.912  0.0565  0.0227 -0.2909
  121loPI   C3B 1935  15.405   6.831   8.373 -0.1640  0.3351  0.0400
  121loPI   C4B 1936  15.236   7.179   8.096 -0.3085 -0.0115 -0.1808
  122loPI    C1 1937   5.884  13.842  10.168  0.1333 -0.0311 -0.1997
  122loPI    C2 1938   5.974  13.888  10.556 -0.0210 -0.0848 -0.1570
  122loPI    C3 1939   5.607  13.771  10.447 -0.1251  0.3919 -0.3405
  122loPI   PO4 1940   5.919  14.073  10.046 -0.2373  0.1902  0.2038
  122loPI   GL1 1941   5.922  14.017   9.602  0.3154 -0.1206 -0.1233
  122loPI   GL2 1942   5.692  13.881   9.535  0.1980  0.1347 -0.2455
  122loPI   C1A 1943   6.200  14.108   9.232  0.1195 -0.0443 -0.1054
  122loPI   C2A 1944   6.226  13.919   8.864  0.1388  0.1189  0.0718
  122loPI   C3A 1945   6.252  13.738   8.462  0.0153  0.2398 -0.1257
  122loPI   C4A 1946   6.100  13.630   8.050 -0.0616  0.0087 -0.0564
  122loPI   C5A 1947   6.363  13.428   7.748 -0.1567 -0.2814 -0.4175
  122loPI   C6A 1948   6.567  13.052   7.725 -0.1922  0.1461 -0.0200
  122loPI   C1B 1949   5.708  14.100   9.122 -0.0558  0.0192  0.0099
  122loPI   C2B 1950   5.826  14.113   8.698  0.2364 -0.2523 -0.2326
  122loPI   C3B 1951   6.050  14.098   8.267  0.0757  0.1166  0.3409
  122loPI   C4B 1952   6.078  14.291   7.775 -0.1498  0.0294 -0.2859
  123loPI    C1 1953   2.337   3.243  10.383 -0.0202 -0.1146 -0.0241
  123loPI    C2 1954   2.020   3.139  10.605 -0.0042  0.1507  0.1270
  123loPI    C3 1955   2.390   3.081  10.745  0.0154 -0.0998 -0.0227
  123loPI   PO4 1956   2.322   3.099  10.180  0.3020 -0.4133 -0.0802
  123loPI   GL1 1957   2.500   3.055   9.720  0.0207  0.1841  0.1677
  123loPI   GL2 1958   2.184   2.957   9.723  0.1311 -0.1119 -0.1290
  123loPI   C1A 1959   2.490   2.814   9.260  0.0393  0.4661 -0.0299
  123loPI   C2A 1960   2.377   2.775   8.911  0.1095 -0.0104 -0.3032
  123loPI   C3A 1961   2.216   2.444   8.610  0.3559 -0.3148 -0.3580
  123loPI   C4A 1962   2.129   2.392   8.233 -0.1641 -0.0093  0.1132
  123loPI   C5A 1963   1.827   2.458   7.914  0.4491  0.1627  0.0810
  123loPI   C6A 1964   1.844   2.780   7.613  0.0749 -0.0006  0.0097
  123loPI   C1B 1965   1.932   2.852   9.292 -0.0616 -0.0209 -0.4459
  123loPI   C2B 1966   1.888   2.554   8.934  0.0867 -0.3247 -0.0771
  123loPI   C3B 1967   1.700   2.606   8.390 -0.1510  0.0232  0.0427
  123loPI   C4B 1968   1.443   2.815   8.100  0.3295 -0.1462 -0.0618
  124loPI    C1 1969   2.990  11.908  10.149 -0.0802  0.1933 -0.0215
  124loPI    C2 1970   2.787  11.582  10.260  0.2403 -0.0316 -0.0827
  124loPI    C3 1971   2.879  11.862  10.530  0.0805 -0.0558 -0.0024
  124loPI   PO4 1972   3.168  11.841   9.985  0.3582  0.0589 -0.0512
  124loPI   GL1 1973   3.439  11.551   9.833 -0.0111 -0.3685 -0.1233
  124loPI   GL2 1974   3.609  11.468   9.503  0.1641  0.1900  0.1057
  124loPI   C1A 1975   3.027  11.338   9.589  0.3534  0.1559 -0.0698
  124loPI   C2A 1976   2.974  11.049   9.277 -0.1895  0.1541 -0.0326
  124loPI   C3A 1977   3.135  10.624   9.194  0.4444  0.0611  0.2136
  124loPI   C4A 1978   3.380  10.309   9.007 -0.2083 -0.0467 -0.0826
  124loPI   C5A 1979   3.735   9.934   8.932 -0.2594 -0.0113  0.1070
  124loPI   C6A 1980   3.675   9.534   8.800 -0.2278  0.0189 -0.0592
  124loPI   C1B 1981   3.322  11.751   9.349  0.0247  0.3326 -0.1804
  124loPI   C2B 1982   3.148  11.495   9.005 -0.3562  0.1998  0.0005
  124loPI   C3B 1983   2.866  11.312   8.879 -0.3164 -0.2144 -0.0075
  124loPI   C4B 1984   2.535  11.206   8.989  0.2790 -0.0910 -0.1527
  125loPI    C1 1985   8.165  10.356   9.920 -0.0722 -0.0738 -0.0649
  125loPI    C2 1986   7.869  10.583   9.776 -0.0408  0.0208  0.0184
  125loPI    C3 1987   7.823  10.391  10.124  0.0144  0.0765  0.0566
  125loPI   PO4 1988   8.290  10.262   9.710 -0.0057  0.2072 -0.2161
  125loPI   GL1 1989   8.188  10.103   9.295 -0.0378  0.0175 -0.1759
  125loPI   GL2 1990   8.358   9.967   9.141  0.1756  0.0315  0.0095
  125loPI   C1A 1991   8.070  10.097   8.798 -0.1694 -0.0064  0.2066
  125loPI   C2A 1992   8.134  10.183   8.421  0.4220  0.0589 -0.2891
  125loPI   C3A 1993   8.189  10.159   7.991 -0.0864  0.0465  0.1121
  125loPI   C4A 1994   8.003  10.213   7.619 -0.0460 -0.2836  0.0315
  125loPI   C5A 1995   7.838  10.041   7.300  0.0290 -0.5061  0.1074
  125loPI   C6A 1996   7.350  10.094   7.356  0.3358  0.0660  0.0923
  125loPI   C1B 1997   8.576   9.926   8.711  0.1310 -0.2630  0.1764
  125loPI   C2B 1998   8.543  10.002   8.281 -0.1008 -0.0918  0.0587
  125loPI   C3B 1999   8.670   9.982   7.879  0.0898 -0.0363 -0.0227
  125loPI   C4B 2000   8.714   9.760   7.418 -0.1428  0.2599 -0.0076
  126loPI    C1 2001  11.832  13.867   9.852 -0.1679 -0.0750 -0.0166
  126loPI    C2 2002  11.570  14.166   9.896 -0.1246 -0.0188 -0.1354
  126loPI    C3 2003  11.452  13.787   9.947 -0.1401  0.0267  0.1844
  126loPI   PO4 2004  11.911  13.937   9.468  0.0328 -0.1750  0.0406
  126loPI   GL1 2005  12.327  13.905   9.256  0.0304 -0.3420 -0.0728
  126loPI   GL2 2006  12.201  14.163   9.177  0.1002  0.2329  0.1873
  126loPI   C1A 2007  12.722  14.004   8.930  0.3160  0.2208  0.1658
  126loPI   C2A 2008  12.846  14.046   8.446 -0.1214 -0.1659 -0.4159
  126loPI   C3A 2009  12.670  14.221   8.070 -0.2879 -0.0821  0.2296
  126loPI   C4A 2010  12.532  14.435   7.606  0.3104 -0.1352 -0.0451
  126loPI   C5A 2011  12.335  14.589   7.273  0.3221  0.0254 -0.2378
  126loPI   C6A 2012  11.995  14.659   7.011 -0.0411 -0.1644  0.1443
  126loPI   C1B 2013  12.214  14.107   8.795  0.0746 -0.0096 -0.0762
  126loPI   C2B 2014  12.297  14.232   8.453  0.2608  0.2364  0.2307
  126loPI   C3B 2015  12.196  14.193   8.010 -0.2566 -0.0285 -0.2765
  126loPI   C4B 2016  12.077  14.204   7.671 -0.0798  0.2971  0.0016
  127loPI    C1 2017  10.608  14.646   9.886  0.1866  0.0970 -0.1752
  127loPI    C2 2018  10.769  15.011   9.857  0.0116  0.1694 -0.2476
  127loPI    C3 2019  10.772  14.818  10.207  0.4021  0.0997 -0.2849
  127loPI   PO4 2020  10.658  14.551   9.620  0.0633  0.1028  0.1653
  127loPI   GL1 2021  10.699  14.296   9.288 -0.3972 -0.1811 -0.1286
  127loPI   GL2 2022  10.898  14.554   9.180 -0.3752  0.0384  0.5729
  127loPI   C1A 2023  10.722  14.287   8.760  0.2487  0.3049  0.1232
  127loPI   C2A 2024  10.567  14.153   8.387 -0.0089 -0.3295 -0.2252
  127loPI   C3A 2025  10.660  14.263   8.023  0.2146 -0.1450 -0.1289
  127loPI   C4A 2026  10.544  14.317   7.524 -0.1374  0.1948  0.0207
  127loPI   C5A 2027  10.786  14.315   7.145 -0.4884 -0.0530  0.0528
  127loPI   C6A 2028  10.540  14.199   6.809  0.0946 -0.1607  0.2013
  127loPI   C1B 2029  10.928  14.736   8.896  0.0771 -0.0221  0.1404
  127loPI   C2B 2030  10.939  14.631   8.417 -0.0239  0.0706 -0.0597
  127loPI   C3B 2031  11.012  14.623   7.998  0.1702  0.0298  0.1104
  127loPI   C4B 2032  11.110  14.506   7.596 -0.1632 -0.1600 -0.3532
  128loPI    C1 2033  18.019  13.407  10.212  0.0491  0.0376 -0.0911
  128loPI    C2 2034  17.859  13.329  10.570 -0.1058 -0.1281 -0.1947
  128loPI    C3 2035  18.187  13.555  10.543 -0.0578 -0.1651  0.0563
  128loPI   PO4 2036  17.928  13.179  10.090 -0.0882  0.1306  0.1326
  128loPI   GL1 2037  17.672  13.171   9.794 -0.1963 -0.0601  0.6508
  128loPI   GL2 2038  17.760  13.581   9.655  0.1962 -0.0239 -0.0696
  128loPI   C1A 2039  17.521  13.234   9.411  0.1138 -0.0771  0.2702
  128loPI   C2A 2040  17.566  13.277   8.883 -0.1072  0.2799 -0.4227
  128loPI   C3A 2041  17.697  13.326   8.519  0.1350 -0.1504 -0.3130
  128loPI   C4A 2042  17.781  13.383   8.184 -0.6082  0.2201  0.2208
  128loPI   C5A 2043  17.773  13.520   7.842 -0.1530 -0.0041  0.1188
  128loPI   C6A 2044  17.565  13.788   7.621 -0.0926 -0.3540 -0.0483
  128loPI   C1B 2045  17.875  13.659   9.172  0.0389 -0.0202 -0.1548
  128loPI   C2B 2046  17.693  13.860   8.797 -0.1633 -0.1079 -0.0763
  128loPI   C3B 2047  17.713  14.083   8.389 -0.1557 -0.0904 -0.2890
  128loPI   C4B 2048  17.786  14.126   8.025  0.2431 -0.3755  0.0139
  129loPI    C1 2049   0.026  11.638  10.134  0.0021 -0.0532  0.2590
  129loPI    C2 2050   0.358  11.483  10.294  0.0071 -0.2652  0.0496
  129loPI    C3 2051   0.139  11.745  10.502  0.4325  0.0621  0.1007
  129loPI   PO4 2052   0.124  11.712   9.876 -0.0709  0.3580 -0.3041
  129loPI   GL1 2053  -0.095  12.021   9.758 -0.0613 -0.0105 -0.0158
  129loPI   GL2 2054  -0.464  12.208   9.736 -0.0010  0.0315  0.0141
  129loPI   C1A 2055  -0.130  11.976   9.286 -0.0042 -0.0738  0.1126
  129loPI   C2A 2056  -0.097  11.911   8.913  0.2924 -0.2154  0.2122
  129loPI   C3A 2057  -0.055  11.725   8.490  0.0210 -0.3338 -0.1812
  129loPI   C4A 2058  -0.354  11.769   8.131 -0.1755  0.0642  0.2046
  129loPI   C5A 2059  -0.248  11.900   7.668  0.1193 -0.0356  0.0186
  129loPI   C6A 2060  -0.033  12.157   7.393 -0.1174  0.0898 -0.0355
  129loPI   C1B 2061  -0.419  12.334   9.334 -0.1201  0.1624  0.1510
  129loPI   C2B 2062  -0.501  12.426   8.929  0.1044 -0.1702  0.3685
  129loPI   C3B 2063  -0.896  12.420   8.537 -0.5238  0.0819  0.0243
  129loPI   C4B 2064  -0.944  12.192   8.227  0.0985  0.1015 -0.1425
  130loPI    C1 2065   0.873  18.240  10.679 -0.0952  0.0480 -0.1928
  130loPI    C2 2066   0.485  18.256  10.775 -0.0581  0.2078 -0.0645
  130loPI    C3 2067   0.684  17.910  10.801 -0.1492  0.1627  0.0391
  130loPI   PO4 2068   0.948  18.342  10.425 -0.1508 -0.0377 -0.0010
  130loPI   GL1 2069   0.948  18.099  10.062 -0.0631  0.3398 -0.1240
  130loPI   GL2 2070   0.712  18.378  10.017 -0.0499  0.1014  0.0578
  130loPI   C1A 2071   0.905  18.003   9.625  0.4908 -0.0090 -0.1084
  130loPI   C2A 2072   0.851  17.957   9.210 -0.1654 -0.2079 -0.0515
  130loPI   C3A 2073   0.936  17.901   8.788  0.2691  0.0826  0.0637
  130loPI   C4A 2074   0.743  17.953   8.386 -0.3320  0.3875  0.0340
  130loPI   C5A 2075   0.506  18.037   8.072 -0.1049  0.0035 -0.1580
  130loPI   C6A 2076   0.173  18.221   7.821 -0.4084  0.0328 -0.1745
  130loPI   C1B 2077   0.823  18.589   9.572 -0.0071 -0.1278 -0.1937
  130loPI   C2B 2078   0.929  18.425   9.113  0.3196 -0.0647  0.1370
  130loPI   C3B 2079   1.029  18.324   8.612 -0.4169 -0.1096 -0.1542
  130loPI   C4B 2080   1.210  17.927   8.395 -0.3641  0.2477 -0.1533
  131loPI    C1 2081   0.060   9.265  10.351  0.0541  0.2643  0.1842
  131loPI    C2 2082   0.428   9.254  10.506  0.1827  0.0631 -0.1249
  131loPI    C3 2083   0.132   9.051  10.682  0.2336  0.1661  0.0834
  131loPI   PO4 2084   0.172   9.283  10.063  0.1392 -0.4004 -0.3107
  131loPI   GL1 2085   0.015   9.331   9.599 -0.1835  0.1364 -0.3265
  131loPI   GL2 2086  -0.335   9.209   9.636  0.4091  0.1477  0.1299
  131loPI   C1A 2087   0.219   9.422   9.265  0.0822  0.3410  0.2089
  131loPI   C2A 2088   0.031   9.575   8.808 -0.4598 -0.0479  0.0044
  131loPI   C3A 2089   0.003   9.545   8.359  0.0391 -0.1648 -0.1550
  131loPI   C4A 2090   0.179   9.821   8.118 -0.2749 -0.0451 -0.4529
  131loPI   C5A 2091   0.036  10.041   7.703 -0.0352 -0.3313 -0.0472
  131loPI   C6A 2092  -0.054   9.778   7.334  0.0445 -0.2703  0.4478
  131loPI   C1B 2093  -0.353   9.248   9.203  0.0547 -0.1594 -0.1506
  131loPI   C2B 2094  -0.313   9.218   8.743 -0.1679  0.0742 -0.1899
  131loPI   C3B 2095  -0.476   9.320   8.283  0.0540  0.3433  0.2326
  131loPI   C4B 2096  -0.195   9.415   7.923 -0.2929  0.0810  0.0396
  132loPI    C1 2097  12.229   4.033  10.169 -0.0871  0.0127  0.0410
  132loPI    C2 2098  12.627   4.020  10.199 -0.0682 -0.2303 -0.2698
  132loPI    C3 2099  12.455   4.245   9.917 -0.1531 -0.1240 -0.1346
  132loPI   PO4 2100  12.134   3.811  10.129  0.0950 -0.0645 -0.2011
  132loPI   GL1 2101  12.153   3.761   9.684  0.1135  0.3367 -0.0920
  132loPI   GL2 2102  11.872   3.714   9.505 -0.2865  0.0766  0.1998
  132loPI   C1A 2103  12.377   3.757   9.345  0.0540  0.0107  0.0819
  132loPI   C2A 2104  12.599   3.981   9.130 -0.3044 -0.0752  0.2493
  132loPI   C3A 2105  12.986   4.251   9.095 -0.1642  0.2521  0.0972
  132loPI   C4A 2106  13.231   4.330   8.869 -0.2165 -0.2317  0.0186
  132loPI   C5A 2107  13.414   4.167   8.458 -0.1861  0.1730 -0.0880
  132loPI   C6A 2108  13.594   4.111   8.097 -0.2621  0.0358  0.3426
  132loPI   C1B 2109  11.956   3.710   9.119  0.0127 -0.1042  0.1738
  132loPI   C2B 2110  12.259   3.604   8.890  0.3169 -0.0674 -0.0658
  132loPI   C3B 2111  12.635   3.632   8.686  0.0251  0.0104 -0.1129
  132loPI   C4B 2112  12.894   3.483   8.457  0.0773 -0.0395  0.0327
  133loPI    C1 2113   9.610   1.346  10.525  0.1527 -0.1188 -0.3601
  133loPI    C2 2114   9.878   1.604  10.671  0.0315 -0.1438 -0.0884
  133loPI    C3 2115   9.667   1.698  10.345 -0.0895  0.1488  0.0702
  133loPI   PO4 2116   9.688   1.143  10.442 -0.1282  0.5675 -0.0165
  133loPI   GL1 2117   9.710   1.115   9.949  0.0488  0.1967  0.1688
  133loPI   GL2 2118   9.469   0.805   9.804  0.0312 -0.0150  0.3268
  133loPI   C1A 2119   9.859   1.175   9.435  0.1509 -0.0820  0.0381
  133loPI   C2A 2120   9.795   1.148   9.082  0.2923  0.1759 -0.0834
  133loPI   C3A 2121   9.703   1.281   8.753 -0.0796  0.0650  0.3665
  133loPI   C4A 2122   9.671   1.451   8.383  0.3994  0.3205  0.1156
  133loPI   C5A 2123   9.625   1.853   8.065 -0.1565  0.0349 -0.0103
  133loPI   C6A 2124   9.648   2.281   7.901  0.0755  0.2432 -0.1773
  133loPI   C1B 2125   9.449   0.865   9.345 -0.1101  0.2677 -0.0921
  133loPI   C2B 2126   9.256   1.086   8.995  0.0552 -0.3255 -0.1074
  133loPI   C3B 2127   9.161   1.313   8.608 -0.3749 -0.0121 -0.0226
  133loPI   C4B 2128   9.192   1.679   8.327 -0.0529  0.2035  0.0610
  134loPI    C1 2129   3.875  15.811  10.201 -0.1573 -0.1566  0.1018
  134loPI    C2 2130   3.606  16.107  10.182 -0.2618 -0.2579 -0.0192
  134loPI    C3 2131   3.638  15.887  10.514  0.1360  0.1836  0.2491
  134loPI   PO4 2132   4.004  15.869  10.061 -0.4963 -0.0210 -0.2873
  134loPI   GL1 2133   4.343  15.730   9.835  0.0877  0.0755 -0.0626
  134loPI   GL2 2134   4.165  16.056   9.602 -0.1134 -0.2485  0.0615
  134loPI   C1A 2135   4.559  15.762   9.411  0.2364 -0.0904 -0.0399
  134loPI   C2A 2136   4.673  15.672   9.120  0.1909 -0.1309  0.2164
  134loPI   C3A 2137   4.829  15.631   8.725  0.0379 -0.0337 -0.0526
  134loPI   C4A 2138   5.050  15.648   8.368 -0.0785  0.1037 -0.1213
  134loPI   C5A 2139   4.950  15.533   7.971 -0.0699  0.0677  0.0472
  134loPI   C6A 2140   5.029  15.930   7.670  0.0555 -0.2155 -0.1046
  134loPI   C1B 2141   4.193  16.009   9.084 -0.0613  0.3133  0.1661
  134loPI   C2B 2142   4.539  16.046   8.787 -0.1855  0.3751 -0.0454
  134loPI   C3B 2143   4.677  15.974   8.361 -0.0636 -0.1216  0.0349
  134loPI   C4B 2144   4.548  15.855   7.944 -0.0410 -0.1568 -0.0651
  135loPI    C1 2145  12.501   1.968  10.359  0.1193 -0.2928  0.0540
  135loPI    C2 2146  12.586   2.085  10.732  0.0760  0.1335 -0.0637
  135loPI    C3 2147  12.211   1.985  10.634  0.0049  0.4184 -0.0904
  135loPI   PO4 2148  12.715   1.891  10.157  0.2429 -0.3494 -0.1582
  135loPI   GL1 2149  12.803   1.751   9.746  0.0377 -0.0730 -0.1192
  135loPI   GL2 2150  12.490   1.631   9.683  0.0061  0.0598 -0.2585
  135loPI   C1A 2151  13.005   1.906   9.428  0.1208  0.0618 -0.2391
  135loPI   C2A 2152  13.041   2.220   9.153 -0.1030  0.3943 -0.3260
  135loPI   C3A 2153  12.835   2.198   8.703 -0.1534 -0.0162  0.2628
  135loPI   C4A 2154  12.743   2.104   8.238 -0.0190 -0.3810  0.0895
  135loPI   C5A 2155  12.370   2.112   8.004 -0.0456 -0.0939 -0.1450
  135loPI   C6A 2156  11.960   2.264   8.054  0.0007 -0.0473  0.3077
  135loPI   C1B 2157  12.280   1.601   9.297  0.0988  0.4629  0.1715
  135loPI   C2B 2158  12.202   1.519   8.893 -0.1111  0.2834 -0.0020
  135loPI   C3B 2159  12.059   1.589   8.516  0.1480 -0.1467  0.2119
  135loPI   C4B 2160  12.261   1.420   8.203  0.2424 -0.5889  0.2414
  136loPI    C1 2161   1.945   4.922  10.234 -0.0906 -0.0822  0.0239
  136loPI    C2 2162   2.155   4.700  10.492 -0.2812 -0.1284  0.1415
  136loPI    C3 2163   2.240   5.089  10.447  0.0269 -0.2127 -0.0351
  136loPI   PO4 2164   1.903   4.778  10.020  0.2316  0.1773  0.0191
  136loPI   GL1 2165   1.694   4.758   9.597 -0.0733 -0.0479 -0.4948
  136loPI   GL2 2166   1.623   4.472   9.666  0.1357 -0.2235 -0.1644
  136loPI   C1A 2167   1.700   4.891   9.277 -0.1874 -0.0249 -0.1387
  136loPI   C2A 2168   1.744   4.872   8.826 -0.1628  0.1894 -0.1726
  136loPI   C3A 2169   1.878   4.748   8.356  0.1760  0.0407  0.0322
  136loPI   C4A 2170   2.095   4.400   8.101 -0.2201  0.0059 -0.1371
  136loPI   C5A 2171   2.460   4.207   7.882 -0.0769 -0.2512 -0.0613
  136loPI   C6A 2172   2.842   4.393   7.919 -0.1732 -0.2824 -0.1371
  136loPI   C1B 2173   1.690   4.375   9.108 -0.1029  0.2840  0.1945
  136loPI   C2B 2174   1.789   4.281   8.658  0.0424 -0.1337  0.0421
  136loPI   C3B 2175   1.706   4.156   8.298 -0.0120  0.1833  0.0683
  136loPI   C4B 2176   1.671   4.114   7.870  0.0366  0.0563 -0.2912
  137loPI    C1 2177  15.301   7.787  10.253 -0.1121  0.2840 -0.2346
  137loPI    C2 2178  15.618   8.022  10.319  0.0241  0.0322  0.0296
  137loPI    C3 2179  15.327   7.996  10.593  0.0557 -0.1770  0.0447
  137loPI   PO4 2180  15.352   7.844   9.905 -0.1205 -0.0035 -0.1490
  137loPI   GL1 2181  15.521   7.987   9.570 -0.1036 -0.0282 -0.2012
  137loPI   GL2 2182  15.842   8.179   9.472  0.1325 -0.2523  0.2029
  137loPI   C1A 2183  15.603   7.856   9.159 -0.0201 -0.0778 -0.2411
  137loPI   C2A 2184  15.653   7.887   8.675 -0.1630  0.0782 -0.1189
  137loPI   C3A 2185  15.650   7.784   8.275 -0.0580 -0.1775  0.0168
  137loPI   C4A 2186  15.575   7.573   7.885  0.0522  0.1258 -0.2725
  137loPI   C5A 2187  15.561   7.105   7.725  0.1040 -0.2878 -0.1848
  137loPI   C6A 2188  15.829   6.986   7.459 -0.2286 -0.0914  0.1109
  137loPI   C1B 2189  15.502   8.346   9.159  0.1461  0.1633  0.1547
  137loPI   C2B 2190  15.533   8.577   8.824  0.2218  0.2309  0.2153
  137loPI   C3B 2191  15.465   8.918   8.599 -0.1572 -0.1524  0.1838
  137loPI   C4B 2192  15.544   9.014   8.189  0.0875 -0.1114 -0.0457
  138loPI    C1 2193  16.704   5.612  10.228 -0.0090 -0.2268  0.2177
  138loPI    C2 2194  16.884   5.787  10.539  0.2675  0.2288 -0.1856
  138loPI    C3 2195  16.547   5.942  10.390 -0.0082 -0.1375  0.0385
  138loPI   PO4 2196  16.814   5.556  10.076  0.2262 -0.0178 -0.1235
  138loPI   GL1 2197  16.810   5.514   9.678 -0.2722  0.2554  0.4581
  138loPI   GL2 2198  16.489   5.743   9.689  0.0745 -0.0143  0.2433
  138loPI   C1A 2199  16.834   5.516   9.261  0.2382  0.0922  0.0047
  138loPI   C2A 2200  16.801   5.492   8.758 -0.0199  0.2492  0.4301
  138loPI   C3A 2201  16.943   5.643   8.507 -0.1431 -0.2130 -0.0453
  138loPI   C4A 2202  17.253   5.714   8.138  0.1319 -0.1555 -0.1336
  138loPI   C5A 2203  17.225   5.593   7.698  0.2012 -0.0145 -0.0912
  138loPI   C6A 2204  17.232   5.728   7.253  0.0528 -0.5532 -0.0153
  138loPI   C1B 2205  16.541   5.924   9.242 -0.2469 -0.2662 -0.1861
  138loPI   C2B 2206  16.272   5.862   8.919  0.2880  0.2556 -0.2031
  138loPI   C3B 2207  16.015   5.849   8.654  0.0861 -0.0341 -0.0135
  138loPI   C4B 2208  15.977   5.654   8.291 -0.1442 -0.0971 -0.1919
  139loPI    C1 2209  17.632  13.879  10.451 -0.1675  0.2955  0.1375
  139loPI    C2 2210  17.688  14.115  10.769  0.0081 -0.1050  0.4133
  139loPI    C3 2211  17.475  13.779  10.805 -0.2330 -0.0008  0.0277
  139loPI   PO4 2212  17.820  13.817  10.366 -0.1689  0.1186  0.4398
  139loPI   GL1 2213  18.044  13.903   9.896 -0.1342 -0.1368  0.1235
  139loPI   GL2 2214  18.075  14.235   9.888  0.1237 -0.1154 -0.1081
  139loPI   C1A 2215  18.130  13.998   9.440  0.4205  0.0563  0.0732
  139loPI   C2A 2216  18.226  14.044   9.045 -0.1248  0.0589 -0.2017
  139loPI   C3A 2217  18.321  14.134   8.592 -0.0363 -0.1601 -0.0576
  139loPI   C4A 2218  18.315  14.079   8.093  0.3510 -0.1618 -0.0861
  139loPI   C5A 2219  18.740  13.891   7.904  0.2318  0.1873  0.0860
  139loPI   C6A 2220  19.127  13.685   7.819  0.0660 -0.1328  0.0283
  139loPI   C1B 2221  17.840  14.383   9.557  0.4294 -0.2386  0.2348
  139loPI   C2B 2222  17.951  14.447   9.145  0.0475  0.1389  0.3187
  139loPI   C3B 2223  17.811  14.472   8.720 -0.2037 -0.0938 -0.1039
  139loPI   C4B 2224  17.699  14.551   8.326  0.1416 -0.0872 -0.1065
  140loPI    C1 2225   2.016  14.950  10.450 -0.0362 -0.0474  0.0108
  140loPI    C2 2226   1.805  14.630  10.564 -0.1220  0.0040 -0.0026
  140loPI    C3 2227   1.844  14.942  10.811  0.2221 -0.1422  0.1337
  140loPI   PO4 2228   1.955  15.085  10.169 -0.1666 -0.0450 -0.1168
  140loPI   GL1 2229   1.897  15.402   9.976  0.2561  0.1286  0.1374
  140loPI   GL2 2230   2.090  15.434   9.824 -0.0823 -0.0991 -0.2817
  140loPI   C1A 2231   1.643  15.446   9.538  0.0228  0.3176  0.0552
  140loPI   C2A 2232   1.612  15.408   9.203 -0.0718  0.3057 -0.2465
  140loPI   C3A 2233   1.636  15.570   8.821 -0.0608 -0.5035 -0.1103
  140loPI   C4A 2234   1.481  15.477   8.471  0.0107  0.1215  0.2544
  140loPI   C5A 2235   1.293  15.324   8.104 -0.0864  0.0478  0.1701
  140loPI   C6A 2236   0.876  15.431   7.893 -0.0701  0.1388  0.0444
  140loPI   C1B 2237   2.097  15.471   9.327 -0.0122  0.1569 -0.2127
  140loPI   C2B 2238   2.145  15.531   8.869 -0.1106 -0.2392  0.0970
  140loPI   C3B 2239   2.296  15.472   8.423  0.0824  0.2457  0.0006
  140loPI   C4B 2240   2.304  15.173   8.097 -0.0371  0.1156  0.1569
  141loPI    C1 2241   4.608  10.758  10.109  0.1694  0.1325 -0.0137
  141loPI    C2 2242   4.427  10.480  10.333  0.2009 -0.0181 -0.1729
  141loPI    C3 2243   4.633  10.372  10.008  0.0846  0.2058 -0.3234
  141loPI   PO4 2244   4.473  10.940  10.010 -0.0107 -0.0183 -0.2289
  141loPI   GL1 2245   4.589  11.196   9.584  0.2171 -0.0095  0.0461
  141loPI   GL2 2246   4.678  10.750   9.572  0.0987  0.1194  0.0182
  141loPI   C1A 2247   4.455  11.279   9.098 -0.0880  0.0010 -0.2335
  141loPI   C2A 2248   4.403  11.175   8.745  0.2663 -0.0958  0.2225
  141loPI   C3A 2249   4.146  11.319   8.529 -0.5800  0.0446  0.1330
  141loPI   C4A 2250   3.953  11.516   8.210  0.1071  0.1336 -0.2489
  141loPI   C5A 2251   3.716  11.749   7.895  0.3296  0.1199 -0.1680
  141loPI   C6A 2252   3.672  12.133   7.700  0.0046 -0.0128  0.0056
  141loPI   C1B 2253   4.405  10.777   9.297 -0.1432  0.1656 -0.1632
  141loPI   C2B 2254   4.347  10.584   8.901 -0.1472  0.0595 -0.0088
  141loPI   C3B 2255   4.200  10.739   8.411  0.1746 -0.1569 -0.2865
  141loPI   C4B 2256   4.133  11.048   8.065 -0.0729  0.0125 -0.0900
  142loPI    C1 2257   6.699   9.282   9.992  0.0535  0.0798  0.1230
  142loPI    C2 2258   7.043   9.086   9.939 -0.0770 -0.1659  0.1691
  142loPI    C3 2259   6.922   9.181  10.308  0.0814  0.1809  0.1361
  142loPI   PO4 2260   6.512   9.209   9.815  0.0574 -0.0467  0.0650
  142loPI   GL1 2261   6.634   9.164   9.310 -0.1280 -0.0789  0.2264
  142loPI   GL2 2262   6.742   9.477   9.153  0.0400 -0.1754 -0.1796
  142loPI   C1A 2263   6.951   8.941   9.090  0.0683  0.1116  0.2423
  142loPI   C2A 2264   7.011   8.945   8.639  0.2087 -0.0275 -0.1024
  142loPI   C3A 2265   6.846   8.777   8.320 -0.2984 -0.0189 -0.1174
  142loPI   C4A 2266   6.788   8.508   7.964  0.3444 -0.2406  0.0106
  142loPI   C5A 2267   6.746   8.045   7.827 -0.1317  0.1120 -0.0745
  142loPI   C6A 2268   6.295   7.866   7.860 -0.2271  0.2124  0.0009
  142loPI   C1B 2269   6.618   9.263   8.819 -0.0354  0.1182 -0.1537
  142loPI   C2B 2270   6.562   9.348   8.409  0.0054  0.1131 -0.3000
  142loPI   C3B 2271   6.331   9.526   8.181  0.0457  0.4411 -0.0457
  142loPI   C4B 2272   6.130   9.338   7.875 -0.1085 -0.3885 -0.3627
  143loPI    C1 2273  12.606  17.468  10.196  0.0309 -0.0553 -0.0444
  143loPI    C2 2274  12.990  17.385  10.274 -0.0317 -0.1550  0.1649
  143loPI    C3 2275  12.847  17.753  10.341  0.0164 -0.1296  0.1285
  143loPI   PO4 2276  12.642  17.427   9.927 -0.0841  0.0817  0.0934
  143loPI   GL1 2277  12.473  17.566   9.567  0.3516 -0.1142  0.2479
  143loPI   GL2 2278  12.688  17.386   9.388 -0.3318 -0.0415  0.0833
  143loPI   C1A 2279  12.455  17.839   9.175 -0.3489  0.1333  0.1139
  143loPI   C2A 2280  12.457  17.887   8.712 -0.3230  0.1540 -0.0822
  143loPI   C3A 2281  12.357  18.056   8.277  0.3119  0.0208 -0.2342
  143loPI   C4A 2282  12.109  18.256   8.031 -0.0197 -0.4036 -0.2231
  143loPI   C5A 2283  11.955  18.301   7.639 -0.0275  0.2815  0.1834
  143loPI   C6A 2284  12.181  17.912   7.434  0.0639  0.1407 -0.5470
  143loPI   C1B 2285  12.701  17.476   8.907  0.0523 -0.0015 -0.0770
  143loPI   C2B 2286  12.714  17.561   8.487 -0.3667  0.1013  0.1131
  143loPI   C3B 2287  12.880  17.937   8.224  0.0269  0.0959 -0.0999
  143loPI   C4B 2288  13.076  18.238   7.998 -0.1607  0.1587 -0.0936
  144loPI    C1 2289   9.114  10.523   9.931 -0.0589  0.0875  0.0233
  144loPI    C2 2290   8.760  10.349   9.869 -0.1842  0.2598  0.2415
  144loPI    C3 2291   9.056  10.143  10.042 -0.1582  0.0987  0.0100
  144loPI   PO4 2292   9.109  10.657   9.690 -0.1602  0.0996 -0.3472
  144loPI   GL1 2293   9.116  10.576   9.271 -0.1010  0.1799 -0.0766
  144loPI   GL2 2294   9.297  10.838   9.204  0.2714  0.0305 -0.0776
  144loPI   C1A 2295   9.249  10.431   8.866  0.3061  0.1860  0.0771
  144loPI   C2A 2296   9.196  10.673   8.564 -0.1319 -0.5180 -0.0856
  144loPI   C3A 2297   9.170  10.699   8.153  0.0769  0.4078 -0.1783
  144loPI   C4A 2298   8.883  10.785   7.840  0.3231 -0.0166 -0.1338
  144loPI   C5A 2299   8.732  11.127   7.512 -0.1839  0.3231  0.1773
  144loPI   C6A 2300   8.604  11.432   7.131  0.0374 -0.0888 -0.1241
  144loPI   C1B 2301   8.874  10.900   9.024 -0.0524 -0.1082 -0.1602
  144loPI   C2B 2302   8.810  10.919   8.676 -0.0041 -0.2222 -0.1965
  144loPI   C3B 2303   8.730  10.996   8.369  0.2016  0.2356 -0.1525
  144loPI   C4B 2304   8.457  11.028   7.956 -0.4287 -0.4783  0.0415
  145loPI    C1 2305   1.951   0.699  10.888  0.2245  0.0314 -0.1646
  145loPI    C2 2306   1.616   0.850  10.730  0.1623  0.1524  0.0781
  145loPI    C3 2307   1.594   0.575  11.020  0.2736  0.1192  0.0556
  145loPI   PO4 2308   2.090   0.798  10.617 -0.0561 -0.1980  0.1082
  145loPI   GL1 2309   1.838   0.550  10.201 -0.2990 -0.1983  0.0237
  145loPI   GL2 2310   1.979   0.204  10.052 -0.2379 -0.2280 -0.4089
  145loPI   C1A 2311   1.770   0.694   9.875 -0.0371  0.0318 -0.2506
  145loPI   C2A 2312   1.614   0.677   9.427 -0.1244 -0.0881  0.1463
  145loPI   C3A 2313   1.517   0.768   9.069 -0.0971  0.2714 -0.1174
  145loPI   C4A 2314   1.386   0.849   8.613 -0.2524 -0.1551  0.3157
  145loPI   C5A 2315   1.388   0.883   8.046  0.1404 -0.2917 -0.2263
  145loPI   C6A 2316   1.619   0.982   7.633  0.0989  0.4771 -0.0439
  145loPI   C1B 2317   2.047   0.356   9.642 -0.1128 -0.2865 -0.2498
  145loPI   C2B 2318   2.018   0.506   9.278  0.2009  0.0972  0.2155
  145loPI   C3B 2319   1.925   0.636   8.804  0.0874 -0.1622  0.0050
  145loPI   C4B 2320   2.125   0.715   8.347  0.2503  0.2068 -0.0621
  146loPI    C1 2321  13.843  17.372  10.127 -0.2607  0.0548 -0.1418
  146loPI    C2 2322  14.220  17.236  10.128 -0.2152  0.1799 -0.0920
  146loPI    C3 2323  13.914  16.979  10.104 -0.1332  0.0600  0.1243
  146loPI   PO4 2324  13.901  17.615   9.917 -0.1420 -0.1282 -0.3915
  146loPI   GL1 2325  13.959  17.769   9.508 -0.2719 -0.1902  0.0617
  146loPI   GL2 2326  13.768  17.831   9.453 -0.1193 -0.0189 -0.0770
  146loPI   C1A 2327  14.175  18.063   9.276 -0.0605 -0.0168  0.1065
  146loPI   C2A 2328  13.889  18.078   8.985 -0.1620 -0.3677  0.0645
  146loPI   C3A 2329  13.584  17.909   8.654 -0.0661  0.0273  0.3007
  146loPI   C4A 2330  13.373  17.819   8.227  0.0712 -0.0385  0.1883
  146loPI   C5A 2331  13.408  17.858   7.843 -0.0848 -0.2322  0.2177
  146loPI   C6A 2332  13.670  17.771   7.496  0.0565  0.1869  0.0827
  146loPI   C1B 2333  13.697  17.615   9.088 -0.1880  0.0372 -0.1761
  146loPI   C2B 2334  13.846  17.176   8.759 -0.1779 -0.1832  0.3430
  146loPI   C3B 2335  13.945  17.138   8.375  0.0240  0.0705  0.1154
  146loPI   C4B 2336  14.090  16.873   8.033 -0.0397  0.2549  0.0355
  147loPI    C1 2337   9.673  14.723  10.131  0.1739  0.0437  0.1219
  147loPI    C2 2338   9.314  14.609   9.995  0.2016  0.1041 -0.0034
  147loPI    C3 2339   9.344  14.794  10.348  0.1396 -0.1380  0.1311
  147loPI   PO4 2340   9.810  14.871   9.902  0.3736 -0.0300  0.0441
  147loPI   GL1 2341   9.763  14.823   9.437 -0.1402 -0.2342 -0.1569
  147loPI   GL2 2342   9.604  14.508   9.417 -0.0467  0.2169 -0.1207
  147loPI   C1A 2343   9.978  14.838   9.025  0.1334  0.0752 -0.1485
  147loPI   C2A 2344  10.005  14.943   8.597 -0.1361  0.2038  0.0042
  147loPI   C3A 2345   9.939  15.066   8.148 -0.0725 -0.0618 -0.4750
  147loPI   C4A 2346   9.909  14.959   7.705 -0.0703 -0.2982 -0.2459
  147loPI   C5A 2347   9.850  14.865   7.262  0.0445  0.0460 -0.1008
  147loPI   C6A 2348   9.918  14.744   6.802 -0.1688 -0.1027  0.0401
  147loPI   C1B 2349   9.554  14.424   8.963  0.2416 -0.0422  0.0185
  147loPI   C2B 2350   9.654  14.509   8.669  0.1539 -0.1753  0.1616
  147loPI   C3B 2351   9.577  14.603   8.268 -0.1595 -0.2051  0.0955
  147loPI   C4B 2352   9.613  14.586   7.842 -0.0016 -0.5604  0.0433
  148loPI    C1 2353   6.581   7.842   9.924  0.1733  0.1450 -0.2958
  148loPI    C2 2354   6.937   7.894  10.098  0.1572  0.1130 -0.2531
  148loPI    C3 2355   6.777   8.187   9.879  0.1591  0.1685 -0.1807
  148loPI   PO4 2356   6.512   7.608   9.981 -0.2152  0.0359 -0.0012
  148loPI   GL1 2357   6.511   7.348   9.626 -0.1720  0.0646  0.1011
  148loPI   GL2 2358   6.657   7.483   9.304  0.4880 -0.0453 -0.0760
  148loPI   C1A 2359   6.502   6.971   9.304  0.1890  0.1875  0.1679
  148loPI   C2A 2360   6.595   7.020   8.908  0.0267 -0.0442 -0.2027
  148loPI   C3A 2361   6.656   6.888   8.500  0.0750 -0.1840  0.0979
  148loPI   C4A 2362   6.579   7.098   8.138  0.3316  0.0712  0.2911
  148loPI   C5A 2363   6.313   7.304   7.861 -0.0204 -0.0121 -0.0622
  148loPI   C6A 2364   6.199   7.619   7.438 -0.1927  0.0985 -0.1540
  148loPI   C1B 2365   6.643   7.506   8.815 -0.3325  0.3261  0.1235
  148loPI   C2B 2366   6.806   7.477   8.419  0.0324  0.2532  0.1816
  148loPI   C3B 2367   6.794   7.638   8.034 -0.2883  0.1250  0.1100
  148loPI   C4B 2368   7.160   7.666   7.793  0.1313 -0.0772  0.1839
  149loPI    C1 2369   0.138   2.272  10.260  0.0353 -0.0288  0.2016
  149loPI    C2 2370  -0.030   2.617  10.147  0.0606 -0.0522  0.0916
  149loPI    C3 2371   0.250   2.615  10.433 -0.1143 -0.0113  0.2647
  149loPI   PO4 2372   0.195   2.146   9.997 -0.2590  0.0363  0.1804
  149loPI   GL1 2373   0.164   2.043   9.546  0.5420  0.0147 -0.2150
  149loPI   GL2 2374  -0.076   2.336   9.614 -0.4052 -0.5855 -0.0489
  149loPI   C1A 2375   0.298   2.085   9.163 -0.0492 -0.0272  0.0005
  149loPI   C2A 2376   0.388   2.060   8.808 -0.1429  0.1939  0.0225
  149loPI   C3A 2377   0.430   2.095   8.331  0.0458 -0.2611 -0.0917
  149loPI   C4A 2378   0.602   1.913   7.965  0.2111 -0.2061  0.1620
  149loPI   C5A 2379   0.674   1.664   7.629  0.3626  0.2698 -0.1542
  149loPI   C6A 2380   0.660   1.507   7.206  0.2781  0.1832  0.4263
  149loPI   C1B 2381   0.021   2.456   9.106  0.1395  0.0229 -0.2098
  149loPI   C2B 2382  -0.054   2.263   8.719  0.1833  0.0334 -0.1329
  149loPI   C3B 2383  -0.107   2.256   8.299 -0.2890 -0.3406  0.0148
  149loPI   C4B 2384  -0.297   2.336   7.844  0.0416  0.1126 -0.1205
  150loPI    C1 2385   2.689  16.649  10.150 -0.0364 -0.1384  0.1441
  150loPI    C2 2386   2.394  16.905  10.238  0.1060  0.1353 -0.1525
  150loPI    C3 2387   2.641  16.778  10.526 -0.0592  0.2120  0.0250
  150loPI   PO4 2388   2.613  16.585   9.890 -0.0885 -0.0306 -0.0301
  150loPI   GL1 2389   2.774  16.550   9.398 -0.0078 -0.2194  0.0147
  150loPI   GL2 2390   2.894  16.829   9.564  0.0848  0.0469  0.0223
  150loPI   C1A 2391   2.912  16.726   8.939 -0.1268 -0.2156 -0.3356
  150loPI   C2A 2392   3.144  16.876   8.557 -0.2090  0.1003  0.1107
  150loPI   C3A 2393   3.118  16.981   8.131  0.0546  0.1687 -0.3182
  150loPI   C4A 2394   2.927  17.192   7.805 -0.2211 -0.1655 -0.1624
  150loPI   C5A 2395   2.732  17.481   7.707 -0.2320 -0.0040  0.2263
  150loPI   C6A 2396   2.284  17.562   7.760 -0.1256 -0.1493  0.2611
  150loPI   C1B 2397   3.224  16.990   9.288 -0.0067  0.2491 -0.2306
  150loPI   C2B 2398   3.315  17.380   9.193 -0.2871  0.1723 -0.0485
  150loPI   C3B 2399   3.246  17.768   8.902 -0.1063  0.1442 -0.1190
  150loPI   C4B 2400   3.293  17.869   8.486  0.1043 -0.3067  0.2149
  151loPI    C1 2401   2.564   7.099   9.949  0.0855  0.0697  0.0094
  151loPI    C2 2402   2.482   7.190  10.329 -0.0167  0.1776 -0.0381
  151loPI    C3 2403   2.662   6.844  10.241 -0.1102  0.0936  0.0969
  151loPI   PO4 2404   2.390   7.114   9.826 -0.1603  0.0182 -0.1579
  151loPI   GL1 2405   2.409   7.229   9.441 -0.1949 -0.0377  0.0641
  151loPI   GL2 2406   2.653   7.040   9.337  0.1951 -0.1063  0.2211
  151loPI   C1A 2407   2.424   7.468   9.113  0.2534  0.1679  0.0431
  151loPI   C2A 2408   2.648   7.457   8.775  0.3583  0.3458  0.1242
  151loPI   C3A 2409   2.810   7.307   8.285  0.1128  0.0698  0.1141
  151loPI   C4A 2410   3.002   6.979   8.129 -0.2995 -0.1747 -0.0467
  151loPI   C5A 2411   3.028   6.677   7.781 -0.0360  0.1406  0.0068
  151loPI   C6A 2412   3.320   6.730   7.503  0.2422  0.3120 -0.1331
  151loPI   C1B 2413   2.685   6.986   8.903 -0.2303  0.1694  0.0094
  151loPI   C2B 2414   2.524   6.987   8.551  0.1003 -0.1463 -0.0641
  151loPI   C3B 2415   2.552   6.861   8.032 -0.4205 -0.1034 -0.3294
  151loPI   C4B 2416   2.314   6.581   7.793 -0.4529 -0.0657 -0.1758
  152loPI    C1 2417   6.059   9.425   9.757  0.0450  0.1109 -0.0625
  152loPI    C2 2418   5.771   9.304  10.006 -0.1419  0.1014 -0.2790
  152loPI    C3 2419   5.913   9.054   9.729  0.3580 -0.0260  0.0775
  152loPI   PO4 2420   5.988   9.700   9.774 -0.2266 -0.0336  0.1159
  152loPI   GL1 2421   5.883   9.890   9.426  0.1850 -0.2400  0.2366
  152loPI   GL2 2422   6.191  10.122   9.531  0.0150  0.2650 -0.2423
  152loPI   C1A 2423   5.741   9.700   8.920  0.0196  0.1120  0.1940
  152loPI   C2A 2424   5.405   9.432   8.678 -0.1991  0.0127 -0.0704
  152loPI   C3A 2425   4.959   9.518   8.429 -0.2848 -0.0174  0.1368
  152loPI   C4A 2426   4.733   9.854   8.129 -0.0964  0.0624  0.2215
  152loPI   C5A 2427   4.206   9.926   8.193 -0.2627  0.2712 -0.1586
  152loPI   C6A 2428   3.762   9.951   8.367 -0.1611  0.0333 -0.1977
  152loPI   C1B 2429   6.079  10.262   9.042  0.2238  0.0620  0.3207
  152loPI   C2B 2430   6.136  10.262   8.544 -0.5448 -0.0314 -0.0523
  152loPI   C3B 2431   6.057  10.447   8.067  0.0176  0.0389 -0.3799
  152loPI   C4B 2432   6.287  10.792   7.803  0.0441  0.1792  0.1093
  153loPI    C1 2433   0.997   6.949  10.335 -0.1367  0.0360  0.2272
  153loPI    C2 2434   0.820   6.592  10.301  0.3962 -0.2262  0.1132
  153loPI    C3 2435   0.964   6.712  10.655 -0.0245  0.0014  0.2133
  153loPI   PO4 2436   1.057   6.984  10.038 -0.0983 -0.0507 -0.0133
  153loPI   GL1 2437   1.331   6.994   9.736  0.0217 -0.0221 -0.0605
  153loPI   GL2 2438   1.341   6.651   9.694  0.2923  0.0902  0.1427
  153loPI   C1A 2439   1.099   6.860   9.358 -0.1990 -0.0659 -0.1113
  153loPI   C2A 2440   1.077   6.829   8.945  0.1903  0.1448 -0.2957
  153loPI   C3A 2441   1.024   6.656   8.489 -0.1374  0.0274 -0.0706
  153loPI   C4A 2442   1.001   6.543   8.037 -0.0023 -0.0026 -0.2464
  153loPI   C5A 2443   0.610   6.540   7.802 -0.1358 -0.2518  0.0908
  153loPI   C6A 2444   0.151   6.507   7.906  0.1063  0.0950  0.1891
  153loPI   C1B 2445   1.495   6.631   9.229 -0.1215 -0.0538  0.2676
  153loPI   C2B 2446   1.460   6.612   8.801 -0.1402 -0.1201 -0.2901
  153loPI   C3B 2447   1.466   6.341   8.379 -0.0215 -0.0761  0.1083
  153loPI   C4B 2448   1.446   6.214   7.906  0.0615  0.4151  0.1614
  154loPI    C1 2449   9.103   3.401  10.418 -0.0861  0.0157  0.0656
  154loPI    C2 2450   9.269   3.682  10.188  0.0927 -0.0698  0.0886
  154loPI    C3 2451   9.302   3.704  10.586  0.0690 -0.0996  0.0922
  154loPI   PO4 2452   8.828   3.388  10.331 -0.2340 -0.0285 -0.0253
  154loPI   GL1 2453   8.872   3.185   9.902  0.2421  0.1133 -0.1998
  154loPI   GL2 2454   9.026   3.521   9.815  0.0630  0.1642  0.0359
  154loPI   C1A 2455   8.449   3.239   9.650  0.1060  0.2427  0.0312
  154loPI   C2A 2456   8.400   3.290   9.242  0.1114  0.0277  0.0067
  154loPI   C3A 2457   8.117   3.391   9.003 -0.1127 -0.1430 -0.0431
  154loPI   C4A 2458   7.924   3.502   8.650  0.2883  0.3219 -0.0424
  154loPI   C5A 2459   7.700   3.382   8.223  0.0043  0.0816 -0.3240
  154loPI   C6A 2460   7.271   3.414   8.149 -0.0391  0.1590 -0.3032
  154loPI   C1B 2461   8.882   3.635   9.543  0.1468  0.3138 -0.1820
  154loPI   C2B 2462   8.894   3.620   9.105  0.0234  0.0513  0.2658
  154loPI   C3B 2463   8.629   3.666   8.766 -0.0051  0.0848  0.0728
  154loPI   C4B 2464   8.407   3.766   8.323 -0.4202  0.3137  0.1451
  155loPI    C1 2465   3.089  15.098  10.302 -0.3218 -0.0171 -0.1533
  155loPI    C2 2466   2.823  15.124  10.599 -0.0678 -0.1694  0.0922
  155loPI    C3 2467   3.127  15.383  10.579 -0.2647  0.0449 -0.2245
  155loPI   PO4 2468   2.941  15.044  10.098  0.1328 -0.0512 -0.3296
  155loPI   GL1 2469   2.805  14.719   9.865  0.0087  0.0904 -0.1316
  155loPI   GL2 2470   2.522  14.710   9.724 -0.1111  0.1879 -0.0184
  155loPI   C1A 2471   2.999  14.910   9.512 -0.0697  0.1386  0.0105
  155loPI   C2A 2472   3.101  15.067   9.096 -0.1124  0.0411 -0.3907
  155loPI   C3A 2473   3.527  14.981   9.092  0.1325 -0.1653 -0.2726
  155loPI   C4A 2474   3.769  14.776   8.929 -0.1597 -0.2834 -0.1494
  155loPI   C5A 2475   3.735  14.604   8.669 -0.1152 -0.1552 -0.0398
  155loPI   C6A 2476   3.720  14.585   8.161 -0.1408  0.0709 -0.0899
  155loPI   C1B 2477   2.757  14.582   9.290 -0.2199  0.1676 -0.1208
  155loPI   C2B 2478   2.710  14.655   8.883 -0.0686 -0.0636 -0.1773
  155loPI   C3B 2479   2.789  14.456   8.478 -0.0663 -0.3462  0.0046
  155loPI   C4B 2480   2.795  14.590   8.156 -0.2535 -0.0534  0.0672
  156loPI    C1 2481   1.075   0.670  10.950  0.1250 -0.0638  0.2051
  156loPI    C2 2482   1.082   0.318  11.141  0.1242 -0.1296  0.0850
  156loPI    C3 2483   1.238   0.643  11.314 -0.2030 -0.1095  0.3514
  156loPI   PO4 2484   1.171   0.568  10.714  0.1794  0.1292 -0.0007
  156loPI   GL1 2485   1.429   0.489  10.437  0.1036  0.1257 -0.0613
  156loPI   GL2 2486   1.412   0.320  10.173 -0.2874  0.1285 -0.2160
  156loPI   C1A 2487   1.183   0.773  10.036  0.4250  0.1361 -0.0041
  156loPI   C2A 2488   1.171   0.664   9.533  0.2118 -0.0065  0.2061
  156loPI   C3A 2489   1.148   0.524   9.053  0.1989  0.0113 -0.2815
  156loPI   C4A 2490   0.936   0.474   8.707 -0.0164  0.0710  0.2322
  156loPI   C5A 2491   0.775   0.278   8.358 -0.3628 -0.0771  0.0626
  156loPI   C6A 2492   1.118  -0.082   8.137 -0.1784  0.2717 -0.1116
  156loPI   C1B 2493   1.582   0.231   9.701  0.1737 -0.0845 -0.2013
  156loPI   C2B 2494   1.677   0.127   9.286  0.2351 -0.2647  0.0164
  156loPI   C3B 2495   1.718   0.148   8.811 -0.4757  0.0519  0.3642
  156loPI   C4B 2496   1.921   0.163   8.429 -0.1339  0.1627  0.2217
  157loPI    C1 2497  18.288   4.061   9.832 -0.1734  0.1557 -0.0063
  157loPI    C2 2498  18.144   3.728  10.000  0.2081  0.0544  0.1324
  157loPI    C3 2499  18.526   3.832  10.058  0.1703  0.3665 -0.1449
  157loPI   PO4 2500  18.276   4.048   9.606 -0.0598 -0.0718 -0.1966
  157loPI   GL1 2501  18.053   4.204   9.270  0.0645  0.0517  0.0638
  157loPI   GL2 2502  18.170   3.904   9.127  0.2864 -0.0256 -0.0169
  157loPI   C1A 2503  18.050   4.252   8.841  0.0848  0.2834 -0.0960
  157loPI   C2A 2504  18.208   4.127   8.507 -0.2398  0.0806 -0.1043
  157loPI   C3A 2505  18.407   4.265   8.133 -0.1780  0.0043  0.1264
  157loPI   C4A 2506  18.212   4.304   7.652 -0.0544 -0.3442 -0.1835
  157loPI   C5A 2507  18.060   4.653   7.380 -0.3748 -0.2349 -0.0704
  157loPI   C6A 2508  17.794   4.710   7.128 -0.0357 -0.2760 -0.2812
  157loPI   C1B 2509  18.207   3.628   8.804  0.0711 -0.1326  0.0242
  157loPI   C2B 2510  18.133   3.521   8.348 -0.1547  0.0335 -0.0443
  157loPI   C3B 2511  17.933   3.442   7.976 -0.1037 -0.2499  0.2420
  157loPI   C4B 2512  17.922   3.336   7.517  0.2321  0.0303  0.4939
  158loPI    C1 2513  13.041   5.204   9.859  0.1270 -0.0177 -0.1811
  158loPI    C2 2514  13.316   5.185  10.148 -0.0614  0.0601  0.0056
  158loPI    C3 2515  13.295   5.508   9.913 -0.0429  0.0879  0.0421
  158loPI   PO4 2516  13.044   5.106   9.659 -0.0745  0.2550  0.1638
  158loPI   GL1 2517  12.877   5.219   9.308 -0.0967 -0.1557  0.3319
  158loPI   GL2 2518  13.217   5.237   9.210  0.0457 -0.2660 -0.0007
  158loPI   C1A 2519  12.841   5.347   8.866  0.0959 -0.0472  0.4359
  158loPI   C2A 2520  12.798   5.479   8.447  0.3475 -0.1461 -0.0420
  158loPI   C3A 2521  12.770   5.558   7.939  0.1439  0.2307  0.0973
  158loPI   C4A 2522  12.656   5.700   7.533 -0.2400 -0.0896  0.1862
  158loPI   C5A 2523  12.536   5.759   7.073 -0.3085 -0.4468  0.0612
  158loPI   C6A 2524  12.684   5.565   6.744  0.0137 -0.0511  0.4282
  158loPI   C1B 2525  13.300   5.311   8.700 -0.0707  0.2374 -0.0523
  158loPI   C2B 2526  13.282   5.431   8.253 -0.1076  0.0573  0.0767
  158loPI   C3B 2527  13.514   5.313   7.831  0.1364 -0.0900 -0.0239
  158loPI   C4B 2528  13.612   5.228   7.420  0.0283 -0.2611 -0.1612
  159loPI    C1 2529   7.956  15.657  10.054  0.2119  0.0604  0.1045
  159loPI    C2 2530   8.203  15.952  10.162  0.1477  0.1019  0.1390
  159loPI    C3 2531   8.046  15.711  10.440  0.1125  0.1049  0.1219
  159loPI   PO4 2532   7.742  15.731   9.894  0.0569 -0.1545 -0.0556
  159loPI   GL1 2533   7.381  15.566   9.560  0.0458  0.1110  0.0824
  159loPI   GL2 2534   7.211  15.680   9.702  0.1690 -0.0448  0.0470
  159loPI   C1A 2535   7.200  15.617   9.074 -0.1196 -0.3527 -0.1839
  159loPI   C2A 2536   7.179  15.564   8.683 -0.1070 -0.0161  0.3126
  159loPI   C3A 2537   7.207  15.508   8.192 -0.0691 -0.0859 -0.5135
  159loPI   C4A 2538   6.953  15.560   7.774 -0.0372  0.1126  0.0908
  159loPI   C5A 2539   6.645  15.260   7.756  0.1347 -0.2156  0.0390
  159loPI   C6A 2540   6.241  15.377   7.799 -0.0982  0.0989 -0.0560
  159loPI   C1B 2541   6.865  15.757   9.424  0.3961  0.2900 -0.0552
  159loPI   C2B 2542   6.768  15.794   8.971  0.1599 -0.2310 -0.1960
  159loPI   C3B 2543   6.446  15.842   8.676  0.3221 -0.2556  0.1271
  159loPI   C4B 2544   6.279  15.879   8.275  0.0208 -0.1474 -0.0785
  160loPI    C1 2545  11.569  16.887   9.666  0.1730 -0.4448  0.0867
  160loPI    C2 2546  11.500  16.900  10.059  0.2141 -0.0515  0.0842
  160loPI    C3 2547  11.873  16.940   9.920  0.1875 -0.0912  0.0007
  160loPI   PO4 2548  11.281  17.040   9.589  0.0610 -0.0525  0.1240
  160loPI   GL1 2549  11.038  17.026   9.197 -0.0399 -0.2766 -0.1332
  160loPI   GL2 2550  11.208  16.733   9.208 -0.0896 -0.0703  0.0833
  160loPI   C1A 2551  11.194  17.019   8.807 -0.0504 -0.2666 -0.0158
  160loPI   C2A 2552  11.325  16.925   8.403  0.0292  0.0363 -0.0194
  160loPI   C3A 2553  11.647  16.855   8.044 -0.1939  0.1965 -0.1002
  160loPI   C4A 2554  11.922  16.702   7.811 -0.0973  0.1081 -0.0983
  160loPI   C5A 2555  12.311  16.849   7.484  0.0257 -0.1211 -0.2452
  160loPI   C6A 2556  12.579  17.116   7.169 -0.0621  0.3011 -0.1385
  160loPI   C1B 2557  11.492  16.635   8.851 -0.0337 -0.1855 -0.4798
  160loPI   C2B 2558  11.511  16.460   8.552  0.2625  0.0521  0.2263
  160loPI   C3B 2559  11.277  16.455   8.170  0.1039 -0.0550  0.0719
  160loPI   C4B 2560  11.155  16.837   7.909  0.2172  0.0682 -0.3306
  161loPI    C1 2561   4.620   1.844  10.909  0.3383 -0.0184  0.0913
  161loPI    C2 2562   4.738   1.539  11.139  0.1845 -0.0161  0.1750
  161loPI    C3 2563   4.427   1.765  11.250 -0.1464 -0.2610 -0.2267
  161loPI   PO4 2564   4.588   1.834  10.696 -0.1562  0.3868 -0.0863
  161loPI   GL1 2565   4.638   1.700  10.255  0.2432 -0.3808  0.1376
  161loPI   GL2 2566   4.875   1.653  10.025 -0.4494 -0.2271 -0.2405
  161loPI   C1A 2567   4.396   1.639   9.903 -0.2621 -0.0574 -0.0827
  161loPI   C2A 2568   4.431   1.504   9.557  0.0253 -0.0718  0.0152
  161loPI   C3A 2569   4.337   1.432   9.119  0.2677  0.2510 -0.0284
  161loPI   C4A 2570   4.391   1.411   8.666 -0.1321 -0.0931 -0.0301
  161loPI   C5A 2571   4.338   1.403   8.211 -0.1442  0.0841 -0.0012
  161loPI   C6A 2572   4.448   1.759   7.890 -0.0240 -0.2012 -0.3806
  161loPI   C1B 2573   5.029   1.517   9.562  0.1320 -0.0528 -0.0852
  161loPI   C2B 2574   5.111   1.539   9.157  0.2128  0.2757 -0.3044
  161loPI   C3B 2575   5.025   1.781   8.870  0.0850 -0.0137 -0.0477
  161loPI   C4B 2576   4.915   1.635   8.506 -0.1963 -0.2207 -0.2444
  162loPI    C1 2577   2.023  18.324  10.642  0.3256  0.0870 -0.1129
  162loPI    C2 2578   1.762  18.486  10.899  0.1951  0.0825 -0.2411
  162loPI    C3 2579   2.155  18.506  10.973  0.1615  0.1345 -0.0725
  162loPI   PO4 2580   1.997  18.413  10.461  0.1916  0.3378 -0.0513
  162loPI   GL1 2581   2.011  18.453  10.075  0.2085  0.0649  0.1968
  162loPI   GL2 2582   1.731  18.237  10.072 -0.0331  0.4147 -0.3113
  162loPI   C1A 2583   1.959  18.553   9.674  0.0171  0.1037 -0.3068
  162loPI   C2A 2584   1.978  18.442   9.177 -0.2053  0.2658  0.1791
  162loPI   C3A 2585   2.004  18.463   8.807  0.1689 -0.0765 -0.2898
  162loPI   C4A 2586   2.049  18.354   8.398  0.2193  0.1062 -0.4385
  162loPI   C5A 2587   2.379  18.001   8.277 -0.0887 -0.0584  0.0730
  162loPI   C6A 2588   2.683  17.667   8.153  0.3165  0.0738 -0.1554
  162loPI   C1B 2589   1.563  17.949   9.833  0.0962  0.0625  0.1920
  162loPI   C2B 2590   1.436  17.760   9.389  0.0815 -0.1281 -0.1244
  162loPI   C3B 2591   1.430  17.892   8.950 -0.1349  0.0595 -0.0092
  162loPI   C4B 2592   1.717  17.929   8.625  0.0568 -0.0093 -0.0272
  163loPI    C1 2593  11.582  17.418  10.009 -0.1269  0.0418  0.1186
  163loPI    C2 2594  11.205  17.293  10.048 -0.1520  0.0198 -0.1748
  163loPI    C3 2595  11.302  17.669  10.145 -0.2256 -0.0062  0.0048
  163loPI   PO4 2596  11.627  17.415   9.776 -0.1432  0.2142 -0.0259
  163loPI   GL1 2597  11.977  17.358   9.564  0.1815 -0.0719 -0.2064
  163loPI   GL2 2598  12.003  17.035   9.416  0.0365 -0.1099 -0.3349
  163loPI   C1A 2599  12.099  17.465   9.215 -0.2687 -0.2091  0.0046
  163loPI   C2A 2600  12.203  17.469   8.729  0.0021 -0.1111  0.1658
  163loPI   C3A 2601  12.268  17.529   8.294  0.0411 -0.0209  0.1656
  163loPI   C4A 2602  12.381  17.758   7.905 -0.2904  0.4206  0.2306
  163loPI   C5A 2603  12.514  18.157   7.726 -0.3073 -0.0096  0.0631
  163loPI   C6A 2604  12.846  18.420   7.516  0.3051  0.1237 -0.1023
  163loPI   C1B 2605  11.916  16.949   8.969  0.0114  0.3034 -0.2395
  163loPI   C2B 2606  11.965  16.974   8.481 -0.1437 -0.3492 -0.0215
  163loPI   C3B 2607  12.094  17.127   8.015  0.0732 -0.1533 -0.2062
  163loPI   C4B 2608  12.204  17.309   7.578 -0.1344 -0.0333 -0.2442
  164loPI    C1 2609  10.608   9.090   9.565 -0.0654  0.0187 -0.0100
  164loPI    C2 2610  10.867   8.787   9.530  0.0537  0.1399 -0.1988
  164loPI    C3 2611  10.927   9.070   9.807 -0.1920 -0.1361  0.1464
  164loPI   PO4 2612  10.588   9.212   9.324  0.0684  0.0997  0.3224
  164loPI   GL1 2613  10.683   9.414   8.927 -0.0695  0.3481  0.3767
  164loPI   GL2 2614  10.355   9.326   8.948 -0.1515 -0.1777  0.1322
  164loPI   C1A 2615  10.868   9.430   8.541 -0.0157  0.0468 -0.4718
  164loPI   C2A 2616  10.793   9.172   8.178 -0.0941 -0.1831  0.1489
  164loPI   C3A 2617  10.641   9.001   7.723  0.1121 -0.1522 -0.0374
  164loPI   C4A 2618  10.503   9.188   7.324 -0.1159 -0.0923 -0.1288
  164loPI   C5A 2619  10.496   9.220   6.936  0.0149  0.0506 -0.0630
  164loPI   C6A 2620  10.479   9.111   6.453 -0.0055  0.1935 -0.4815
  164loPI   C1B 2621  10.401   9.312   8.489 -0.0971 -0.1289 -0.1636
  164loPI   C2B 2622  10.365   9.426   8.167  0.1304 -0.2737 -0.3734
  164loPI   C3B 2623  10.232   9.386   7.723 -0.2372 -0.2359 -0.0241
  164loPI   C4B 2624  10.081   9.485   7.296  0.1219 -0.1243 -0.1668
  165loPI    C1 2625   6.962   7.430   9.759  0.0283  0.0070 -0.1277
  165loPI    C2 2626   7.082   7.330  10.127 -0.0257 -0.0963 -0.1377
  165loPI    C3 2627   6.808   7.108   9.939  0.1277 -0.1438 -0.3089
  165loPI   PO4 2628   7.016   7.701   9.680  0.2019 -0.1940  0.1367
  165loPI   GL1 2629   7.089   7.826   9.302  0.1350 -0.2988 -0.1237
  165loPI   GL2 2630   7.110   8.180   9.379  0.1413 -0.1543  0.0607
  165loPI   C1A 2631   7.159   7.625   8.927 -0.0865 -0.0084  0.3096
  165loPI   C2A 2632   7.240   7.355   8.621  0.0126  0.3318 -0.0629
  165loPI   C3A 2633   7.274   7.131   8.133 -0.1756 -0.0249  0.2327
  165loPI   C4A 2634   7.475   7.148   7.775  0.0947 -0.2523  0.2862
  165loPI   C5A 2635   7.338   7.390   7.397  0.2153  0.0842  0.4290
  165loPI   C6A 2636   7.497   7.756   7.275  0.2318  0.0972 -0.2825
  165loPI   C1B 2637   6.984   8.453   9.163 -0.0534 -0.2897 -0.0040
  165loPI   C2B 2638   7.315   8.613   8.895 -0.3810  0.1196 -0.1072
  165loPI   C3B 2639   7.415   8.599   8.577  0.1767  0.1593 -0.0247
  165loPI   C4B 2640   7.613   8.200   8.435 -0.2219 -0.1281 -0.0623
  166loPI    C1 2641   3.809  18.384  10.469 -0.0116  0.1980 -0.2335
  166loPI    C2 2642   3.472  18.578  10.377 -0.0134  0.1976 -0.2281
  166loPI    C3 2643   3.759  18.765  10.582 -0.0848  0.1426 -0.0764
  166loPI   PO4 2644   3.871  18.248  10.290  0.1158 -0.3548  0.2591
  166loPI   GL1 2645   3.743  18.459   9.990  0.0030  0.6259  0.0043
  166loPI   GL2 2646   4.005  18.422   9.794  0.1877  0.1988 -0.1562
  166loPI   C1A 2647   3.686  18.682   9.545 -0.1683  0.1546 -0.1138
  166loPI   C2A 2648   3.710  18.631   9.107  0.1614 -0.0327 -0.0443
  166loPI   C3A 2649   3.664  18.654   8.693  0.5513  0.0253  0.1558
  166loPI   C4A 2650   3.317  18.692   8.425  0.3790 -0.0093 -0.0209
  166loPI   C5A 2651   3.267  18.791   8.025 -0.3431  0.3940 -0.0039
  166loPI   C6A 2652   3.319  19.159   7.879 -0.4177  0.1020 -0.0019
  166loPI   C1B 2653   3.930  18.210   9.458 -0.2199  0.0471 -0.2427
  166loPI   C2B 2654   3.678  18.136   9.131  0.0073 -0.0167  0.1105
  166loPI   C3B 2655   3.555  18.193   8.778  0.1269  0.0950  0.0400
  166loPI   C4B 2656   3.555  18.238   8.294 -0.0230  0.2202  0.2032
  167loPI    C1 2657   9.830   0.282  10.575  0.0678  0.0527 -0.2483
  167loPI    C2 2658   9.935   0.255  10.960 -0.0040  0.0749 -0.2270
  167loPI    C3 2659  10.201   0.168  10.674 -0.0374 -0.2293 -0.1691
  167loPI   PO4 2660   9.578   0.380  10.587 -0.0616 -0.2241  0.0025
  167loPI   GL1 2661   9.389   0.447  10.121  0.0797  0.1031  0.0741
  167loPI   GL2 2662   9.195   0.626  10.321 -0.2683  0.0101  0.1783
  167loPI   C1A 2663   9.185   0.412   9.649 -0.2950  0.2499  0.0600
  167loPI   C2A 2664   9.096   0.379   9.246 -0.3492  0.0371  0.1276
  167loPI   C3A 2665   9.368   0.610   8.841 -0.0462 -0.1286  0.0223
  167loPI   C4A 2666   9.539   0.818   8.517  0.0330 -0.1272 -0.0004
  167loPI   C5A 2667   9.770   0.723   8.169 -0.3208  0.0542  0.0124
  167loPI   C6A 2668   9.722   0.655   7.747  0.0901  0.3268 -0.1552
  167loPI   C1B 2669   8.972   0.792  10.015  0.1105 -0.0970 -0.0103
  167loPI   C2B 2670   8.911   0.791   9.451  0.0953 -0.1355 -0.0601
  167loPI   C3B 2671   8.806   1.064   9.150 -0.1450 -0.0847  0.3575
  167loPI   C4B 2672   8.657   1.333   8.738 -0.0240 -0.0746  0.0280
  168loPI    C1 2673   5.652   1.632  10.720  0.1055  0.1542  0.0384
  168loPI    C2 2674   5.580   1.924  10.984  0.0189  0.0533  0.1276
  168loPI    C3 2675   5.377   1.580  11.006  0.1134 -0.0104  0.0173
  168loPI   PO4 2676   5.615   1.768  10.529  0.0003 -0.2798  0.2876
  168loPI   GL1 2677   5.856   1.783  10.173  0.0617  0.2237  0.1882
  168loPI   GL2 2678   6.051   1.592   9.950 -0.0491  0.0138 -0.1191
  168loPI   C1A 2679   5.800   2.020   9.743 -0.1681  0.2566 -0.0408
  168loPI   C2A 2680   5.738   2.087   9.332  0.2872  0.0115  0.2388
  168loPI   C3A 2681   5.813   1.934   8.939  0.0202 -0.2070  0.0325
  168loPI   C4A 2682   5.752   1.962   8.434  0.0653 -0.1328 -0.1761
  168loPI   C5A 2683   5.394   1.823   8.183 -0.3681  0.2265  0.1050
  168loPI   C6A 2684   4.994   1.828   7.953  0.2752 -0.2521 -0.1926
  168loPI   C1B 2685   6.037   1.604   9.560 -0.0319 -0.1571 -0.1825
  168loPI   C2B 2686   6.013   1.480   9.101 -0.1520 -0.0240 -0.0689
  168loPI   C3B 2687   6.194   1.215   8.873 -0.1838  0.2228 -0.0172
  168loPI   C4B 2688   6.466   0.876   8.606 -0.0106 -0.0201  0.2102
  169loPI    C1 2689   9.280  11.888  10.191 -0.0494 -0.0923  0.0866
  169loPI    C2 2690   9.474  11.691  10.480 -0.0805 -0.0527  0.1349
  169loPI    C3 2691   9.158  11.919  10.571 -0.1570 -0.1263  0.0551
  169loPI   PO4 2692   9.486  12.004   9.934 -0.1666  0.2205  0.3140
  169loPI   GL1 2693   9.564  11.937   9.455  0.1380  0.1641 -0.0321
  169loPI   GL2 2694   9.279  11.901   9.270 -0.1094  0.1092  0.0439
  169loPI   C1A 2695   9.511  12.286   9.116 -0.0627  0.0835  0.0193
  169loPI   C2A 2696   9.662  12.178   8.685 -0.1344  0.0409 -0.2126
  169loPI   C3A 2697   9.547  12.249   8.308  0.0201  0.1234 -0.1438
  169loPI   C4A 2698   9.609  12.141   7.848 -0.3957 -0.0773 -0.1647
  169loPI   C5A 2699   9.927  12.052   7.446  0.2010 -0.0004 -0.2307
  169loPI   C6A 2700  10.087  12.127   7.061 -0.3193  0.0621  0.0600
  169loPI   C1B 2701   9.180  11.867   8.813 -0.0864  0.1875  0.2246
  169loPI   C2B 2702   9.121  11.818   8.424 -0.0987  0.0563  0.0384
  169loPI   C3B 2703   9.288  11.839   8.042  0.1950  0.3665  0.4112
  169loPI   C4B 2704   9.304  11.679   7.578 -0.1679 -0.0318 -0.3429
  170loPI    C1 2705   9.563  13.179   9.992 -0.1626  0.0543  0.0058
  170loPI    C2 2706   9.627  13.439  10.289 -0.0620 -0.1298  0.1483
  170loPI    C3 2707   9.441  13.093  10.363  0.2079 -0.2985  0.0539
  170loPI   PO4 2708   9.487  13.200   9.752  0.1563 -0.2400  0.3429
  170loPI   GL1 2709   9.625  13.515   9.421 -0.1351 -0.0509  0.0922
  170loPI   GL2 2710   9.768  13.145   9.182 -0.2350 -0.1290  0.3136
  170loPI   C1A 2711   9.435  13.466   9.003 -0.3388  0.4247  0.0417
  170loPI   C2A 2712   9.418  13.468   8.540  0.2576  0.0339  0.1220
  170loPI   C3A 2713   9.572  13.695   8.211 -0.0225  0.0767  0.0738
  170loPI   C4A 2714   9.768  13.894   7.817  0.3431  0.3411 -0.3721
  170loPI   C5A 2715   9.797  14.114   7.456 -0.1114  0.3143  0.1608
  170loPI   C6A 2716   9.950  14.386   7.206 -0.1956 -0.0670  0.0453
  170loPI   C1B 2717   9.761  13.152   8.769  0.2455 -0.1557  0.3440
  170loPI   C2B 2718   9.683  13.115   8.218  0.0630  0.1163  0.0264
  170loPI   C3B 2719   9.613  12.749   7.997  0.2748 -0.0221 -0.2093
  170loPI   C4B 2720   9.476  12.660   7.555  0.0834  0.0901 -0.2129
  171loPI    C1 2721   2.475   4.222  10.575 -0.2446  0.0042  0.1446
  171loPI    C2 2722   2.815   4.419  10.501 -0.3038 -0.0271 -0.2294
  171loPI    C3 2723   2.827   4.040  10.628 -0.1966  0.0868  0.1104
  171loPI   PO4 2724   2.344   4.291  10.265  0.2803 -0.2182 -0.0087
  171loPI   GL1 2725   2.536   4.144   9.940  0.0198 -0.0155 -0.2866
  171loPI   GL2 2726   2.453   3.959   9.725  0.0012  0.2566  0.2032
  171loPI   C1A 2727   2.732   4.481   9.575  0.0839 -0.2532  0.1112
  171loPI   C2A 2728   2.772   4.518   9.083 -0.0653 -0.0343  0.0487
  171loPI   C3A 2729   2.860   4.582   8.737 -0.0575  0.2366  0.1722
  171loPI   C4A 2730   3.047   4.596   8.324 -0.0188  0.0196 -0.3188
  171loPI   C5A 2731   3.457   4.571   8.215 -0.1108 -0.2669  0.3349
  171loPI   C6A 2732   3.728   4.439   7.962 -0.2722 -0.4116 -0.1122
  171loPI   C1B 2733   2.467   4.161   9.285  0.0695 -0.0750 -0.0985
  171loPI   C2B 2734   2.498   3.966   8.934  0.1108 -0.0975  0.1933
  171loPI   C3B 2735   2.367   4.078   8.627 -0.3610 -0.1598  0.1866
  171loPI   C4B 2736   2.126   3.902   8.265  0.2425 -0.1353  0.1771
  172loPI    C1 2737  16.670   3.329  10.355 -0.0518 -0.1069  0.0558
  172loPI    C2 2738  16.485   3.682  10.384  0.3336  0.1697 -0.6179
  172loPI    C3 2739  16.859   3.641  10.520  0.1201 -0.1302 -0.0932
  172loPI   PO4 2740  16.570   3.220  10.059 -0.0458 -0.3891 -0.0712
  172loPI   GL1 2741  16.445   3.174   9.509  0.1603 -0.2030  0.0952
  172loPI   GL2 2742  16.266   2.893   9.552  0.3027 -0.5395 -0.2102
  172loPI   C1A 2743  16.443   3.146   9.092 -0.3628  0.1543  0.0655
  172loPI   C2A 2744  16.258   3.164   8.739  0.1082  0.0954 -0.1013
  172loPI   C3A 2745  16.284   3.240   8.352  0.0266  0.1811 -0.0578
  172loPI   C4A 2746  16.140   2.946   8.004  0.2318 -0.3625 -0.0047
  172loPI   C5A 2747  15.852   2.583   7.847  0.1253 -0.1996  0.1494
  172loPI   C6A 2748  15.806   2.290   7.621  0.0198  0.0165 -0.0735
  172loPI   C1B 2749  15.983   2.870   9.210  0.0008 -0.3133  0.0257
  172loPI   C2B 2750  15.681   2.954   8.915  0.3034 -0.0733  0.1455
  172loPI   C3B 2751  15.412   2.782   8.730  0.1869 -0.0546  0.0369
  172loPI   C4B 2752  15.291   2.372   8.867  0.0823 -0.0116  0.0183
  173loPI    C1 2753  18.508   1.160  10.165  0.1629  0.0668 -0.0263
  173loPI    C2 2754  18.492   1.054  10.550 -0.1003  0.0487 -0.0406
  173loPI    C3 2755  18.814   1.243  10.408 -0.1265  0.3278  0.2594
  173loPI   PO4 2756  18.283   1.319  10.187  0.4104 -0.1986  0.0499
  173loPI   GL1 2757  18.262   1.504   9.810  0.3790  0.4081  0.2969
  173loPI   GL2 2758  18.517   1.303   9.628  0.2006 -0.0533 -0.0496
  173loPI   C1A 2759  18.018   1.504   9.467  0.0039  0.4658 -0.1833
  173loPI   C2A 2760  18.076   1.365   9.076 -0.0418 -0.1663 -0.0762
  173loPI   C3A 2761  18.079   1.548   8.593  0.1991 -0.0382  0.1229
  173loPI   C4A 2762  17.966   1.404   8.164  0.0059  0.2006  0.0897
  173loPI   C5A 2763  17.786   1.474   7.733  0.1563 -0.0424 -0.1971
  173loPI   C6A 2764  18.013   1.416   7.350  0.5126 -0.0976  0.1436
  173loPI   C1B 2765  18.533   1.299   9.229  0.1828 -0.2486 -0.0308
  173loPI   C2B 2766  18.735   1.239   8.839  0.2540  0.1749 -0.4309
  173loPI   C3B 2767  18.517   1.334   8.469 -0.0578 -0.1385 -0.0818
  173loPI   C4B 2768  18.473   1.338   8.083  0.1033 -0.0409  0.0750
  174loPI    C1 2769   7.027   6.446  10.095  0.0615 -0.0362 -0.0167
  174loPI    C2 2770   6.836   6.351  10.434 -0.0886 -0.0065 -0.0919
  174loPI    C3 2771   6.969   6.062  10.191  0.0096 -0.0277 -0.0137
  174loPI   PO4 2772   6.897   6.598   9.975 -0.0264  0.1719 -0.2034
  174loPI   GL1 2773   7.003   6.669   9.537  0.0623  0.0043  0.2520
  174loPI   GL2 2774   6.985   7.028   9.439 -0.1932 -0.2125 -0.0107
  174loPI   C1A 2775   7.068   6.556   9.097 -0.1153 -0.0057  0.3958
  174loPI   C2A 2776   6.919   6.510   8.720  0.2000 -0.1129  0.0372
  174loPI   C3A 2777   7.031   6.652   8.212 -0.2117 -0.3293  0.1008
  174loPI   C4A 2778   6.909   6.780   7.796 -0.0525  0.1719  0.1362
  174loPI   C5A 2779   6.887   7.200   7.594 -0.1542 -0.3466  0.0535
  174loPI   C6A 2780   6.701   7.628   7.550 -0.2785 -0.1542 -0.0573
  174loPI   C1B 2781   7.103   7.085   9.017  0.2198  0.2325 -0.1238
  174loPI   C2B 2782   7.317   6.785   8.690 -0.0599  0.0315 -0.1257
  174loPI   C3B 2783   7.468   6.700   8.285 -0.1287  0.0292 -0.0523
  174loPI   C4B 2784   7.628   6.602   7.884  0.1768  0.0342 -0.1830
  175loPI    C1 2785   3.226   4.121  10.213  0.0890 -0.0037 -0.2144
  175loPI    C2 2786   3.078   4.362   9.929 -0.0645  0.2029  0.0365
  175loPI    C3 2787   3.244   4.518  10.258  0.1293 -0.0342  0.0539
  175loPI   PO4 2788   2.938   3.926  10.136 -0.1592 -0.0761 -0.0860
  175loPI   GL1 2789   2.903   3.776   9.671  0.0595  0.1487 -0.1816
  175loPI   GL2 2790   2.868   3.389   9.621 -0.0076  0.1359  0.1539
  175loPI   C1A 2791   2.705   3.752   9.297 -0.1557 -0.1017  0.1481
  175loPI   C2A 2792   2.854   3.647   8.972  0.2751 -0.1695 -0.1593
  175loPI   C3A 2793   2.768   3.640   8.596  0.1939  0.1716  0.2197
  175loPI   C4A 2794   2.800   3.339   8.307 -0.2330  0.2316  0.4039
  175loPI   C5A 2795   2.762   3.006   8.110  0.1024 -0.2403  0.3353
  175loPI   C6A 2796   2.818   2.758   7.749  0.1355  0.1905 -0.1335
  175loPI   C1B 2797   2.877   3.224   9.239 -0.1281  0.4644 -0.1418
  175loPI   C2B 2798   2.771   3.125   8.777 -0.2376 -0.0558  0.1025
  175loPI   C3B 2799   2.751   2.781   8.578  0.1875  0.0982  0.2520
  175loPI   C4B 2800   2.700   2.485   8.171  0.0262  0.1448 -0.2563
  176loPI    C1 2801  10.354   4.622   9.503  0.2522  0.0961 -0.0872
  176loPI    C2 2802  10.655   4.393   9.635  0.1477  0.1251  0.2075
  176loPI    C3 2803  10.393   4.246   9.372  0.2828  0.0219  0.1298
  176loPI   PO4 2804  10.523   4.890   9.441  0.1648  0.1731 -0.0349
  176loPI   GL1 2805  10.568   4.843   9.041  0.0496 -0.1800 -0.0657
  176loPI   GL2 2806  10.735   4.500   9.109 -0.0226 -0.0525 -0.1930
  176loPI   C1A 2807  10.500   4.755   8.669  0.1702  0.3361 -0.1026
  176loPI   C2A 2808  10.439   4.612   8.286  0.0711  0.1521 -0.1212
  176loPI   C3A 2809  10.276   4.334   7.974  0.3740 -0.1529  0.1425
  176loPI   C4A 2810   9.984   4.396   7.592 -0.0994  0.2260  0.0487
  176loPI   C5A 2811   9.792   4.216   7.228  0.1644 -0.1092 -0.0437
  176loPI   C6A 2812   9.630   4.316   6.905  0.0100 -0.4117 -0.1615
  176loPI   C1B 2813  10.944   4.524   8.679  0.3270 -0.1872 -0.0607
  176loPI   C2B 2814  10.916   4.480   8.292  0.2252 -0.1433 -0.1702
  176loPI   C3B 2815  10.756   4.426   7.886  0.3536  0.0280 -0.2484
  176loPI   C4B 2816  10.474   4.559   7.499  0.1983  0.3692 -0.0981
  177loPI    C1 2817  17.984  17.247  10.429  0.0638 -0.1934 -0.3034
  177loPI    C2 2818  18.039  16.940  10.680  0.0291  0.0357 -0.0094
  177loPI    C3 2819  18.104  17.314  10.805 -0.1057  0.1626 -0.3093
  177loPI   PO4 2820  18.078  17.171  10.235  0.0241  0.2139 -0.1645
  177loPI   GL1 2821  18.112  17.078   9.797 -0.2174 -0.0671 -0.0624
  177loPI   GL2 2822  18.145  16.749   9.838 -0.2649  0.4328 -0.2020
  177loPI   C1A 2823  18.033  17.205   9.393 -0.2855 -0.1793  0.1798
  177loPI   C2A 2824  18.049  17.241   9.058 -0.1554 -0.1038 -0.1829
  177loPI   C3A 2825  17.981  17.107   8.667  0.0718 -0.4014 -0.0922
  177loPI   C4A 2826  17.808  17.139   8.273  0.2007 -0.0902 -0.3139
  177loPI   C5A 2827  17.895  16.931   7.876 -0.0664 -0.0127  0.0198
  177loPI   C6A 2828  17.832  16.932   7.451  0.0693  0.0945  0.0661
  177loPI   C1B 2829  18.189  16.659   9.371  0.0108  0.1091  0.1218
  177loPI   C2B 2830  18.198  16.752   8.923  0.5132 -0.1613  0.5364
  177loPI   C3B 2831  18.259  16.810   8.409 -0.4260  0.1047  0.2057
  177loPI   C4B 2832  18.369  17.034   8.029  0.0797 -0.1212 -0.1313
  178loPI    C1 2833  13.972   6.160  10.201  0.1625  0.2802 -0.0658
  178loPI    C2 2834  13.829   6.523  10.292 -0.1616  0.0885  0.2131
  178loPI    C3 2835  14.012   6.303  10.572  0.3030  0.1522 -0.0307
  178loPI   PO4 2836  14.065   6.248   9.993 -0.1133 -0.0259  0.1450
  178loPI   GL1 2837  14.339   6.324   9.650 -0.2970  0.1905  0.1552
  178loPI   GL2 2838  14.283   6.604   9.475 -0.1318 -0.1036  0.0852
  178loPI   C1A 2839  14.302   6.066   9.270 -0.2360 -0.0485 -0.0758
  178loPI   C2A 2840  14.040   6.103   8.850  0.0469  0.2686 -0.4027
  178loPI   C3A 2841  13.645   6.091   8.637  0.1684  0.1415 -0.1196
  178loPI   C4A 2842  13.605   5.966   8.168  0.0636 -0.0371  0.0150
  178loPI   C5A 2843  13.959   5.710   8.014  0.0917  0.0484  0.0766
  178loPI   C6A 2844  14.053   5.375   7.737 -0.0765 -0.0372 -0.1149
  178loPI   C1B 2845  14.264   6.525   9.020 -0.0100  0.1085  0.2280
  178loPI   C2B 2846  14.012   6.602   8.795  0.2161  0.0231 -0.1463
  178loPI   C3B 2847  13.891   6.493   8.416  0.2778  0.0162  0.0079
  178loPI   C4B 2848  13.607   6.579   8.054 -0.3014  0.1117  0.1092
  179loPI    C1 2849  11.614   2.007  10.248  0.0821 -0.1259  0.1444
  179loPI    C2 2850  11.377   1.713  10.380 -0.2207  0.1071  0.1315
  179loPI    C3 2851  11.729   1.782  10.558 -0.1304 -0.2814  0.1126
  179loPI   PO4 2852  11.570   1.940   9.971  0.1503 -0.1337 -0.0409
  179loPI   GL1 2853  11.288   2.059   9.572 -0.2477  0.0301 -0.0042
  179loPI   GL2 2854  11.178   2.345   9.519 -0.1027 -0.2743 -0.1108
  179loPI   C1A 2855  11.411   1.829   9.397  0.0483 -0.3298 -0.1003
  179loPI   C2A 2856  11.263   1.698   8.939  0.4704  0.2189 -0.3258
  179loPI   C3A 2857  11.264   1.679   8.453  0.1379 -0.2534 -0.0267
  179loPI   C4A 2858  10.863   1.679   8.057 -0.2451 -0.0555  0.1389
  179loPI   C5A 2859  10.482   1.869   7.872  0.2628  0.1984 -0.0051
  179loPI   C6A 2860  10.057   2.009   7.836 -0.0358 -0.3225 -0.0392
  179loPI   C1B 2861  11.577   2.316   9.241  0.0484 -0.0783  0.1707
  179loPI   C2B 2862  11.842   2.405   8.892  0.1202  0.0009 -0.0367
  179loPI   C3B 2863  11.763   2.299   8.534 -0.2023 -0.1648  0.0281
  179loPI   C4B 2864  11.419   2.386   8.142  0.2127  0.3299  0.0172
  180loPI    C1 2865   0.874   8.751   9.969 -0.0473 -0.1926 -0.0332
  180loPI    C2 2866   0.799   8.913  10.327  0.1240  0.0259 -0.0936
  180loPI    C3 2867   0.749   8.520  10.271 -0.4364  0.0719  0.0161
  180loPI   PO4 2868   0.740   8.951   9.769 -0.0587  0.0586 -0.3912
  180loPI   GL1 2869   0.750   9.140   9.304  0.1733  0.1117 -0.1452
  180loPI   GL2 2870   0.450   8.997   9.241 -0.0396 -0.1332  0.2795
  180loPI   C1A 2871   0.771   8.835   8.862 -0.0219  0.0185  0.0902
  180loPI   C2A 2872   0.739   8.777   8.499 -0.1219  0.0193 -0.1120
  180loPI   C3A 2873   0.796   8.840   8.077 -0.0398 -0.0749  0.0804
  180loPI   C4A 2874   0.951   8.515   7.820 -0.0277 -0.1788 -0.0796
  180loPI   C5A 2875   0.704   8.232   7.613  0.2283  0.3485 -0.1854
  180loPI   C6A 2876   0.421   7.787   7.664  0.2080  0.0043 -0.1000
  180loPI   C1B 2877   0.113   9.009   8.954 -0.1292  0.1217  0.4364
  180loPI   C2B 2878   0.098   8.951   8.537  0.0730  0.3271  0.3241
  180loPI   C3B 2879  -0.081   8.990   8.130  0.0470 -0.0002  0.4788
  180loPI   C4B 2880   0.034   9.047   7.690 -0.1238  0.2007 -0.2402
  181loPI    C1 2881   5.982  10.582  10.126  0.2351  0.3329  0.4162
  181loPI    C2 2882   5.584  10.547  10.155  0.1891  0.1858 -0.2385
  181loPI    C3 2883   5.821  10.353  10.412 -0.1578  0.0536 -0.0115
  181loPI   PO4 2884   6.052  10.591   9.913 -0.1773  0.0070 -0.2119
  181loPI   GL1 2885   5.916  10.581   9.531  0.1776 -0.2724 -0.0600
  181loPI   GL2 2886   5.653  10.493   9.583 -0.0025  0.1723 -0.2684
  181loPI   C1A 2887   5.851  10.681   9.124  0.1376  0.0180  0.1665
  181loPI   C2A 2888   5.738  10.773   8.770  0.2091  0.0898  0.1062
  181loPI   C3A 2889   5.739  10.553   8.446 -0.0991  0.1305 -0.1046
  181loPI   C4A 2890   5.615  10.252   8.135  0.1200 -0.1824 -0.2267
  181loPI   C5A 2891   5.491   9.910   7.712  0.1689 -0.0867 -0.1230
  181loPI   C6A 2892   5.295   9.558   7.419 -0.1948  0.1922 -0.3458
  181loPI   C1B 2893   5.579  10.239   9.248 -0.5036  0.1770 -0.1066
  181loPI   C2B 2894   5.656  10.164   8.750 -0.1616 -0.3220  0.1412
  181loPI   C3B 2895   5.848   9.863   8.394 -0.2423  0.0617 -0.0452
  181loPI   C4B 2896   5.667   9.563   8.159 -0.0389 -0.0982 -0.1783
  182loPI    C1 2897  10.611   0.416  10.542 -0.0472 -0.0769 -0.2015
  182loPI    C2 2898  10.607   0.073  10.336 -0.1977 -0.1437 -0.0891
  182loPI    C3 2899  10.707   0.073  10.724 -0.0145 -0.0328 -0.1353
  182loPI   PO4 2900  10.375   0.576  10.447 -0.1224 -0.2491  0.1724
  182loPI   GL1 2901  10.352   0.476   9.990 -0.1186 -0.1332  0.1488
  182loPI   GL2 2902  10.084   0.717   9.811 -0.1800  0.1072 -0.4736
  182loPI   C1A 2903  10.541   0.370   9.541  0.0639  0.0326  0.1057
  182loPI   C2A 2904  10.447   0.407   9.132 -0.1695  0.0242  0.0243
  182loPI   C3A 2905  10.157   0.272   8.774  0.1730  0.2348 -0.2350
  182loPI   C4A 2906  10.049  -0.024   8.380 -0.4861  0.0469 -0.1918
  182loPI   C5A 2907   9.903  -0.238   8.047 -0.1185  0.0795  0.4183
  182loPI   C6A 2908   9.835  -0.420   7.704 -0.0174  0.3012 -0.1844
  182loPI   C1B 2909   9.892   0.572   9.383 -0.1304 -0.0049 -0.0235
  182loPI   C2B 2910   9.838   0.675   8.929  0.2195 -0.0681  0.2850
  182loPI   C3B 2911  10.104   0.884   8.775 -0.3151  0.1448 -0.1630
  182loPI   C4B 2912  10.124   1.162   8.484  0.0252 -0.1873 -0.2137
  183loPI    C1 2913  17.070   1.685  10.110 -0.0179 -0.0553  0.1270
  183loPI    C2 2914  17.097   1.783  10.497  0.2668 -0.1192  0.1259
  183loPI    C3 2915  17.052   2.069  10.221  0.0014 -0.0778  0.2087
  183loPI   PO4 2916  17.238   1.369  10.064 -0.3722 -0.1033 -0.2438
  183loPI   GL1 2917  17.199   1.139   9.728 -0.1085 -0.0431  0.3415
  183loPI   GL2 2918  17.560   1.122   9.777  0.0792 -0.1948  0.1668
  183loPI   C1A 2919  17.152   1.014   9.347  0.1816 -0.2987  0.0110
  183loPI   C2A 2920  17.108   0.997   8.911  0.0549  0.1869  0.0679
  183loPI   C3A 2921  17.008   1.074   8.418 -0.0006  0.3428  0.1599
  183loPI   C4A 2922  17.118   1.138   7.947 -0.3692 -0.1602  0.0802
  183loPI   C5A 2923  17.306   1.305   7.659 -0.2162 -0.1869 -0.0662
  183loPI   C6A 2924  17.303   1.651   7.360  0.0084 -0.2090  0.2198
  183loPI   C1B 2925  17.701   1.034   9.412  0.1110  0.0081  0.0529
  183loPI   C2B 2926  17.715   1.020   8.963 -0.2107  0.3470  0.0228
  183loPI   C3B 2927  17.661   1.153   8.514  0.3932 -0.2819 -0.1773
  183loPI   C4B 2928  17.638   1.003   8.003 -0.1364  0.1933  0.2435
  184loPI    C1 2929  10.290  10.939   9.675  0.4237  0.1577 -0.0301
  184loPI    C2 2930  10.545  10.781   9.939  0.0723  0.0091  0.2292
  184loPI    C3 2931  10.197  10.933  10.064 -0.0623  0.0164 -0.1416
  184loPI   PO4 2932  10.317  10.747   9.475  0.0162 -0.1395 -0.3428
  184loPI   GL1 2933  10.194  10.619   8.961 -0.0454 -0.3257 -0.0898
  184loPI   GL2 2934  10.033  10.866   9.130  0.1269  0.2734 -0.1198
  184loPI   C1A 2935  10.144  10.916   8.537 -0.2174  0.1805 -0.2086
  184loPI   C2A 2936  10.325  11.109   8.205 -0.0049  0.2581 -0.1222
  184loPI   C3A 2937  10.107  11.137   7.801 -0.2535  0.2980  0.0503
  184loPI   C4A 2938  10.182  11.159   7.401 -0.0208 -0.3312 -0.1631
  184loPI   C5A 2939  10.368  10.947   7.030 -0.0988 -0.1810 -0.1865
  184loPI   C6A 2940  10.631  11.087   6.756 -0.2122  0.0907  0.0588
  184loPI   C1B 2941  10.194  11.228   8.885  0.0166 -0.0485  0.1118
  184loPI   C2B 2942  10.141  11.522   8.433 -0.1004 -0.2546 -0.1663
  184loPI   C3B 2943  10.288  11.601   8.006 -0.1406  0.1460 -0.1157
  184loPI   C4B 2944  10.343  11.629   7.565 -0.0832 -0.2895  0.1574
  185loPI    C1 2945  18.395  12.428  10.522  0.3497 -0.0296 -0.1857
  185loPI    C2 2946  18.417  12.057  10.669  0.0784  0.0378  0.0319
  185loPI    C3 2947  18.093  12.281  10.738  0.2633  0.3358 -0.0514
  185loPI   PO4 2948  18.368  12.491  10.203 -0.1750  0.0988 -0.1429
  185loPI   GL1 2949  18.254  12.837   9.963 -0.0706 -0.1975  0.0342
  185loPI   GL2 2950  18.020  12.746   9.852 -0.0410 -0.4928  0.0978
  185loPI   C1A 2951  18.476  12.804   9.532  0.1485  0.2634 -0.4236
  185loPI   C2A 2952  18.558  12.885   9.165  0.1989 -0.1441  0.1538
  185loPI   C3A 2953  18.736  12.840   8.714 -0.1716 -0.0159 -0.1335
  185loPI   C4A 2954  18.895  12.939   8.293 -0.0651  0.2163 -0.0881
  185loPI   C5A 2955  18.596  12.987   8.033 -0.0510  0.0734 -0.0737
  185loPI   C6A 2956  18.332  12.886   7.827  0.5277 -0.0214 -0.1058
  185loPI   C1B 2957  17.920  12.629   9.390 -0.0495  0.2968 -0.2534
  185loPI   C2B 2958  17.866  12.275   9.121  0.3451  0.3482 -0.1465
  185loPI   C3B 2959  17.929  11.979   8.721  0.0568  0.1798  0.4578
  185loPI   C4B 2960  18.249  12.108   8.496 -0.3623  0.1398 -0.0549
  186loPI    C1 2961  18.667  14.291  10.626 -0.2579 -0.2370  0.2064
  186loPI    C2 2962  18.391  14.528  10.792 -0.1618 -0.0473  0.0992
  186loPI    C3 2963  18.687  14.379  11.016 -0.0564  0.1733  0.1093
  186loPI   PO4 2964  18.673  14.402  10.391  0.1036  0.0287  0.0080
  186loPI   GL1 2965  18.537  14.476   9.988 -0.2028  0.1673 -0.0590
  186loPI   GL2 2966  18.425  14.814   9.829  0.2494 -0.1928  0.0032
  186loPI   C1A 2967  18.421  14.376   9.534  0.1475 -0.4208  0.0145
  186loPI   C2A 2968  18.401  14.502   9.218  0.0886  0.2529 -0.1568
  186loPI   C3A 2969  18.305  14.598   8.732 -0.0814 -0.0022 -0.2415
  186loPI   C4A 2970  18.173  14.560   8.237  0.3880  0.1796  0.4431
  186loPI   C5A 2971  18.404  14.514   7.829  0.2243  0.0210  0.0982
  186loPI   C6A 2972  18.675  14.653   7.570 -0.1316 -0.0319  0.2089
  186loPI   C1B 2973  18.487  15.042   9.428 -0.0359  0.5173  0.0980
  186loPI   C2B 2974  18.524  14.975   9.064 -0.0789 -0.1465 -0.3096
  186loPI   C3B 2975  18.545  15.016   8.630  0.1156  0.1985 -0.4740
  186loPI   C4B 2976  18.641  14.750   8.386 -0.2364  0.3198 -0.0194
  187loPI    C1 2977   1.648  16.567  10.421 -0.2180 -0.0868 -0.0685
  187loPI    C2 2978   1.741  16.797  10.735  0.0166  0.0732 -0.2518
  187loPI    C3 2979   1.701  16.402  10.781  0.1978  0.0767 -0.0490
  187loPI   PO4 2980   1.664  16.689  10.229 -0.0552  0.1755 -0.0303
  187loPI   GL1 2981   1.496  16.874   9.856  0.0247  0.3381 -0.1674
  187loPI   GL2 2982   1.706  16.621   9.720 -0.2713  0.0574  0.1857
  187loPI   C1A 2983   1.399  17.280   9.594 -0.2177  0.1181 -0.2998
  187loPI   C2A 2984   1.340  17.267   9.209 -0.2491 -0.1719 -0.3218
  187loPI   C3A 2985   1.489  17.285   8.739  0.0698 -0.0840 -0.0334
  187loPI   C4A 2986   1.446  17.507   8.489  0.1643 -0.0976 -0.2517
  187loPI   C5A 2987   1.690  17.582   8.163 -0.3872 -0.0161 -0.0877
  187loPI   C6A 2988   1.805  17.716   7.781 -0.0578  0.1551  0.0061
  187loPI   C1B 2989   1.536  16.791   9.357  0.0667  0.4417 -0.1976
  187loPI   C2B 2990   1.518  16.825   8.925  0.1052 -0.1226 -0.0928
  187loPI   C3B 2991   1.640  16.876   8.579 -0.0276 -0.0098  0.1949
  187loPI   C4B 2992   1.656  17.090   8.216  0.0443 -0.2444  0.0837
  188loPI    C1 2993   5.250   0.345  10.491  0.2600 -0.0092 -0.1117
  188loPI    C2 2994   4.998   0.602  10.665  0.1741 -0.1366 -0.0465
  188loPI    C3 2995   5.382   0.701  10.617  0.0959  0.0914 -0.2201
  188loPI   PO4 2996   5.172   0.154  10.272  0.1436 -0.3223  0.2352
  188loPI   GL1 2997   5.432   0.235  10.005  0.2468 -0.2219 -0.0216
  188loPI   GL2 2998   5.498  -0.079   9.902 -0.0113 -0.1084 -0.0857
  188loPI   C1A 2999   5.697   0.382   9.592  0.1053 -0.0049 -0.1914
  188loPI   C2A 3000   5.847   0.409   9.268  0.2053  0.0886  0.0008
  188loPI   C3A 3001   5.858   0.272   8.906  0.0448 -0.0976  0.1321
  188loPI   C4A 3002   5.701   0.079   8.500 -0.1902 -0.0531 -0.0758
  188loPI   C5A 3003   5.530  -0.066   7.935 -0.1865 -0.2444 -0.0286
  188loPI   C6A 3004   5.306  -0.352   7.687 -0.0057  0.0785 -0.1348
  188loPI   C1B 3005   5.286  -0.125   9.477  0.1602  0.0313 -0.1732
  188loPI   C2B 3006   5.321   0.074   9.048 -0.1446  0.0316  0.0541
  188loPI   C3B 3007   5.247   0.113   8.570 -0.0547  0.2512 -0.0045
  188loPI   C4B 3008   5.372   0.289   8.262  0.0298 -0.4451  0.3229
  189loPI    C1 3009  12.208   1.551  10.376  0.0630 -0.0913  0.1514
  189loPI    C2 3010  12.276   1.158  10.342 -0.0368 -0.1051  0.1060
  189loPI    C3 3011  12.490   1.377  10.600 -0.1176 -0.2261  0.2778
  189loPI   PO4 3012  12.208   1.644  10.110  0.0197 -0.3903  0.1525
  189loPI   GL1 3013  11.939   1.668   9.804 -0.2660  0.4081  0.2238
  189loPI   GL2 3014  12.005   1.908   9.585  0.1098  0.1338 -0.3223
  189loPI   C1A 3015  11.777   1.491   9.462 -0.0816  0.3267 -0.0437
  189loPI   C2A 3016  11.666   1.297   9.047 -0.0855  0.0186  0.1844
  189loPI   C3A 3017  11.646   1.392   8.632 -0.1225 -0.2369 -0.1133
  189loPI   C4A 3018  11.655   1.266   8.247  0.2844 -0.1546  0.2352
  189loPI   C5A 3019  11.769   1.338   7.929  0.1613 -0.2035  0.0462
  189loPI   C6A 3020  12.115   1.403   7.686  0.2298 -0.0087  0.1505
  189loPI   C1B 3021  11.974   1.981   9.206 -0.0779  0.0018 -0.1706
  189loPI   C2B 3022  11.808   1.894   8.801 -0.1400 -0.1948  0.1581
  189loPI   C3B 3023  11.671   1.824   8.275  0.0327 -0.1909  0.0439
  189loPI   C4B 3024  11.353   1.662   7.936 -0.0964 -0.1936 -0.0173
  190loPI    C1 3025   9.973   5.918   9.774  0.0862 -0.0696  0.0111
  190loPI    C2 3026   9.644   5.762   9.608  0.1521  0.0567 -0.2436
  190loPI    C3 3027   9.859   5.546   9.868 -0.2693  0.0635  0.1226
  190loPI   PO4 3028  10.013   6.105   9.485 -0.2705  0.0544 -0.2482
  190loPI   GL1 3029  10.223   6.117   9.223 -0.0371 -0.0804  0.0551
  190loPI   GL2 3030  10.056   6.500   9.210  0.0228  0.2538 -0.0635
  190loPI   C1A 3031  10.226   5.918   8.816  0.1132  0.0025 -0.0450
  190loPI   C2A 3032   9.976   5.696   8.382 -0.3003  0.1163 -0.0833
  190loPI   C3A 3033   9.738   5.601   8.029  0.0402  0.1938 -0.0565
  190loPI   C4A 3034   9.508   5.586   7.733  0.1394 -0.0393  0.3025
  190loPI   C5A 3035   9.123   5.791   7.562  0.1377 -0.0146  0.0553
  190loPI   C6A 3036   8.716   5.591   7.613  0.0622  0.0021 -0.1810
  190loPI   C1B 3037   9.769   6.425   8.852 -0.2679  0.0459 -0.1596
  190loPI   C2B 3038   9.802   6.167   8.558  0.0899 -0.1769 -0.1403
  190loPI   C3B 3039   9.829   6.190   8.230  0.0684  0.0024 -0.1245
  190loPI   C4B 3040   9.717   6.146   7.822  0.4718 -0.1654  0.1676
  191loPI    C1 3041  10.123   8.197   9.825  0.1703  0.0713  0.2519
  191loPI    C2 3042   9.884   8.494   9.945 -0.1389 -0.1025  0.0806
  191loPI    C3 3043  10.229   8.424  10.136 -0.0721  0.3487  0.1360
  191loPI   PO4 3044  10.161   8.254   9.543  0.1132  0.2601  0.2637
  191loPI   GL1 3045  10.496   8.515   9.229  0.0171 -0.3831  0.2497
  191loPI   GL2 3046  10.696   8.734   9.039 -0.0004  0.1523 -0.1186
  191loPI   C1A 3047  10.579   8.341   8.705 -0.0156  0.2049  0.1511
  191loPI   C2A 3048  10.691   7.992   8.456 -0.1610 -0.3283  0.1051
  191loPI   C3A 3049  10.693   7.740   8.145  0.1515  0.2440  0.2892
  191loPI   C4A 3050  10.929   7.663   7.948 -0.2845  0.1010  0.2193
  191loPI   C5A 3051  11.138   7.737   7.606 -0.0629 -0.0431  0.4555
  191loPI   C6A 3052  11.129   7.845   7.230  0.1375 -0.0222 -0.1923
  191loPI   C1B 3053  10.400   8.805   8.642  0.3418 -0.1754  0.1138
  191loPI   C2B 3054  10.403   8.833   8.231  0.1168  0.2746  0.0255
  191loPI   C3B 3055  10.531   8.581   7.829 -0.1394  0.1408 -0.4968
  191loPI   C4B 3056  10.629   8.656   7.396 -0.0153 -0.4819  0.2147
  192loPI    C1 3057   5.757   4.158  10.608  0.0210 -0.0384  0.0147
  192loPI    C2 3058   5.809   3.915  10.922 -0.1255  0.2149  0.2392
  192loPI    C3 3059   5.477   4.137  10.893 -0.2923 -0.0842 -0.2889
  192loPI   PO4 3060   5.935   4.091  10.453  0.1584 -0.0506  0.0206
  192loPI   GL1 3061   6.198   3.903  10.132 -0.2417  0.2945  0.0430
  192loPI   GL2 3062   5.825   3.988   9.999 -0.1894 -0.0362  0.1026
  192loPI   C1A 3063   6.234   4.019   9.689  0.1057 -0.2369 -0.0512
  192loPI   C2A 3064   5.969   3.988   9.314  0.1039  0.3075  0.1730
  192loPI   C3A 3065   5.759   3.899   8.860 -0.0660 -0.0693  0.1017
  192loPI   C4A 3066   5.818   4.145   8.495  0.0208  0.0334  0.0691
  192loPI   C5A 3067   6.091   4.005   8.205  0.1370  0.1502 -0.2199
  192loPI   C6A 3068   6.035   3.635   7.970  0.2835  0.4120 -0.3033
  192loPI   C1B 3069   5.544   3.974   9.691 -0.3323  0.1685  0.1319
  192loPI   C2B 3070   5.418   3.975   9.273  0.0821  0.1935  0.3839
  192loPI   C3B 3071   5.213   3.940   8.841  0.0444  0.1431 -0.4755
  192loPI   C4B 3072   5.074   3.769   8.490 -0.0605 -0.1355  0.0864
  193loPI    C1 3073  14.387  10.583  10.238 -0.0306 -0.1257  0.1577
  193loPI    C2 3074  14.147  10.380  10.485 -0.0125 -0.1205  0.1797
  193loPI    C3 3075  14.534  10.426  10.575 -0.0398  0.0180  0.2290
  193loPI   PO4 3076  14.194  10.779  10.097 -0.2391 -0.1834  0.2598
  193loPI   GL1 3077  14.096  10.891   9.764  0.0054  0.2657 -0.0284
  193loPI   GL2 3078  13.899  11.087   9.523  0.6757  0.1384 -0.3195
  193loPI   C1A 3079  14.136  10.661   9.259 -0.0366 -0.0687  0.0367
  193loPI   C2A 3080  13.840  10.531   8.895 -0.0827 -0.0536 -0.1088
  193loPI   C3A 3081  13.903  10.670   8.423 -0.3882  0.2252  0.1061
  193loPI   C4A 3082  14.060  10.599   8.038  0.0647 -0.0626 -0.2735
  193loPI   C5A 3083  14.166  10.279   7.685 -0.3618 -0.0956 -0.2048
  193loPI   C6A 3084  14.187   9.883   7.758  0.0134 -0.0614  0.0030
  193loPI   C1B 3085  14.156  11.297   9.245 -0.3746 -0.0152  0.0969
  193loPI   C2B 3086  14.302  11.329   8.920 -0.0287 -0.0987  0.0416
  193loPI   C3B 3087  14.176  11.258   8.547 -0.0036  0.0790  0.0576
  193loPI   C4B 3088  13.753  11.154   8.497 -0.0413 -0.3357  0.3297
  194loPI    C1 3089   7.980  16.793  10.365  0.2369  0.1811  0.0301
  194loPI    C2 3090   7.965  17.041  10.678 -0.0883  0.1253  0.0623
  194loPI    C3 3091   7.933  16.647  10.734  0.2044  0.0888 -0.0103
  194loPI   PO4 3092   8.212  16.946  10.179  0.2275  0.3431  0.1860
  194loPI   GL1 3093   7.970  16.999   9.871 -0.0732  0.0322  0.1302
  194loPI   GL2 3094   7.693  17.246   9.708  0.2946  0.1130 -0.0676
  194loPI   C1A 3095   8.150  17.258   9.481  0.1043  0.1120  0.2219
  194loPI   C2A 3096   8.033  17.269   8.966 -0.3096  0.2249  0.0731
  194loPI   C3A 3097   7.830  17.158   8.677  0.0894 -0.0348 -0.1016
  194loPI   C4A 3098   7.716  17.175   8.272  0.2604  0.0456  0.2234
  194loPI   C5A 3099   7.495  17.009   7.900  0.1452  0.1536 -0.0292
  194loPI   C6A 3100   7.250  16.623   7.785  0.0508  0.2926 -0.0804
  194loPI   C1B 3101   7.681  17.158   9.332 -0.0494 -0.2019  0.0222
  194loPI   C2B 3102   7.443  17.270   8.988 -0.3219 -0.2723  0.3460
  194loPI   C3B 3103   7.303  17.291   8.565  0.0295 -0.0881  0.0797
  194loPI   C4B 3104   7.307  17.465   8.165  0.1880  0.4657  0.0343
  195loPI    C1 3105  12.011  15.636   9.762  0.2722  0.1122  0.1340
  195loPI    C2 3106  12.032  15.369  10.058 -0.2522 -0.1240 -0.0296
  195loPI    C3 3107  11.922  15.745  10.136 -0.0398 -0.0920  0.1234
  195loPI   PO4 3108  12.250  15.589   9.618 -0.0397 -0.2305 -0.1145
  195loPI   GL1 3109  12.192  15.346   9.155 -0.0492 -0.0264  0.2026
  195loPI   GL2 3110  12.499  15.612   9.118  0.2606 -0.1038  0.1154
  195loPI   C1A 3111  12.306  15.430   8.710 -0.0197 -0.0186 -0.3127
  195loPI   C2A 3112  12.451  15.685   8.372  0.1716  0.1476  0.2991
  195loPI   C3A 3113  12.519  15.861   7.988 -0.1089 -0.2252 -0.2768
  195loPI   C4A 3114  12.721  16.052   7.642  0.0370 -0.1983 -0.3365
  195loPI   C5A 3115  12.590  16.369   7.322 -0.2141  0.0671  0.0483
  195loPI   C6A 3116  12.885  16.697   7.239 -0.1855 -0.1038 -0.3636
  195loPI   C1B 3117  12.472  16.053   8.889 -0.1475 -0.1844 -0.0491
  195loPI   C2B 3118  12.495  16.256   8.532 -0.3267  0.1647 -0.1104
  195loPI   C3B 3119  12.541  16.376   8.173 -0.2291  0.0934 -0.2025
  195loPI   C4B 3120  12.663  16.557   7.795  0.2200  0.0307  0.0116
  196loPI    C1 3121   4.997   9.967   9.808 -0.0084 -0.1708 -0.2622
  196loPI    C2 3122   4.939  10.261   9.543  0.2477 -0.0500 -0.1873
  196loPI    C3 3123   5.288  10.231   9.735  0.1393 -0.2636 -0.0191
  196loPI   PO4 3124   4.952   9.739   9.661 -0.2207  0.1808  0.1171
  196loPI   GL1 3125   4.569   9.750   9.527  0.3345  0.0675 -0.2358
  196loPI   GL2 3126   4.521  10.015   9.719  0.0278 -0.1196 -0.0223
  196loPI   C1A 3127   4.610   9.551   9.151  0.0325  0.0086  0.1022
  196loPI   C2A 3128   4.560   9.446   8.726 -0.1580  0.0094 -0.1605
  196loPI   C3A 3129   4.450   9.452   8.258  0.0269  0.1810  0.0278
  196loPI   C4A 3130   4.508   9.110   8.014 -0.0120  0.4458 -0.0355
  196loPI   C5A 3131   4.385   8.610   8.038 -0.1157 -0.1804  0.2351
  196loPI   C6A 3132   4.182   8.297   8.136  0.0684  0.1443  0.2588
  196loPI   C1B 3133   4.499  10.293   9.389  0.1051  0.0283 -0.0891
  196loPI   C2B 3134   4.835  10.400   9.104  0.0163 -0.1489  0.0689
  196loPI   C3B 3135   5.150  10.116   8.885  0.0599  0.2952 -0.0109
  196loPI   C4B 3136   5.275   9.919   8.515  0.2654 -0.2249  0.0320
  197loPI    C1 3137   5.415   7.176  10.245 -0.1240  0.1864  0.1334
  197loPI    C2 3138   5.489   7.560  10.160 -0.1159  0.1558  0.0007
  197loPI    C3 3139   5.145   7.456  10.336 -0.1781  0.2079 -0.0894
  197loPI   PO4 3140   5.571   6.952  10.115 -0.1043 -0.3020  0.0444
  197loPI   GL1 3141   5.835   6.908   9.713  0.1524  0.2387  0.4776
  197loPI   GL2 3142   6.086   7.135   9.834 -0.2696  0.1213  0.2936
  197loPI   C1A 3143   5.965   6.792   9.345  0.0801 -0.2019 -0.4720
  197loPI   C2A 3144   6.077   6.760   8.938 -0.1088  0.0529  0.0933
  197loPI   C3A 3145   5.991   6.850   8.630  0.0473 -0.1096  0.0438
  197loPI   C4A 3146   6.172   6.807   8.299 -0.2072 -0.0086  0.1986
  197loPI   C5A 3147   6.289   6.755   7.983 -0.0944  0.1772  0.3390
  197loPI   C6A 3148   6.370   6.373   7.749 -0.2347 -0.1677 -0.1679
  197loPI   C1B 3149   6.072   7.285   9.384  0.0655 -0.0549  0.1463
  197loPI   C2B 3150   6.032   7.303   8.931 -0.0963  0.1238  0.4204
  197loPI   C3B 3151   6.245   7.249   8.519  0.0569  0.1201 -0.1078
  197loPI   C4B 3152   6.305   7.551   8.300 -0.1065 -0.2044  0.0252
  198loPI    C1 3153   5.693   5.001  10.371 -0.0389 -0.1293 -0.0375
  198loPI    C2 3154   6.045   4.928  10.196 -0.1507 -0.3253 -0.1842
  198loPI    C3 3155   5.954   4.752  10.544  0.0047 -0.0634 -0.0081
  198loPI   PO4 3156   5.477   4.978  10.169  0.0518 -0.1164  0.3051
  198loPI   GL1 3157   5.429   4.868   9.741  0.2368 -0.1335 -0.0236
  198loPI   GL2 3158   5.664   5.065   9.671 -0.0486  0.1799  0.1673
  198loPI   C1A 3159   5.157   4.503   9.462 -0.0467 -0.0431  0.3182
  198loPI   C2A 3160   5.244   4.517   9.023  0.1111 -0.2428  0.1705
  198loPI   C3A 3161   5.321   4.355   8.566 -0.1841  0.0561  0.0543
  198loPI   C4A 3162   5.357   4.096   8.264  0.1568 -0.0129  0.0308
  198loPI   C5A 3163   4.946   4.095   7.993  0.0243 -0.1426 -0.2632
  198loPI   C6A 3164   4.635   4.304   7.887 -0.0085  0.0208 -0.2889
  198loPI   C1B 3165   6.022   4.763   9.722  0.1097 -0.1551  0.0126
  198loPI   C2B 3166   6.215   4.435   9.385 -0.0658  0.0890  0.1329
  198loPI   C3B 3167   6.378   4.203   8.944 -0.0432 -0.1012 -0.1206
  198loPI   C4B 3168   6.581   3.993   8.651 -0.1540  0.7058  0.1946
  199loPI    C1 3169  11.701   7.889   9.857 -0.0567 -0.3711  0.1595
  199loPI    C2 3170  11.336   7.834  10.012 -0.0996  0.0685  0.2294
  199loPI    C3 3171  11.485   8.204   9.979  0.1442 -0.0642 -0.2525
  199loPI   PO4 3172  11.744   7.831   9.616 -0.3904  0.1485 -0.0653
  199loPI   GL1 3173  11.727   7.929   9.237  0.1293  0.1741  0.0078
  199loPI   GL2 3174  11.488   7.984   8.904 -0.3617  0.2002 -0.1735
  199loPI   C1A 3175  11.981   8.061   8.839 -0.1497  0.0429  0.5039
  199loPI   C2A 3176  12.136   8.057   8.491  0.1300 -0.0060  0.3608
  199loPI   C3A 3177  12.228   8.261   7.999  0.0829 -0.1462 -0.2487
  199loPI   C4A 3178  12.264   8.577   7.618 -0.1768  0.2077 -0.1407
  199loPI   C5A 3179  12.041   8.843   7.366  0.1271 -0.3613 -0.0394
  199loPI   C6A 3180  11.984   9.142   6.984  0.3154  0.2394  0.0144
  199loPI   C1B 3181  11.632   8.003   8.482  0.0145  0.1704  0.2476
  199loPI   C2B 3182  11.845   7.887   8.151 -0.1300  0.1502  0.0344
  199loPI   C3B 3183  12.147   7.877   7.674 -0.0781 -0.1826  0.1842
  199loPI   C4B 3184  12.442   7.665   7.277  0.1383  0.1806 -0.0216
  200loPI    C1 3185  10.457   3.165  10.389 -0.1070  0.2869  0.0042
  200loPI    C2 3186  10.091   3.014  10.446  0.0056  0.0365  0.0775
  200loPI    C3 3187  10.307   3.140  10.758  0.1365 -0.1853  0.0785
  200loPI   PO4 3188  10.355   3.287  10.110  0.0317  0.2610  0.1111
  200loPI   GL1 3189  10.380   3.202   9.672  0.1123 -0.1716  0.1181
  200loPI   GL2 3190  10.470   2.855   9.519 -0.0596 -0.0529  0.0942
  200loPI   C1A 3191  10.321   3.316   9.265  0.2479 -0.0407  0.1373
  200loPI   C2A 3192  10.268   3.234   8.865 -0.3128  0.2947 -0.3016
  200loPI   C3A 3193  10.085   3.246   8.469 -0.0833  0.2090 -0.0231
  200loPI   C4A 3194   9.960   2.902   8.180 -0.0599 -0.0683 -0.0809
  200loPI   C5A 3195  10.038   2.521   7.818  0.1391 -0.1359  0.1286
  200loPI   C6A 3196   9.946   2.337   7.456  0.0236  0.1528 -0.1054
  200loPI   C1B 3197  10.508   2.839   9.158  0.1799  0.2287  0.2044
  200loPI   C2B 3198  10.680   2.915   8.772  0.1205  0.0125 -0.0209
  200loPI   C3B 3199  10.544   3.090   8.330 -0.0986  0.1481 -0.3321
  200loPI   C4B 3200  10.451   3.263   8.052  0.2528 -0.3730 -0.3941
  201loPI    C1 3201   4.518   5.961   9.970  0.0282  0.0044  0.0610
  201loPI    C2 3202   4.572   5.617  10.167 -0.2006 -0.0198  0.0844
  201loPI    C3 3203   4.628   5.966  10.355  0.1070 -0.0423  0.0391
  201loPI   PO4 3204   4.525   5.917   9.743 -0.2361  0.3631 -0.0599
  201loPI   GL1 3205   4.175   5.837   9.484  0.0249  0.1213 -0.1613
  201loPI   GL2 3206   3.850   5.897   9.503 -0.0752  0.0385  0.0741
  201loPI   C1A 3207   4.334   5.801   9.078  0.0563 -0.3905  0.2070
  201loPI   C2A 3208   4.471   5.620   8.610 -0.2084 -0.1416  0.2020
  201loPI   C3A 3209   4.475   5.373   8.244 -0.0058  0.1342 -0.1122
  201loPI   C4A 3210   4.334   5.204   7.803 -0.0581  0.1421 -0.2787
  201loPI   C5A 3211   4.615   5.169   7.424  0.1244 -0.1741 -0.3744
  201loPI   C6A 3212   5.102   4.897   7.480  0.3458  0.0620 -0.4837
  201loPI   C1B 3213   3.676   5.825   9.098  0.0273 -0.0911 -0.1717
  201loPI   C2B 3214   3.557   5.921   8.707  0.1600 -0.0607  0.0369
  201loPI   C3B 3215   3.572   6.217   8.460 -0.0637  0.0968 -0.2891
  201loPI   C4B 3216   3.764   6.664   8.487 -0.4129 -0.1312 -0.0074
  202loPI    C1 3217  18.523   9.677   9.819 -0.1937  0.1242 -0.3315
  202loPI    C2 3218  18.643   9.725  10.197  0.2044  0.0884 -0.4480
  202loPI    C3 3219  18.378   9.439  10.106 -0.0458  0.2254 -0.1709
  202loPI   PO4 3220  18.489  10.013   9.741 -0.0148 -0.1165  0.1224
  202loPI   GL1 3221  18.653  10.201   9.511  0.2334  0.0893 -0.1194
  202loPI   GL2 3222  18.877  10.354   9.600 -0.0370 -0.1763 -0.2842
  202loPI   C1A 3223  18.644  10.175   9.073 -0.2367 -0.0093 -0.0439
  202loPI   C2A 3224  18.642  10.009   8.683  0.2366  0.2503  0.0628
  202loPI   C3A 3225  18.457   9.922   8.348  0.2809 -0.2663  0.1721
  202loPI   C4A 3226  17.981  10.088   8.200 -0.0932 -0.4536  0.2331
  202loPI   C5A 3227  18.063  10.522   7.903 -0.0995 -0.3828  0.1885
  202loPI   C6A 3228  18.336  10.565   7.611  0.0975  0.0034 -0.1286
  202loPI   C1B 3229  19.180  10.466   9.186 -0.0176  0.0397 -0.0636
  202loPI   C2B 3230  19.008  10.420   8.833 -0.0271  0.3010 -0.1040
  202loPI   C3B 3231  19.136  10.586   8.437  0.0382  0.1092  0.0012
  202loPI   C4B 3232  18.847  10.666   7.970  0.2490  0.2935 -0.2265
  203loPI    C1 3233  10.619   8.279   9.736 -0.3052  0.0240  0.0282
  203loPI    C2 3234  10.973   8.335   9.913 -0.2442 -0.2577  0.0005
  203loPI    C3 3235  10.679   8.602   9.963 -0.1292 -0.1792  0.2762
  203loPI   PO4 3236  10.785   8.118   9.466  0.2876  0.1550  0.0165
  203loPI   GL1 3237  10.926   8.059   9.096 -0.0378  0.0930 -0.0380
  203loPI   GL2 3238  10.726   7.873   9.036 -0.0949 -0.1486  0.2274
  203loPI   C1A 3239  11.065   8.171   8.744  0.3949 -0.0077 -0.0795
  203loPI   C2A 3240  11.176   8.164   8.269 -0.0956  0.0460  0.0629
  203loPI   C3A 3241  11.300   8.213   7.827 -0.2850  0.1009 -0.3568
  203loPI   C4A 3242  11.425   8.136   7.484  0.2261  0.1942 -0.3191
  203loPI   C5A 3243  11.757   8.069   7.223 -0.1363 -0.1737  0.3690
  203loPI   C6A 3244  12.092   7.969   6.923 -0.0155  0.2132  0.3015
  203loPI   C1B 3245  10.572   7.623   8.786  0.4980 -0.0968  0.0320
  203loPI   C2B 3246  10.477   7.471   8.501 -0.1968 -0.0370 -0.0009
  203loPI   C3B 3247  10.497   7.284   8.048 -0.2030  0.2186  0.3403
  203loPI   C4B 3248  10.724   7.286   7.637 -0.0991  0.2520  0.1405
  204loPI    C1 3249   7.979  17.747  10.217  0.0384 -0.1885  0.0212
  204loPI    C2 3250   7.873  17.361  10.213  0.1657 -0.2243  0.0303
  204loPI    C3 3251   7.973  17.538  10.558 -0.0641 -0.1344  0.0528
  204loPI   PO4 3252   7.818  17.876  10.121  0.0620  0.2323 -0.1278
  204loPI   GL1 3253   7.632  18.228   9.795 -0.4310 -0.0491  0.1293
  204loPI   GL2 3254   7.930  18.345   9.800  0.1075  0.0312 -0.1739
  204loPI   C1A 3255   7.788  18.189   9.384 -0.3442 -0.3389  0.2094
  204loPI   C2A 3256   7.699  18.142   8.934  0.0090 -0.1995 -0.1088
  204loPI   C3A 3257   7.736  18.144   8.453 -0.1528 -0.3269 -0.0062
  204loPI   C4A 3258   7.678  18.308   8.076 -0.2025 -0.0508  0.0569
  204loPI   C5A 3259   7.303  18.402   7.721  0.0156 -0.0049 -0.0368
  204loPI   C6A 3260   7.010  18.647   7.492 -0.1886  0.1926 -0.2028
  204loPI   C1B 3261   7.959  18.703   9.464  0.0924  0.0704  0.0522
  204loPI   C2B 3262   7.761  18.975   9.287  0.0427  0.1395 -0.0984
  204loPI   C3B 3263   7.476  19.246   8.971 -0.0221 -0.2000 -0.0447
  204loPI   C4B 3264   7.058  19.290   8.774  0.0214 -0.1140 -0.1504
  205loPI    C1 3265   4.262   4.178  10.365 -0.1878  0.1147  0.1355
  205loPI    C2 3266   3.931   4.326  10.534 -0.1538  0.2179  0.1122
  205loPI    C3 3267   4.291   4.446  10.661 -0.1175 -0.1500  0.3727
  205loPI   PO4 3268   4.202   4.257  10.102  0.2507 -0.2948  0.0326
  205loPI   GL1 3269   4.154   4.064   9.783  0.0806  0.1877 -0.2817
  205loPI   GL2 3270   3.849   4.029   9.707  0.3872  0.0208 -0.0671
  205loPI   C1A 3271   4.521   3.937   9.473  0.2831  0.0915  0.0497
  205loPI   C2A 3272   4.445   3.811   9.058 -0.1482  0.1383 -0.1316
  205loPI   C3A 3273   4.607   3.724   8.593  0.2970 -0.0836 -0.3502
  205loPI   C4A 3274   4.497   3.896   8.232 -0.0880 -0.1554 -0.1979
  205loPI   C5A 3275   4.187   3.995   7.957  0.0742 -0.2644  0.1225
  205loPI   C6A 3276   3.783   4.033   7.734 -0.0504 -0.0357  0.1305
  205loPI   C1B 3277   3.694   4.240   9.368  0.2228 -0.2042  0.3504
  205loPI   C2B 3278   3.750   4.342   8.971 -0.2790  0.0007  0.0623
  205loPI   C3B 3279   3.847   4.250   8.575 -0.0351  0.2007  0.1492
  205loPI   C4B 3280   3.820   3.914   8.255 -0.2923  0.1522 -0.0738
  206loPI    C1 3281   3.253   3.389  10.830  0.1937 -0.0682 -0.2279
  206loPI    C2 3282   3.235   3.677  10.552 -0.0295 -0.0203 -0.1654
  206loPI    C3 3283   3.146   3.761  10.933 -0.1495 -0.1836 -0.1562
  206loPI   PO4 3284   3.239   3.192  10.666  0.1402  0.1721 -0.0664
  206loPI   GL1 3285   3.394   3.297  10.227  0.1103 -0.0928  0.2295
  206loPI   GL2 3286   3.766   3.203  10.198  0.0326  0.7868  0.2694
  206loPI   C1A 3287   3.253   3.045   9.779 -0.0267  0.2427  0.0368
  206loPI   C2A 3288   3.000   2.850   9.536  0.0447  0.1033  0.3174
  206loPI   C3A 3289   3.044   2.789   9.107  0.5049 -0.1442  0.2377
  206loPI   C4A 3290   3.265   2.668   8.649 -0.0886  0.1382  0.1318
  206loPI   C5A 3291   3.143   2.651   8.170 -0.2294  0.1287 -0.0267
  206loPI   C6A 3292   3.292   2.620   7.731  0.0916  0.0312 -0.0230
  206loPI   C1B 3293   3.725   3.318   9.685 -0.2879 -0.1222 -0.0996
  206loPI   C2B 3294   3.839   3.347   9.198  0.0692  0.0872  0.3118
  206loPI   C3B 3295   3.778   3.358   8.750 -0.2290 -0.2670 -0.2092
  206loPI   C4B 3296   3.604   3.476   8.349 -0.2281  0.1602 -0.2280
  207loPI    C1 3297  18.002  15.123  10.562  0.2742  0.4706  0.0381
  207loPI    C2 3298  17.686  15.066  10.801  0.2443  0.2495 -0.0518
  207loPI    C3 3299  18.050  14.951  10.920  0.1931 -0.0902 -0.2084
  207loPI   PO4 3300  17.908  15.348  10.447  0.1327  0.1855  0.0305
  207loPI   GL1 3301  17.700  15.602  10.067  0.0611 -0.1310 -0.1484
  207loPI   GL2 3302  17.640  15.241   9.999  0.0061 -0.1342  0.2948
  207loPI   C1A 3303  17.644  15.896   9.738 -0.0572 -0.0792  0.1419
  207loPI   C2A 3304  17.531  16.086   9.404 -0.2930  0.2955 -0.0482
  207loPI   C3A 3305  17.490  16.213   9.053 -0.6590  0.0446  0.1688
  207loPI   C4A 3306  17.548  16.287   8.573 -0.0830 -0.0280  0.1020
  207loPI   C5A 3307  17.370  16.510   8.186 -0.0365  0.2724 -0.3340
  207loPI   C6A 3308  17.390  16.869   7.947  0.2332 -0.0517 -0.3475
  207loPI   C1B 3309  17.612  15.379   9.597  0.0100 -0.0400 -0.1094
  207loPI   C2B 3310  17.710  15.566   9.338 -0.0703  0.1196  0.2220
  207loPI   C3B 3311  17.765  15.732   8.919 -0.2526  0.0712  0.1228
  207loPI   C4B 3312  17.886  15.976   8.526  0.1155  0.3366  0.0192
  208loPI    C1 3313   0.364   6.497  10.110  0.1576  0.1522  0.4382
  208loPI    C2 3314   0.194   6.142  10.181  0.1237  0.0904  0.0663
  208loPI    C3 3315   0.590   6.187  10.220  0.1763 -0.0867 -0.2268
  208loPI   PO4 3316   0.318   6.600   9.816 -0.1235  0.0193 -0.0254
  208loPI   GL1 3317   0.378   6.520   9.359  0.3192  0.1032 -0.0731
  208loPI   GL2 3318   0.611   6.378   9.234 -0.0705  0.1573 -0.0593
  208loPI   C1A 3319   0.095   6.709   9.128  0.0437 -0.0885  0.2177
  208loPI   C2A 3320   0.152   6.831   8.845  0.0555  0.1529  0.1356
  208loPI   C3A 3321   0.026   6.967   8.517  0.4141 -0.4480 -0.2940
  208loPI   C4A 3322   0.075   6.968   8.059 -0.1323 -0.0021 -0.2438
  208loPI   C5A 3323   0.310   7.172   7.695 -0.4026  0.0188 -0.0531
  208loPI   C6A 3324   0.630   7.279   7.387  0.2094 -0.1018  0.1287
  208loPI   C1B 3325   0.562   6.521   8.783 -0.0989  0.1443  0.0879
  208loPI   C2B 3326   0.480   6.758   8.384  0.1289  0.0196 -0.2550
  208loPI   C3B 3327   0.615   6.955   8.116  0.1190  0.0211 -0.0039
  208loPI   C4B 3328   0.910   7.034   7.839 -0.2548  0.2339  0.3682
  209loPI    C1 3329  10.170   9.891   9.261  0.0948  0.2573 -0.1745
  209loPI    C2 3330  10.515   9.690   9.292 -0.1209 -0.1075 -0.0769
  209loPI    C3 3331  10.393   9.925   9.592  0.1521  0.2097 -0.2077
  209loPI   PO4 3332  10.003   9.669   9.138  0.1243  0.0781  0.1085
  209loPI   GL1 3333   9.931   9.514   8.676 -0.1154  0.2189 -0.2698
  209loPI   GL2 3334   9.970   9.831   8.510 -0.1635  0.2282  0.2289
  209loPI   C1A 3335   9.722   9.473   8.324 -0.0719  0.2897 -0.0239
  209loPI   C2A 3336   9.552   9.622   7.928  0.0909 -0.2361 -0.2448
  209loPI   C3A 3337   9.516   9.492   7.528 -0.1341  0.0767 -0.1937
  209loPI   C4A 3338   9.655   9.372   7.106 -0.2483 -0.0795  0.2398
  209loPI   C5A 3339   9.571   9.010   6.822 -0.1549 -0.0439  0.0029
  209loPI   C6A 3340   9.582   8.655   6.578 -0.0096 -0.1432 -0.2149
  209loPI   C1B 3341  10.015   9.776   8.089  0.0400 -0.1068  0.2456
  209loPI   C2B 3342   9.950   9.784   7.671 -0.1800  0.0285  0.1308
  209loPI   C3B 3343   9.737   9.904   7.261  0.2711  0.1903 -0.2661
  209loPI   C4B 3344   9.687  10.252   6.937  0.2111  0.1530 -0.2372
  210loPI    C1 3345   0.282  13.950  10.398 -0.1689  0.1398  0.0574
  210loPI    C2 3346  -0.003  13.875  10.128  0.0372 -0.2342 -0.0637
  210loPI    C3 3347  -0.076  13.818  10.517 -0.2041  0.1374 -0.0501
  210loPI   PO4 3348   0.507  13.830  10.204  0.0826 -0.3403  0.0564
  210loPI   GL1 3349   0.557  13.420   9.922  0.2482 -0.0216  0.2750
  210loPI   GL2 3350   0.304  13.588   9.801 -0.0272 -0.3312  0.0604
  210loPI   C1A 3351   0.788  13.408   9.631  0.1970  0.0123  0.0585
  210loPI   C2A 3352   0.847  13.362   9.254 -0.3692  0.1234  0.2709
  210loPI   C3A 3353   0.847  13.404   8.846 -0.2644 -0.2817  0.1189
  210loPI   C4A 3354   0.833  13.456   8.438 -0.0805  0.4936  0.1105
  210loPI   C5A 3355   1.080  13.540   8.102  0.3735  0.3940 -0.0424
  210loPI   C6A 3356   1.223  13.983   7.941  0.1411  0.0471  0.1358
  210loPI   C1B 3357   0.339  13.678   9.462  0.0860 -0.2088 -0.0163
  210loPI   C2B 3358   0.444  13.634   9.090 -0.1236 -0.1826  0.0729
  210loPI   C3B 3359   0.407  13.561   8.661 -0.0679 -0.3072  0.3800
  210loPI   C4B 3360   0.394  13.429   8.229  0.7761  0.1078 -0.1024
  211loPI    C1 3361  16.434   0.539   9.987  0.1405  0.1884  0.0279
  211loPI    C2 3362  16.194   0.294  10.193  0.0943  0.3200  0.1317
  211loPI    C3 3363  16.192   0.687  10.268  0.0889  0.3677 -0.1088
  211loPI   PO4 3364  16.435   0.439   9.769 -0.4050 -0.0129  0.1335
  211loPI   GL1 3365  16.323   0.715   9.419  0.1254  0.2978 -0.1576
  211loPI   GL2 3366  16.063   0.443   9.436  0.1904  0.0234 -0.1390
  211loPI   C1A 3367  16.307   0.736   8.972 -0.1693  0.2519 -0.1445
  211loPI   C2A 3368  16.080   0.871   8.547  0.0449 -0.0444 -0.3178
  211loPI   C3A 3369  16.017   0.814   8.106  0.0124  0.1353 -0.1963
  211loPI   C4A 3370  15.990   1.013   7.801 -0.1796  0.2206 -0.4513
  211loPI   C5A 3371  16.027   1.443   7.783 -0.1492  0.0953 -0.3658
  211loPI   C6A 3372  15.757   1.726   7.511  0.0895 -0.0649  0.1129
  211loPI   C1B 3373  15.806   0.826   9.232 -0.0129 -0.2736 -0.0815
  211loPI   C2B 3374  15.555   0.909   8.800 -0.1662  0.1761 -0.1515
  211loPI   C3B 3375  15.632   0.941   8.398  0.0537  0.3501  0.0070
  211loPI   C4B 3376  15.527   0.900   7.946 -0.1379  0.0028  0.2917
  212loPI    C1 3377  13.820  15.669  10.192  0.0924 -0.1040  0.0219
  212loPI    C2 3378  13.621  15.460  10.470 -0.1386 -0.0708 -0.1162
  212loPI    C3 3379  13.656  15.857  10.505 -0.1028 -0.0756 -0.0961
  212loPI   PO4 3380  13.821  15.534  10.060 -0.0582 -0.3652  0.2616
  212loPI   GL1 3381  13.979  15.698   9.659  0.1566  0.1061  0.3962
  212loPI   GL2 3382  13.711  15.641   9.448 -0.0978 -0.0744  0.5593
  212loPI   C1A 3383  14.034  16.015   9.414 -0.0111 -0.2324  0.0316
  212loPI   C2A 3384  14.098  16.001   9.021  0.3528 -0.0757  0.1049
  212loPI   C3A 3385  14.190  16.034   8.556  0.0246  0.0063  0.1628
  212loPI   C4A 3386  14.508  16.118   8.223  0.0109  0.1576 -0.0282
  212loPI   C5A 3387  14.619  16.267   7.947  0.3393  0.1520  0.0819
  212loPI   C6A 3388  14.511  16.624   7.726 -0.1166  0.0974  0.2883
  212loPI   C1B 3389  13.777  15.682   9.074 -0.1210  0.0514  0.0662
  212loPI   C2B 3390  14.090  15.604   8.722  0.0996  0.1880  0.4652
  212loPI   C3B 3391  14.347  15.603   8.357 -0.2393  0.1181  0.1432
  212loPI   C4B 3392  14.659  15.473   8.147 -0.0530 -0.2526  0.0580
  213loPI    C1 3393   9.071   8.464   9.699  0.1575  0.3623  0.1025
  213loPI    C2 3394   9.434   8.557   9.840  0.2022 -0.0677  0.2879
  213loPI    C3 3395   9.263   8.210   9.941 -0.1972  0.0601  0.0758
  213loPI   PO4 3396   9.097   8.662   9.453 -0.3548 -0.2069  0.0289
  213loPI   GL1 3397   9.124   8.579   8.974 -0.2837 -0.6311 -0.2187
  213loPI   GL2 3398   9.272   8.374   8.664 -0.2791 -0.0206 -0.2861
  213loPI   C1A 3399   9.049   8.775   8.590  0.0635 -0.1258 -0.1226
  213loPI   C2A 3400   8.864   8.891   8.163 -0.0622 -0.2749  0.1048
  213loPI   C3A 3401   8.646   9.134   7.843  0.1251  0.2967 -0.0473
  213loPI   C4A 3402   8.259   9.233   7.611  0.1667 -0.0800 -0.2370
  213loPI   C5A 3403   8.024   9.041   7.283 -0.5317  0.1463  0.1881
  213loPI   C6A 3404   7.958   8.634   7.040 -0.1532 -0.2031 -0.1306
  213loPI   C1B 3405   9.477   8.289   8.304 -0.1227 -0.1476  0.1548
  213loPI   C2B 3406   9.639   8.347   7.966 -0.0280 -0.3327 -0.1135
  213loPI   C3B 3407   9.825   8.491   7.585  0.0474  0.2487  0.1867
  213loPI   C4B 3408   9.749   8.648   7.151 -0.0033 -0.0079  0.2428
  214loPI    C1 3409   8.082  18.268  10.337  0.0246  0.1189 -0.0131
  214loPI    C2 3410   8.101  18.000  10.634  0.0132  0.0743 -0.0524
  214loPI    C3 3411   7.992  18.378  10.711 -0.1208  0.0299 -0.0213
  214loPI   PO4 3412   8.190  18.300  10.226 -0.0507  0.0775  0.1568
  214loPI   GL1 3413   8.350  18.566   9.936  0.1763  0.0639  0.3827
  214loPI   GL2 3414   8.294  18.854   9.941 -0.1793 -0.2140 -0.0320
  214loPI   C1A 3415   8.318  18.396   9.449 -0.1520 -0.0255  0.6360
  214loPI   C2A 3416   8.128  18.377   9.040 -0.1127  0.0667 -0.1001
  214loPI   C3A 3417   8.018  18.547   8.585 -0.3432  0.0933  0.1796
  214loPI   C4A 3418   8.267  19.000   8.450 -0.3192  0.0393 -0.1173
  214loPI   C5A 3419   8.466  19.232   8.777  0.1406 -0.3510 -0.0556
  214loPI   C6A 3420   8.641  19.305   9.071  0.1210 -0.2047  0.0724
  214loPI   C1B 3421   8.211  19.160   9.657  0.4419 -0.1527  0.1605
  214loPI   C2B 3422   8.146  19.311   9.315  0.1501  0.1225  0.2772
  214loPI   C3B 3423   7.938  19.354   8.868 -0.1459 -0.3926  0.1021
  214loPI   C4B 3424   7.800  19.047   8.569  0.1051  0.2836 -0.0055
  215loPI    C1 3425  16.155   8.048  10.214 -0.1540 -0.2785 -0.1196
  215loPI    C2 3426  16.526   8.123  10.085 -0.0385 -0.0579  0.3214
  215loPI    C3 3427  16.453   7.795  10.301 -0.1306 -0.1714  0.1202
  215loPI   PO4 3428  16.052   8.058   9.910 -0.3058 -0.3364  0.2112
  215loPI   GL1 3429  16.152   7.692   9.582 -0.0140  0.1822  0.3573
  215loPI   GL2 3430  16.451   7.821   9.673 -0.0448 -0.0588 -0.0727
  215loPI   C1A 3431  16.152   7.859   9.207 -0.3016 -0.0904 -0.0249
  215loPI   C2A 3432  16.198   7.796   8.850  0.0764  0.3776 -0.0685
  215loPI   C3A 3433  16.126   7.949   8.370  0.3811  0.1022  0.3673
  215loPI   C4A 3434  16.027   8.264   8.116 -0.2095  0.0109  0.1446
  215loPI   C5A 3435  15.593   8.513   8.058 -0.1354 -0.2530  0.4216
  215loPI   C6A 3436  15.362   8.806   7.750  0.1670  0.2177 -0.3127
  215loPI   C1B 3437  16.734   7.850   9.416  0.1400  0.0351 -0.1955
  215loPI   C2B 3438  16.645   7.894   8.948  0.2684 -0.1851  0.3139
  215loPI   C3B 3439  16.585   7.784   8.485  0.0259 -0.2440  0.3464
  215loPI   C4B 3440  16.765   7.383   8.111  0.0011  0.0192 -0.2250
  216loPI    C1 3441  11.066   0.409  10.273  0.1011  0.1169 -0.1671
  216loPI    C2 3442  11.443   0.431  10.405  0.0412 -0.0938  0.0451
  216loPI    C3 3443  11.187   0.173  10.572 -0.1863  0.0173 -0.1263
  216loPI   PO4 3444  11.044   0.365  10.024  0.2189 -0.0989 -0.3429
  216loPI   GL1 3445  11.269   0.495   9.641  0.1664 -0.2907 -0.0197
  216loPI   GL2 3446  11.442   0.109   9.635 -0.0233 -0.1082 -0.0340
  216loPI   C1A 3447  10.988   0.422   9.259  0.1218 -0.0874 -0.0491
  216loPI   C2A 3448  10.879   0.571   8.833  0.1747  0.1885  0.0202
  216loPI   C3A 3449  10.442   0.561   8.561 -0.2314 -0.1571  0.1481
  216loPI   C4A 3450  10.271   0.595   8.245 -0.0178  0.1213  0.0323
  216loPI   C5A 3451  10.114   0.379   7.824 -0.2359  0.2742 -0.0440
  216loPI   C6A 3452  10.062   0.401   7.344 -0.1414  0.0003 -0.3307
  216loPI   C1B 3453  11.295   0.027   9.256 -0.1852 -0.0229 -0.2681
  216loPI   C2B 3454  11.177  -0.119   8.816 -0.0823 -0.1227  0.0454
  216loPI   C3B 3455  11.006  -0.279   8.490 -0.2332 -0.0063  0.1163
  216loPI   C4B 3456  10.748  -0.306   8.130 -0.1407  0.3761  0.2698
  217loPI    C1 3457   6.162   8.074  10.146 -0.0491  0.1037  0.1343
  217loPI    C2 3458   6.320   7.838  10.427  0.1610  0.1333  0.0427
  217loPI    C3 3459   6.514   8.167  10.311  0.0893  0.1058 -0.1577
  217loPI   PO4 3460   6.123   7.965   9.938 -0.2188 -0.1041 -0.1898
  217loPI   GL1 3461   6.114   7.705   9.586 -0.0761 -0.1923 -0.2448
  217loPI   GL2 3462   5.753   7.592   9.678  0.2123  0.0763  0.1858
  217loPI   C1A 3463   6.215   7.710   9.150  0.0345  0.5072 -0.0730
  217loPI   C2A 3464   6.123   7.753   8.743 -0.0352 -0.0888  0.0721
  217loPI   C3A 3465   6.109   7.980   8.302  0.0325  0.0993  0.3043
  217loPI   C4A 3466   5.827   7.714   8.057  0.1083 -0.1049  0.2413
  217loPI   C5A 3467   5.800   7.437   7.704 -0.1365 -0.0922 -0.1258
  217loPI   C6A 3468   5.490   7.145   7.499  0.0329  0.3428 -0.0251
  217loPI   C1B 3469   5.590   7.212   9.331  0.0966  0.2428 -0.1127
  217loPI   C2B 3470   5.213   7.103   9.217 -0.2527  0.0262  0.0748
  217loPI   C3B 3471   4.792   6.946   9.094 -0.1034 -0.1123 -0.1191
  217loPI   C4B 3472   4.456   6.628   8.965 -0.0884  0.0312  0.2042
  218loPI    C1 3473  16.406   3.855   9.957 -0.0983  0.1010  0.2005
  218loPI    C2 3474  16.010   3.871  10.013 -0.1784 -0.1621 -0.2459
  218loPI    C3 3475  16.192   3.517   9.971  0.0803 -0.0354 -0.2118
  218loPI   PO4 3476  16.421   4.138   9.875 -0.0502 -0.1141 -0.0512
  218loPI   GL1 3477  16.496   4.390   9.656  0.0310  0.0031  0.1902
  218loPI   GL2 3478  16.403   4.760   9.698 -0.0490 -0.1623  0.1738
  218loPI   C1A 3479  16.554   4.214   9.278  0.4093  0.0379 -0.0514
  218loPI   C2A 3480  16.660   4.024   8.880 -0.2011  0.0347 -0.2947
  218loPI   C3A 3481  16.580   4.133   8.401 -0.1076  0.0991 -0.0527
  218loPI   C4A 3482  16.855   4.135   8.021 -0.3432 -0.1014 -0.0997
  218loPI   C5A 3483  17.306   4.214   7.713  0.1125  0.2239 -0.1741
  218loPI   C6A 3484  17.616   4.286   7.490  0.1342  0.1839 -0.3577
  218loPI   C1B 3485  16.511   4.741   9.278 -0.0154 -0.2155  0.2114
  218loPI   C2B 3486  16.631   4.556   8.873  0.0004 -0.3069  0.1174
  218loPI   C3B 3487  16.847   4.537   8.489 -0.2110  0.0110 -0.2290
  218loPI   C4B 3488  16.918   4.724   8.073 -0.1651  0.2488  0.0768
  219loPI    C1 3489   4.725  14.574  10.572  0.0437 -0.0576 -0.0380
  219loPI    C2 3490   4.557  14.889  10.751  0.3437  0.0352  0.0873
  219loPI    C3 3491   4.550  14.531  10.929 -0.2575 -0.1034 -0.1878
  219loPI   PO4 3492   4.628  14.555  10.323  0.0918 -0.1573  0.1720
  219loPI   GL1 3493   4.652  14.702   9.897  0.0487  0.1763 -0.0969
  219loPI   GL2 3494   4.651  14.292   9.869 -0.1909  0.2190 -0.2503
  219loPI   C1A 3495   4.733  14.868   9.565 -0.0686 -0.0255 -0.0528
  219loPI   C2A 3496   4.874  14.749   9.018 -0.1684 -0.0267  0.2079
  219loPI   C3A 3497   4.953  14.542   8.634 -0.2425  0.5447 -0.1581
  219loPI   C4A 3498   4.971  13.987   8.505  0.3452 -0.4532 -0.2126
  219loPI   C5A 3499   4.987  13.834   8.102  0.0759  0.1697  0.0609
  219loPI   C6A 3500   5.073  13.948   7.669  0.1744  0.0441 -0.0160
  219loPI   C1B 3501   4.750  14.254   9.423 -0.1126 -0.1198 -0.1706
  219loPI   C2B 3502   4.738  14.234   8.992 -0.0676  0.1617 -0.0823
  219loPI   C3B 3503   4.519  14.202   8.711 -0.1550  0.0267  0.1460
  219loPI   C4B 3504   4.542  14.111   8.315  0.0575 -0.1506 -0.2782
  220loPI    C1 3505  15.333  13.022  10.328 -0.0953  0.2646  0.0017
  220loPI    C2 3506  15.077  12.878  10.600  0.2569 -0.1621  0.1185
  220loPI    C3 3507  15.233  13.244  10.646 -0.1759  0.0243  0.1466
  220loPI   PO4 3508  15.425  12.716  10.195  0.1339 -0.0096  0.0256
  220loPI   GL1 3509  15.360  12.673   9.779  0.1782  0.1426  0.3052
  220loPI   GL2 3510  15.184  12.442   9.812 -0.1302  0.1288  0.2148
  220loPI   C1A 3511  15.457  12.684   9.349  0.1043  0.2252 -0.1453
  220loPI   C2A 3512  15.408  12.695   8.955  0.0211  0.0958  0.2188
  220loPI   C3A 3513  15.549  12.656   8.550 -0.2459 -0.2284  0.1025
  220loPI   C4A 3514  15.665  12.767   8.156 -0.3418  0.0042  0.0172
  220loPI   C5A 3515  15.558  12.953   7.771 -0.0126  0.0257  0.1141
  220loPI   C6A 3516  15.518  13.449   7.792 -0.0617 -0.0255 -0.0412
  220loPI   C1B 3517  15.459  12.259   9.535 -0.2340  0.0410 -0.2513
  220loPI   C2B 3518  15.565  12.156   9.044 -0.1242 -0.0941  0.1473
  220loPI   C3B 3519  15.588  12.130   8.589 -0.0704  0.3187  0.1148
  220loPI   C4B 3520  15.670  12.090   8.185 -0.0363  0.0282  0.1175
  221loPI    C1 3521  17.376   3.138   9.855 -0.0947 -0.1717  0.0888
  221loPI    C2 3522  17.414   3.132  10.254 -0.0380 -0.2224  0.0829
  221loPI    C3 3523  17.085   3.286  10.086 -0.0157 -0.1051  0.1463
  221loPI   PO4 3524  17.628   3.117   9.685  0.0286  0.0053 -0.1144
  221loPI   GL1 3525  17.579   2.946   9.215  0.0637 -0.2947 -0.1314
  221loPI   GL2 3526  17.307   2.713   9.532  0.1879  0.0954 -0.0899
  221loPI   C1A 3527  17.731   2.912   8.830 -0.1007  0.1771 -0.1679
  221loPI   C2A 3528  17.611   2.863   8.419 -0.3743 -0.0305  0.3665
  221loPI   C3A 3529  17.367   2.812   8.077 -0.0800 -0.1399 -0.0317
  221loPI   C4A 3530  17.277   2.864   7.671  0.0415  0.3067  0.4070
  221loPI   C5A 3531  17.012   3.030   7.405  0.1411 -0.0775  0.0831
  221loPI   C6A 3532  16.930   3.405   7.574  0.0866  0.1909  0.1569
  221loPI   C1B 3533  17.298   2.482   9.158 -0.0224 -0.0422  0.1191
  221loPI   C2B 3534  17.161   2.553   8.765 -0.1324 -0.0786 -0.0135
  221loPI   C3B 3535  17.054   2.575   8.361 -0.0782 -0.2386  0.0474
  221loPI   C4B 3536  17.044   2.405   7.866 -0.2188  0.3429 -0.0108
  222loPI    C1 3537   0.239  12.333  10.500 -0.1724  0.3479 -0.2844
  222loPI    C2 3538   0.636  12.376  10.496 -0.1054 -0.1106  0.2084
  222loPI    C3 3539   0.407  12.644  10.686 -0.0032 -0.0291  0.2173
  222loPI   PO4 3540   0.096  12.235  10.206 -0.0292 -0.2055  0.0155
  222loPI   GL1 3541   0.344  12.234   9.797 -0.2937 -0.0017  0.4321
  222loPI   GL2 3542   0.470  11.995   9.668 -0.0387 -0.0981  0.1818
  222loPI   C1A 3543   0.184  12.411   9.422  0.1090  0.0567  0.0130
  222loPI   C2A 3544   0.014  12.404   9.012 -0.4262 -0.1311  0.1752
  222loPI   C3A 3545  -0.087  12.393   8.583  0.0341  0.1298  0.0887
  222loPI   C4A 3546  -0.057  12.482   8.188 -0.3767  0.0425  0.1814
  222loPI   C5A 3547   0.077  12.645   7.813 -0.3446  0.1233  0.0426
  222loPI   C6A 3548  -0.097  12.752   7.387  0.0722 -0.2366  0.0094
  222loPI   C1B 3549   0.389  12.069   9.189 -0.3241  0.0059  0.3021
  222loPI   C2B 3550   0.319  12.041   8.671  0.3287  0.1963 -0.0195
  222loPI   C3B 3551   0.247  11.980   8.219 -0.1799 -0.1893 -0.0983
  222loPI   C4B 3552   0.208  12.085   7.850  0.1675  0.0932  0.1227
  223loPI    C1 3553  17.315   5.559   9.708 -0.2828  0.0795 -0.4111
  223loPI    C2 3554  17.287   5.168   9.629 -0.0880  0.0063 -0.1331
  223loPI    C3 3555  17.272   5.297  10.008  0.1829  0.2366 -0.1978
  223loPI   PO4 3556  17.486   5.688   9.641 -0.1190 -0.3192  0.1169
  223loPI   GL1 3557  17.630   5.534   9.278  0.1815 -0.0816 -0.0469
  223loPI   GL2 3558  17.749   5.422   8.996  0.2531  0.0896 -0.1806
  223loPI   C1A 3559  17.270   5.440   8.985  0.2646  0.0957 -0.1492
  223loPI   C2A 3560  17.286   5.239   8.623 -0.0285  0.2127  0.0600
  223loPI   C3A 3561  17.520   5.222   8.266 -0.0637  0.2264  0.1295
  223loPI   C4A 3562  17.398   5.149   7.851  0.0225  0.3739  0.2686
  223loPI   C5A 3563  17.078   5.048   7.635 -0.0255  0.2632  0.2821
  223loPI   C6A 3564  16.657   5.259   7.700 -0.1845  0.1810 -0.2084
  223loPI   C1B 3565  17.636   5.590   8.670  0.0924 -0.0050  0.0457
  223loPI   C2B 3566  17.733   5.650   8.217 -0.2608 -0.1004  0.2679
  223loPI   C3B 3567  17.732   5.591   7.807  0.0734  0.0389  0.0246
  223loPI   C4B 3568  18.129   5.519   7.547  0.4931  0.1425 -0.1453
  224loPI    C1 3569  16.547  12.083  10.180 -0.4026 -0.0120 -0.2258
  224loPI    C2 3570  16.788  12.363  10.333 -0.3678 -0.1288 -0.0639
  224loPI    C3 3571  16.454  12.260  10.526 -0.2022 -0.4483  0.0601
  224loPI   PO4 3572  16.616  12.158   9.952 -0.0758  0.1856  0.0011
  224loPI   GL1 3573  16.548  12.339   9.579  0.0818 -0.0096 -0.1520
  224loPI   GL2 3574  16.575  12.677   9.385 -0.0121  0.3665 -0.2974
  224loPI   C1A 3575  16.452  12.247   9.176 -0.0314 -0.2007 -0.0981
  224loPI   C2A 3576  16.812  12.434   8.973 -0.0202 -0.1442  0.1483
  224loPI   C3A 3577  17.003  12.748   8.788  0.1178  0.0402 -0.1669
  224loPI   C4A 3578  16.951  12.794   8.278 -0.0611 -0.0318 -0.1558
  224loPI   C5A 3579  16.790  12.641   7.900  0.0029 -0.0811  0.0019
  224loPI   C6A 3580  16.370  12.443   7.872 -0.1192  0.0594  0.2808
  224loPI   C1B 3581  16.638  13.041   9.269 -0.2811  0.2485 -0.1379
  224loPI   C2B 3582  16.641  13.341   8.972  0.1732  0.0535  0.3128
  224loPI   C3B 3583  16.777  13.599   8.623 -0.1125  0.2054  0.2545
  224loPI   C4B 3584  16.964  13.587   8.222  0.0291  0.1279  0.2859
  225loPI    C1 3585  12.633  14.132  10.138  0.4415 -0.1188 -0.2572
  225loPI    C2 3586  12.985  14.105  10.327  0.0746 -0.0689  0.4657
  225loPI    C3 3587  12.725  13.801  10.343 -0.0220 -0.0064  0.1504
  225loPI   PO4 3588  12.635  14.231   9.746  0.2345  0.0501 -0.1234
  225loPI   GL1 3589  12.787  14.213   9.457  0.1784 -0.2229  0.0046
  225loPI   GL2 3590  13.082  14.464   9.354  0.0410 -0.2737 -0.0915
  225loPI   C1A 3591  12.672  14.459   9.083 -0.1397 -0.0639  0.1598
  225loPI   C2A 3592  12.647  14.484   8.717 -0.2311 -0.0094 -0.3093
  225loPI   C3A 3593  12.781  14.689   8.366  0.4033  0.1458 -0.1506
  225loPI   C4A 3594  12.667  14.814   7.955 -0.0495  0.0501  0.1724
  225loPI   C5A 3595  12.633  14.961   7.540 -0.0575  0.0071 -0.0321
  225loPI   C6A 3596  12.650  14.955   7.135 -0.0077  0.1601 -0.0015
  225loPI   C1B 3597  13.139  14.523   8.921  0.1354  0.0814  0.0652
  225loPI   C2B 3598  13.231  14.438   8.559  0.0518 -0.0691  0.1923
  225loPI   C3B 3599  13.244  14.471   8.130 -0.0868 -0.1025  0.0135
  225loPI   C4B 3600  13.082  14.691   7.729 -0.1383 -0.1537  0.0885
  226loPI    C1 3601  15.937  15.433  10.260  0.0680 -0.1115  0.0211
  226loPI    C2 3602  16.191  15.426  10.569 -0.3472 -0.1375  0.3723
  226loPI    C3 3603  16.084  15.775  10.406  0.4746 -0.1557 -0.2701
  226loPI   PO4 3604  15.998  15.230  10.137 -0.0602 -0.1891 -0.0015
  226loPI   GL1 3605  16.250  15.200   9.672 -0.1310 -0.0599  0.1967
  226loPI   GL2 3606  16.205  14.850   9.667  0.3924  0.1699  0.3377
  226loPI   C1A 3607  16.166  15.474   9.344  0.4395  0.1680 -0.1870
  226loPI   C2A 3608  16.209  15.442   8.938 -0.0310  0.2357  0.2651
  226loPI   C3A 3609  16.202  15.354   8.481 -0.0534 -0.0155 -0.2132
  226loPI   C4A 3610  16.088  15.213   7.971 -0.0781 -0.3386 -0.0638
  226loPI   C5A 3611  15.880  15.027   7.704 -0.2006 -0.0854 -0.1731
  226loPI   C6A 3612  15.682  14.794   7.706 -0.0948  0.0656 -0.2615
  226loPI   C1B 3613  16.407  15.007   9.239 -0.1000  0.1757 -0.1982
  226loPI   C2B 3614  16.499  15.002   8.754 -0.0005  0.0129 -0.2166
  226loPI   C3B 3615  16.434  14.951   8.310  0.0660  0.3016  0.0324
  226loPI   C4B 3616  16.484  14.916   7.921  0.1873 -0.0257 -0.1406
  227loPI    C1 3617   5.094   3.818  10.814 -0.0625 -0.1212  0.1275
  227loPI    C2 3618   4.914   3.527  11.021 -0.1177 -0.0918  0.1212
  227loPI    C3 3619   4.851   3.909  11.118 -0.0370 -0.0821  0.1362
  227loPI   PO4 3620   5.065   3.791  10.555 -0.2666  0.0513  0.2784
  227loPI   GL1 3621   5.134   3.907  10.093 -0.2160 -0.0559  0.0108
  227loPI   GL2 3622   5.374   3.645   9.978 -0.1152 -0.1089 -0.1327
  227loPI   C1A 3623   5.042   4.015   9.622  0.1792  0.2132  0.0032
  227loPI   C2A 3624   4.872   4.132   9.156 -0.3979 -0.0501  0.2350
  227loPI   C3A 3625   4.789   4.134   8.700 -0.2712 -0.0492  0.1061
  227loPI   C4A 3626   4.860   4.532   8.427  0.0209  0.0005  0.0967
  227loPI   C5A 3627   5.231   4.605   8.148 -0.0986  0.0051  0.1623
  227loPI   C6A 3628   5.365   5.015   7.964  0.0396 -0.2166  0.2243
  227loPI   C1B 3629   5.389   3.536   9.504  0.0073 -0.3848  0.0831
  227loPI   C2B 3630   5.418   3.515   9.132 -0.1163 -0.1329  0.0727
  227loPI   C3B 3631   5.376   3.402   8.642 -0.1630 -0.1505  0.1544
  227loPI   C4B 3632   5.615   3.704   8.392 -0.1111 -0.2001 -0.0242
  228loPI    C1 3633   3.515   5.621  10.275  0.2687 -0.4146 -0.0005
  228loPI    C2 3634   3.868   5.563  10.454  0.1415 -0.1800  0.3369
  228loPI    C3 3635   3.562   5.717  10.661 -0.0057  0.1182 -0.0902
  228loPI   PO4 3636   3.623   5.691  10.006  0.1739 -0.3243  0.2524
  228loPI   GL1 3637   3.489   5.536   9.536 -0.2618  0.2437 -0.0064
  228loPI   GL2 3638   3.702   5.369   9.574  0.3960  0.0934 -0.3397
  228loPI   C1A 3639   3.470   5.370   9.064  0.1126  0.1555 -0.1817
  228loPI   C2A 3640   3.572   5.352   8.556  0.0482  0.0224 -0.0169
  228loPI   C3A 3641   3.540   5.563   8.202  0.0525  0.1007  0.0523
  228loPI   C4A 3642   3.643   5.908   7.948 -0.0185  0.1309  0.2496
  228loPI   C5A 3643   3.678   6.342   8.025  0.0800 -0.1535 -0.0365
  228loPI   C6A 3644   4.003   6.536   8.072 -0.1155 -0.1853 -0.0478
  228loPI   C1B 3645   3.988   5.434   9.262  0.2478  0.1856 -0.3810
  228loPI   C2B 3646   4.003   5.501   8.807 -0.2219 -0.0682 -0.2317
  228loPI   C3B 3647   4.022   5.431   8.470 -0.1050 -0.0966  0.0542
  228loPI   C4B 3648   3.913   5.167   8.100  0.0105 -0.0897 -0.2293
  229loPI    C1 3649   2.853   5.214  10.192  0.3497  0.1195 -0.2079
  229loPI    C2 3650   2.964   4.863  10.037  0.0934 -0.1353  0.1678
  229loPI    C3 3651   3.097   4.973  10.398 -0.1850 -0.0559  0.2486
  229loPI   PO4 3652   2.604   5.273  10.122 -0.1519  0.1887 -0.0900
  229loPI   GL1 3653   2.622   5.351   9.695 -0.3702  0.2427  0.1838
  229loPI   GL2 3654   2.662   4.995   9.688 -0.2701 -0.1704 -0.0039
  229loPI   C1A 3655   2.554   5.595   9.312 -0.1997 -0.1448 -0.4116
  229loPI   C2A 3656   2.451   5.453   8.946  0.0619 -0.3494  0.1595
  229loPI   C3A 3657   2.562   5.512   8.537 -0.1825 -0.4208 -0.0985
  229loPI   C4A 3658   2.573   5.707   8.179  0.0229 -0.1766 -0.3177
  229loPI   C5A 3659   2.360   5.796   7.663 -0.0019 -0.0036  0.1544
  229loPI   C6A 3660   2.070   5.844   7.384  0.1879 -0.2270  0.0118
  229loPI   C1B 3661   2.632   5.003   9.272  0.3311 -0.1675  0.2361
  229loPI   C2B 3662   2.636   5.054   8.806 -0.1652  0.3016  0.2618
  229loPI   C3B 3663   2.832   5.122   8.328  0.1188  0.1919 -0.0940
  229loPI   C4B 3664   2.926   4.922   8.003 -0.1347  0.0930 -0.0952
  230loPI    C1 3665   5.561  13.036  10.251 -0.0476 -0.0456 -0.0376
  230loPI    C2 3666   5.520  13.048  10.649 -0.1796  0.2505 -0.0572
  230loPI    C3 3667   5.205  12.963  10.418  0.0019 -0.4054 -0.0826
  230loPI   PO4 3668   5.710  12.865  10.096  0.0295 -0.1789 -0.0161
  230loPI   GL1 3669   5.834  12.561   9.777 -0.0904  0.1900  0.3496
  230loPI   GL2 3670   6.190  12.475   9.772 -0.1849  0.0085 -0.1588
  230loPI   C1A 3671   5.867  12.634   9.347 -0.1387 -0.4714  0.1750
  230loPI   C2A 3672   5.828  12.592   8.990 -0.1842  0.1393  0.0324
  230loPI   C3A 3673   5.773  12.627   8.608  0.0574  0.0335  0.2329
  230loPI   C4A 3674   5.478  12.747   8.307  0.3296  0.2958 -0.0207
  230loPI   C5A 3675   5.580  12.783   7.877  0.3192  0.2012 -0.1077
  230loPI   C6A 3676   5.752  13.038   7.469 -0.2257 -0.2551 -0.1290
  230loPI   C1B 3677   6.419  12.563   9.384  0.0234 -0.0750 -0.2454
  230loPI   C2B 3678   6.436  12.799   8.989 -0.0824  0.2133  0.0890
  230loPI   C3B 3679   6.313  12.784   8.541  0.4044  0.3518  0.2939
  230loPI   C4B 3680   6.452  12.625   8.192  0.0016  0.4375 -0.1668
  231loPI    C1 3681  16.970  11.392  10.464 -0.2507 -0.0269 -0.1374
  231loPI    C2 3682  17.279  11.244  10.671 -0.1616  0.0633 -0.2049
  231loPI    C3 3683  16.987  11.441  10.861 -0.2580 -0.1576 -0.1204
  231loPI   PO4 3684  16.879  11.222  10.321 -0.2832  0.1871 -0.0459
  231loPI   GL1 3685  16.674  11.553   9.906  0.0875 -0.3763  0.1684
  231loPI   GL2 3686  16.309  11.647   9.840  0.3211 -0.1388  0.1036
  231loPI   C1A 3687  16.943  11.505   9.556  0.0294  0.0576  0.2133
  231loPI   C2A 3688  17.147  11.489   9.105  0.0323 -0.1703  0.1781
  231loPI   C3A 3689  17.180  11.256   8.672  0.0505 -0.0015  0.2534
  231loPI   C4A 3690  17.003  11.453   8.470  0.4064  0.2002  0.1724
  231loPI   C5A 3691  16.677  11.683   8.288  0.0985  0.0989 -0.0684
  231loPI   C6A 3692  16.213  11.762   8.278  0.0253  0.0457 -0.1648
  231loPI   C1B 3693  16.457  11.764   9.480 -0.2205 -0.4038  0.2239
  231loPI   C2B 3694  16.550  11.793   8.969  0.0660 -0.0053 -0.1259
  231loPI   C3B 3695  16.516  11.992   8.620 -0.0246 -0.1225 -0.3813
  231loPI   C4B 3696  16.588  12.440   8.523  0.0433  0.3617 -0.1015
  232loPI    C1 3697  11.898  11.335   9.901 -0.0399 -0.3304 -0.1240
  232loPI    C2 3698  12.092  11.678   9.971  0.0228 -0.3933  0.0131
  232loPI    C3 3699  11.828  11.539  10.238 -0.2126 -0.3086 -0.1720
  232loPI   PO4 3700  12.012  11.158   9.807 -0.3553 -0.0721  0.0970
  232loPI   GL1 3701  11.900  10.822   9.492  0.0431  0.1033  0.0082
  232loPI   GL2 3702  11.830  11.046   9.186 -0.0324  0.1497  0.0562
  232loPI   C1A 3703  12.320  10.766   9.369 -0.0453  0.0308 -0.3148
  232loPI   C2A 3704  12.589  10.574   9.064  0.0204 -0.0183  0.0580
  232loPI   C3A 3705  12.741  10.568   8.669 -0.2782 -0.1214 -0.1995
  232loPI   C4A 3706  12.693  10.397   8.292  0.1410  0.2135 -0.2797
  232loPI   C5A 3707  12.513  10.306   7.799 -0.0511  0.0080 -0.1565
  232loPI   C6A 3708  12.690  10.245   7.445  0.0979 -0.0828  0.0436
  232loPI   C1B 3709  11.795  11.169   8.661 -0.1772  0.0995 -0.3415
  232loPI   C2B 3710  11.864  11.095   8.196  0.0454 -0.2338 -0.0223
  232loPI   C3B 3711  11.999  11.155   7.815 -0.1691  0.0311  0.0390
  232loPI   C4B 3712  12.091  10.987   7.352  0.0938  0.1284 -0.0216
  233loPI    C1 3713  17.009   0.922  10.221  0.0660 -0.1815  0.1681
  233loPI    C2 3714  16.636   0.994  10.345 -0.0764  0.0430 -0.3639
  233loPI    C3 3715  16.933   1.240  10.451 -0.0691 -0.1447  0.0735
  233loPI   PO4 3716  16.862   0.800   9.933 -0.1779 -0.3735 -0.0293
  233loPI   GL1 3717  16.764   0.895   9.651  0.2039 -0.0802 -0.0267
  233loPI   GL2 3718  16.666   1.114   9.553 -0.3015  0.0987  0.1632
  233loPI   C1A 3719  16.811   0.634   9.338 -0.3219  0.0996  0.0211
  233loPI   C2A 3720  16.777   0.511   8.961  0.2376 -0.2840 -0.1568
  233loPI   C3A 3721  16.814   0.590   8.495  0.1295 -0.2491  0.4633
  233loPI   C4A 3722  16.988   0.661   8.071  0.2785  0.0517  0.0645
  233loPI   C5A 3723  16.930   0.276   7.772  0.2189  0.2856  0.2147
  233loPI   C6A 3724  17.013  -0.113   7.852 -0.2727  0.3905  0.4153
  233loPI   C1B 3725  16.664   1.087   9.139 -0.0766  0.2392 -0.3065
  233loPI   C2B 3726  16.605   0.952   8.696  0.1380  0.0996  0.1731
  233loPI   C3B 3727  16.542   1.001   8.282 -0.2725  0.0471  0.4196
  233loPI   C4B 3728  16.578   1.172   7.961  0.3364 -0.0324  0.0856
  234loPI    C1 3729  12.192   9.489   9.885 -0.0258 -0.2914 -0.1690
  234loPI    C2 3730  11.853   9.335  10.030 -0.1130  0.1499  0.1157
  234loPI    C3 3731  12.166   9.393  10.272  0.1046 -0.0763 -0.1050
  234loPI   PO4 3732  12.152   9.674   9.738 -0.0490 -0.3487  0.2401
  234loPI   GL1 3733  12.039   9.859   9.347 -0.0920  0.2406 -0.2064
  234loPI   GL2 3734  12.303   9.696   9.251 -0.0280 -0.3112  0.2843
  234loPI   C1A 3735  11.906  10.000   9.113 -0.0406  0.0783  0.1390
  234loPI   C2A 3736  11.851  10.087   8.751 -0.0175 -0.2511  0.1977
  234loPI   C3A 3737  11.637   9.872   8.570 -0.0924 -0.2275  0.2191
  234loPI   C4A 3738  11.664   9.764   8.127 -0.0918 -0.0555 -0.2459
  234loPI   C5A 3739  11.792   9.551   7.857 -0.0109  0.2972 -0.0269
  234loPI   C6A 3740  11.879   9.737   7.485  0.0202  0.0371  0.0895
  234loPI   C1B 3741  12.596   9.583   8.898 -0.0587 -0.1652 -0.0172
  234loPI   C2B 3742  12.837   9.571   8.651 -0.1496 -0.1786 -0.1787
  234loPI   C3B 3743  13.051   9.572   8.168  0.2230 -0.0615  0.1212
  234loPI   C4B 3744  13.056   9.378   7.808  0.3051  0.1678 -0.0708
  235loPI    C1 3745  10.987  15.979   9.834 -0.1602 -0.0362 -0.1612
  235loPI    C2 3746  11.241  16.195  10.055 -0.0359 -0.2221 -0.1202
  235loPI    C3 3747  10.848  16.265  10.077  0.0133  0.1055 -0.2258
  235loPI   PO4 3748  10.994  16.025   9.580 -0.0107  0.0451 -0.0905
  235loPI   GL1 3749  11.032  15.846   9.208 -0.3691  0.1599 -0.0418
  235loPI   GL2 3750  10.853  15.587   9.059  0.0652  0.0522  0.0684
  235loPI   C1A 3751  11.301  15.639   8.874  0.0979 -0.1882  0.4252
  235loPI   C2A 3752  11.390  15.568   8.439  0.0421 -0.1623  0.2389
  235loPI   C3A 3753  11.444  15.586   8.090  0.2812  0.2582 -0.1724
  235loPI   C4A 3754  11.345  15.753   7.676  0.0642  0.0036  0.1813
  235loPI   C5A 3755  11.293  15.567   7.260  0.0015  0.1109  0.2794
  235loPI   C6A 3756  11.149  15.207   7.172 -0.2065 -0.0700  0.1239
  235loPI   C1B 3757  10.872  15.538   8.628  0.0648 -0.3008  0.4339
  235loPI   C2B 3758  10.878  15.521   8.295 -0.0722  0.1519  0.0462
  235loPI   C3B 3759  10.824  15.367   7.843 -0.2389 -0.0053  0.2774
  235loPI   C4B 3760  10.781  15.378   7.501 -0.3916 -0.1592  0.2152
  236loPI    C1 3761   8.494  14.192   9.897 -0.2764  0.1183  0.0182
  236loPI    C2 3762   8.487  14.331  10.273  0.4243 -0.2146  0.1709
  236loPI    C3 3763   8.780  14.441  10.024 -0.0468  0.0225 -0.2990
  236loPI   PO4 3764   8.195  14.025   9.826 -0.0257 -0.2374  0.2446
  236loPI   GL1 3765   7.849  13.818   9.521  0.1888  0.1015 -0.1104
  236loPI   GL2 3766   7.876  14.026   9.354  0.1745 -0.0579 -0.2852
  236loPI   C1A 3767   7.828  13.528   9.177 -0.3536  0.2079  0.0020
  236loPI   C2A 3768   7.583  13.471   8.781  0.0237 -0.1312 -0.2077
  236loPI   C3A 3769   7.522  13.380   8.404  0.1796 -0.0756 -0.0738
  236loPI   C4A 3770   7.472  13.310   7.924  0.4144 -0.0449  0.1119
  236loPI   C5A 3771   7.400  13.099   7.643 -0.0951  0.2059 -0.2638
  236loPI   C6A 3772   7.568  12.789   7.369  0.2718  0.1236 -0.0200
  236loPI   C1B 3773   7.898  13.900   8.862  0.2653  0.0369 -0.0815
  236loPI   C2B 3774   7.840  13.800   8.445 -0.1827 -0.4743 -0.0276
  236loPI   C3B 3775   7.897  13.515   8.127 -0.0100  0.0557  0.2404
  236loPI   C4B 3776   8.264  13.458   7.866 -0.2128  0.0115 -0.0647
  237loPI    C1 3777  18.200   6.270   9.874  0.0954 -0.2335 -0.2423
  237loPI    C2 3778  18.078   6.240  10.254 -0.0248  0.2056 -0.2414
  237loPI    C3 3779  18.372   6.005  10.119  0.0110  0.0380  0.1183
  237loPI   PO4 3780  17.857   6.244   9.708 -0.2899 -0.2217 -0.2933
  237loPI   GL1 3781  17.718   6.131   9.262  0.1040  0.1974 -0.0651
  237loPI   GL2 3782  17.899   5.982   9.197  0.0469  0.0723 -0.1814
  237loPI   C1A 3783  17.734   6.463   8.891 -0.1591  0.0154  0.1300
  237loPI   C2A 3784  17.702   6.601   8.582  0.1441  0.0312 -0.1578
  237loPI   C3A 3785  17.330   6.530   8.305 -0.2296 -0.1196 -0.1626
  237loPI   C4A 3786  16.840   6.600   8.129 -0.0435 -0.1785 -0.0777
  237loPI   C5A 3787  16.635   6.253   7.942  0.0281 -0.3091  0.0186
  237loPI   C6A 3788  16.670   5.832   7.896 -0.1127 -0.3019  0.0394
  237loPI   C1B 3789  17.908   5.997   8.773  0.0267 -0.0285 -0.1472
  237loPI   C2B 3790  18.061   6.273   8.325 -0.2392  0.1433  0.1696
  237loPI   C3B 3791  17.872   6.623   8.124  0.1613  0.1299  0.1623
  237loPI   C4B 3792  17.649   6.988   8.212 -0.0275 -0.0470 -0.0736
  238loPI    C1 3793  12.235   2.708  10.325  0.0625  0.1845 -0.1707
  238loPI    C2 3794  11.968   2.999  10.385  0.0350  0.1714 -0.2289
  238loPI    C3 3795  12.302   2.986  10.604 -0.1564  0.0102  0.0605
  238loPI   PO4 3796  12.290   2.705  10.065  0.0872 -0.0806  0.0132
  238loPI   GL1 3797  12.453   2.971   9.766  0.2657  0.0298 -0.1492
  238loPI   GL2 3798  12.352   3.154   9.548 -0.2828 -0.1424 -0.1945
  238loPI   C1A 3799  12.583   2.672   9.401  0.2504  0.0399  0.3359
  238loPI   C2A 3800  12.754   2.683   8.995  0.0150 -0.1004  0.3186
  238loPI   C3A 3801  12.605   2.640   8.592 -0.2377 -0.0199  0.3334
  238loPI   C4A 3802  12.365   2.534   8.279  0.1291 -0.1029  0.2947
  238loPI   C5A 3803  12.190   2.658   7.825 -0.1428  0.1313 -0.3023
  238loPI   C6A 3804  11.933   2.522   7.454 -0.0472  0.1926  0.0552
  238loPI   C1B 3805  12.481   3.134   9.195  0.0427 -0.3711 -0.2171
  238loPI   C2B 3806  12.587   3.125   8.762 -0.1274 -0.0770  0.0979
  238loPI   C3B 3807  12.653   3.000   8.283  0.1850 -0.0126 -0.1138
  238loPI   C4B 3808  12.510   3.074   7.888 -0.2952  0.4365  0.2215
  239loPI    C1 3809  12.487  11.538   9.727  0.1520  0.2540  0.1264
  239loPI    C2 3810  12.776  11.341   9.920  0.1081  0.0482 -0.0149
  239loPI    C3 3811  12.514  11.140   9.694 -0.0709  0.2467  0.0138
  239loPI   PO4 3812  12.565  11.706   9.552 -0.0508 -0.0711  0.3495
  239loPI   GL1 3813  12.716  11.690   9.234  0.1146  0.3131 -0.0539
  239loPI   GL2 3814  12.974  11.495   9.403 -0.1725  0.1049 -0.0547
  239loPI   C1A 3815  12.774  11.463   8.830  0.1118  0.3426 -0.2044
  239loPI   C2A 3816  12.630  11.370   8.545  0.1370  0.1735 -0.1113
  239loPI   C3A 3817  12.715  11.312   8.132  0.2724  0.3119  0.1717
  239loPI   C4A 3818  12.509  11.083   7.896  0.0597  0.0347 -0.0651
  239loPI   C5A 3819  12.676  10.743   7.504 -0.1234  0.4578  0.0369
  239loPI   C6A 3820  13.235  10.711   7.491  0.1156  0.1262 -0.0851
  239loPI   C1B 3821  13.223  11.540   9.079  0.2829 -0.1257 -0.2313
  239loPI   C2B 3822  13.340  11.341   8.689  0.1720  0.0393 -0.0030
  239loPI   C3B 3823  13.236  11.293   8.246 -0.1294  0.0991  0.1799
  239loPI   C4B 3824  13.058  11.193   7.777  0.1147 -0.0923 -0.0380
  240loPI    C1 3825   8.359  11.405   9.944 -0.0675 -0.1157  0.1089
  240loPI    C2 3826   7.973  11.505   9.915 -0.0469 -0.0543  0.0437
  240loPI    C3 3827   8.113  11.345  10.254 -0.1568 -0.1963  0.0229
  240loPI   PO4 3828   8.478  11.611   9.811  0.2160  0.0254 -0.2367
  240loPI   GL1 3829   8.611  11.821   9.468 -0.3216 -0.0654 -0.3025
  240loPI   GL2 3830   8.478  12.002   9.235  0.1753  0.1455 -0.1063
  240loPI   C1A 3831   8.822  11.656   9.110  0.0269  0.3301 -0.2111
  240loPI   C2A 3832   8.661  11.366   8.796 -0.1914  0.1809  0.2620
  240loPI   C3A 3833   8.552  11.481   8.380 -0.1453 -0.0351  0.0653
  240loPI   C4A 3834   8.374  11.530   8.009 -0.0254  0.0184  0.3189
  240loPI   C5A 3835   8.300  11.763   7.702  0.0789 -0.0176  0.0669
  240loPI   C6A 3836   8.139  11.466   7.287 -0.1223  0.0550  0.0871
  240loPI   C1B 3837   8.660  12.008   8.821 -0.2651  0.3995  0.1934
  240loPI   C2B 3838   8.672  11.961   8.358 -0.1298  0.0660  0.1878
  240loPI   C3B 3839   8.796  11.862   7.986 -0.0286  0.0798  0.0940
  240loPI   C4B 3840   8.787  11.628   7.593 -0.0904 -0.2912  0.2063
  241loPI    C1 3841   2.143   9.296  10.104  0.1467 -0.0029 -0.1045
  241loPI    C2 3842   2.311   8.932  10.096  0.2252  0.0269  0.1058
  241loPI    C3 3843   2.105   9.050  10.418  0.1929  0.1662  0.0349
  241loPI   PO4 3844   2.086   9.310   9.879  0.0389  0.0335  0.2622
  241loPI   GL1 3845   2.217   9.406   9.455  0.1261  0.3864  0.2326
  241loPI   GL2 3846   2.077   9.631   9.403  0.0163 -0.1499  0.1208
  241loPI   C1A 3847   2.018   9.072   9.238  0.2079 -0.0203  0.0392
  241loPI   C2A 3848   2.080   8.916   8.859  0.3577  0.0272 -0.2529
  241loPI   C3A 3849   2.208   8.925   8.493 -0.1584 -0.1901  0.2060
  241loPI   C4A 3850   2.206   9.053   8.029 -0.0718  0.0052 -0.1043
  241loPI   C5A 3851   2.275   8.813   7.741 -0.1037  0.0073  0.0865
  241loPI   C6A 3852   2.269   8.366   7.479  0.0876  0.1317 -0.2794
  241loPI   C1B 3853   1.989   9.852   9.011 -0.0736  0.1936 -0.1149
  241loPI   C2B 3854   2.004   9.887   8.610  0.3598 -0.3388  0.1889
  241loPI   C3B 3855   1.835   9.804   8.195  0.1248  0.2234  0.0239
  241loPI   C4B 3856   1.854  10.099   7.764  0.0840 -0.0931 -0.1908
  242loPI    C1 3857  14.236  15.041   9.930 -0.1325 -0.1211 -0.0824
  242loPI    C2 3858  13.990  14.731   9.876 -0.1944 -0.0755 -0.0635
  242loPI    C3 3859  13.925  14.989  10.175 -0.1094 -0.0771 -0.0434
  242loPI   PO4 3860  14.270  15.194   9.728 -0.1067  0.2537 -0.3136
  242loPI   GL1 3861  14.546  15.169   9.391  0.0385 -0.2721  0.2832
  242loPI   GL2 3862  14.424  14.761   9.470 -0.0193  0.3049 -0.0084
  242loPI   C1A 3863  14.770  15.156   8.972  0.0548 -0.0275  0.0672
  242loPI   C2A 3864  14.896  15.265   8.549  0.1514  0.2898  0.2207
  242loPI   C3A 3865  15.118  15.244   8.097  0.0929 -0.1047 -0.0979
  242loPI   C4A 3866  14.976  15.491   7.700  0.0700  0.1145 -0.0838
  242loPI   C5A 3867  14.702  15.814   7.702 -0.2896  0.1878 -0.2192
  242loPI   C6A 3868  14.375  16.007   7.596  0.1610 -0.2881  0.1453
  242loPI   C1B 3869  14.499  14.689   9.014 -0.0798  0.0769  0.1842
  242loPI   C2B 3870  14.571  14.694   8.575  0.1359 -0.1761  0.0270
  242loPI   C3B 3871  14.886  14.684   8.301  0.1365 -0.2172 -0.0863
  242loPI   C4B 3872  15.067  14.738   7.925  0.0526  0.0447 -0.2889
  243loPI    C1 3873  18.171   2.861  10.210 -0.2347 -0.4276  0.1318
  243loPI    C2 3874  17.901   3.154  10.181  0.0402 -0.1733  0.0943
  243loPI    C3 3875  18.025   3.031  10.541  0.3836  0.1935  0.1086
  243loPI   PO4 3876  18.293   2.837   9.932 -0.1710  0.0699  0.1323
  243loPI   GL1 3877  18.222   2.827   9.551  0.0444 -0.1678 -0.0242
  243loPI   GL2 3878  17.993   2.895   9.439 -0.3383  0.0108 -0.1889
  243loPI   C1A 3879  18.528   2.954   9.282  0.0632 -0.2255 -0.0070
  243loPI   C2A 3880  18.594   2.793   8.798  0.2518  0.3281 -0.1474
  243loPI   C3A 3881  18.542   2.741   8.330 -0.3180  0.0330  0.2547
  243loPI   C4A 3882  18.323   2.790   7.934 -0.3756 -0.1224 -0.0229
  243loPI   C5A 3883  18.201   2.743   7.583  0.1430 -0.1754 -0.1655
  243loPI   C6A 3884  17.829   2.762   7.428 -0.0980 -0.0826 -0.1838
  243loPI   C1B 3885  18.133   2.688   9.006 -0.2623 -0.3620 -0.1334
  243loPI   C2B 3886  18.075   2.611   8.577  0.0056 -0.1127  0.2755
  243loPI   C3B 3887  18.042   2.493   8.142  0.0522  0.0796  0.0503
  243loPI   C4B 3888  17.907   2.448   7.796  0.1415 -0.0883 -0.0900
  244loPI    C1 3889  18.495   4.635   9.806  0.0747  0.0370  0.0260
  244loPI    C2 3890  18.112   4.656   9.693  0.1085 -0.0740 -0.1122
  244loPI    C3 3891  18.206   4.506  10.051  0.0345 -0.2312 -0.1577
  244loPI   PO4 3892  18.578   4.830   9.762  0.0992 -0.1872  0.2315
  244loPI   GL1 3893  18.425   4.922   9.379 -0.4259  0.2794 -0.2350
  244loPI   GL2 3894  18.194   4.727   9.203  0.2793  0.1264 -0.2523
  244loPI   C1A 3895  18.729   4.892   9.096  0.2027  0.1726  0.0761
  244loPI   C2A 3896  18.970   4.957   8.765  0.0422  0.2326  0.2103
  244loPI   C3A 3897  19.103   5.186   8.402 -0.0594 -0.1511  0.0319
  244loPI   C4A 3898  19.083   5.201   7.965  0.4165 -0.1237  0.0813
  244loPI   C5A 3899  19.084   5.278   7.588 -0.1416  0.4978 -0.2560
  244loPI   C6A 3900  19.457   5.243   7.286 -0.0356 -0.0151  0.2165
  244loPI   C1B 3901  18.154   4.728   8.763  0.1862 -0.0011  0.0589
  244loPI   C2B 3902  18.208   4.700   8.386 -0.0832 -0.0138 -0.0345
  244loPI   C3B 3903  18.377   4.742   7.960  0.0476  0.1354 -0.1883
  244loPI   C4B 3904  18.537   4.774   7.675  0.2711 -0.0670  0.0850
  245loPI    C1 3905  11.178   2.811  10.298  0.0612 -0.1541 -0.2291
  245loPI    C2 3906  10.961   3.046  10.537  0.0313 -0.0899 -0.3186
  245loPI    C3 3907  11.321   2.919  10.655  0.0876  0.0772 -0.3079
  245loPI   PO4 3908  10.897   2.586  10.211  0.1613 -0.1650  0.2733
  245loPI   GL1 3909  10.737   2.290   9.923  0.0010 -0.0529  0.0549
  245loPI   GL2 3910  10.689   2.535   9.766 -0.2959 -0.0245 -0.0219
  245loPI   C1A 3911  10.679   2.012   9.661 -0.1087 -0.0100  0.1934
  245loPI   C2A 3912  10.352   1.922   9.289 -0.1806 -0.2079 -0.3087
  245loPI   C3A 3913  10.476   1.985   8.912  0.0015  0.1095  0.3377
  245loPI   C4A 3914  10.487   1.997   8.374 -0.0217 -0.1314 -0.0818
  245loPI   C5A 3915  10.795   2.234   8.048  0.4236  0.2541 -0.3633
  245loPI   C6A 3916  11.118   2.058   7.860 -0.2216  0.1434  0.4509
  245loPI   C1B 3917  10.668   2.393   9.349 -0.0194  0.4784  0.0421
  245loPI   C2B 3918  10.727   2.424   8.854  0.1293 -0.1490 -0.1737
  245loPI   C3B 3919  10.611   2.497   8.485 -0.2859  0.2778  0.0038
  245loPI   C4B 3920  10.420   2.596   8.157  0.2395  0.0633 -0.1119
  246loPI    C1 3921   1.288   8.627  10.208 -0.0794 -0.0839 -0.0847
  246loPI    C2 3922   1.604   8.821  10.357 -0.1454 -0.0471  0.0079
  246loPI    C3 3923   1.260   8.810  10.562 -0.2791  0.1199 -0.2030
  246loPI   PO4 3924   1.375   8.617   9.880  0.4622  0.0431  0.1108
  246loPI   GL1 3925   1.587   8.537   9.546 -0.3557 -0.0978 -0.4858
  246loPI   GL2 3926   1.848   8.298   9.508 -0.1337  0.0359 -0.3537
  246loPI   C1A 3927   1.652   8.697   9.219  0.1669  0.2144  0.1569
  246loPI   C2A 3928   1.547   8.957   8.822  0.2441  0.4061  0.4228
  246loPI   C3A 3929   1.752   8.948   8.359 -0.0647  0.1799  0.2050
  246loPI   C4A 3930   1.647   9.283   7.941 -0.0269  0.1197 -0.1424
  246loPI   C5A 3931   1.596   9.592   7.676 -0.1227 -0.0804 -0.0148
  246loPI   C6A 3932   1.481   9.927   7.403  0.2481  0.1481  0.1103
  246loPI   C1B 3933   2.006   8.362   9.090 -0.0391  0.0404  0.0247
  246loPI   C2B 3934   1.975   8.385   8.730  0.0658 -0.0511  0.1603
  246loPI   C3B 3935   2.116   8.458   8.473  0.1126 -0.3673 -0.0350
  246loPI   C4B 3936   2.220   8.442   8.111 -0.0966  0.1969  0.1477
  247loPI    C1 3937  17.032  13.007  10.270 -0.0079 -0.0082 -0.3039
  247loPI    C2 3938  16.664  12.854  10.307 -0.0308  0.1448  0.1541
  247loPI    C3 3939  16.939  12.786  10.590  0.2721  0.1005 -0.1444
  247loPI   PO4 3940  17.079  13.071  10.036 -0.1722 -0.1604 -0.0395
  247loPI   GL1 3941  16.999  12.937   9.537  0.1463 -0.1478 -0.2005
  247loPI   GL2 3942  17.100  12.738   9.265  0.2211 -0.4119 -0.0299
  247loPI   C1A 3943  17.086  13.180   9.083 -0.2467 -0.0465 -0.0309
  247loPI   C2A 3944  17.142  13.214   8.635  0.0621  0.2851  0.1828
  247loPI   C3A 3945  17.374  13.136   8.169  0.0328  0.0619  0.0657
  247loPI   C4A 3946  17.287  13.310   7.835 -0.2476  0.4492  0.5203
  247loPI   C5A 3947  17.413  13.374   7.305  0.1903  0.2955 -0.1891
  247loPI   C6A 3948  17.586  13.115   6.987  0.1747 -0.2061  0.0426
  247loPI   C1B 3949  17.540  12.794   9.068  0.1261 -0.2928 -0.2108
  247loPI   C2B 3950  17.547  12.835   8.626  0.0412  0.2227 -0.3922
  247loPI   C3B 3951  17.726  12.810   8.313 -0.0824 -0.0518 -0.2042
  247loPI   C4B 3952  17.880  12.569   7.930 -0.1942  0.3076 -0.1936
  248loPI    C1 3953  18.718  18.344  10.331  0.0231  0.1413 -0.2151
  248loPI    C2 3954  18.628  18.725  10.411 -0.0228  0.1288 -0.2060
  248loPI    C3 3955  18.719  18.474  10.709 -0.2091  0.0775 -0.1913
  248loPI   PO4 3956  18.846  18.293  10.106 -0.1832  0.0041  0.6286
  248loPI   GL1 3957  19.109  18.144   9.774  0.1417  0.2324 -0.0707
  248loPI   GL2 3958  19.024  18.366   9.576  0.0459  0.4404 -0.2247
  248loPI   C1A 3959  19.104  17.838   9.439 -0.0441  0.1242 -0.0247
  248loPI   C2A 3960  19.185  17.823   8.937 -0.1589 -0.2490 -0.1422
  248loPI   C3A 3961  19.073  18.100   8.625  0.1771  0.3482  0.0209
  248loPI   C4A 3962  18.763  18.200   8.354 -0.1148 -0.0087 -0.2941
  248loPI   C5A 3963  18.465  18.045   7.942  0.0410 -0.1728 -0.0474
  248loPI   C6A 3964  18.200  18.359   7.694  0.1863 -0.1011  0.0677
  248loPI   C1B 3965  19.103  18.319   9.237 -0.1735 -0.4045  0.1121
  248loPI   C2B 3966  18.801  18.233   9.040  0.3251 -0.1163 -0.1805
  248loPI   C3B 3967  18.478  18.144   8.729  0.0411  0.0801 -0.0500
  248loPI   C4B 3968  18.336  17.958   8.396  0.0921 -0.2926 -0.0962
  249loPI    C1 3969  17.229   0.502  10.231 -0.1194 -0.1807 -0.0939
  249loPI    C2 3970  17.428   0.380  10.556  0.0088 -0.0842 -0.1354
  249loPI    C3 3971  17.091   0.592  10.596  0.1659  0.1566 -0.0636
  249loPI   PO4 3972  17.286   0.215  10.042  0.3396 -0.1339 -0.1048
  249loPI   GL1 3973  17.368   0.038   9.699  0.2831  0.0213  0.0646
  249loPI   GL2 3974  17.625   0.136   9.609  0.0203  0.0014 -0.0165
  249loPI   C1A 3975  17.211  -0.056   9.249  0.0218 -0.1613  0.0460
  249loPI   C2A 3976  17.157  -0.031   8.843  0.1025 -0.0579  0.0413
  249loPI   C3A 3977  17.002   0.146   8.599 -0.0527 -0.0999 -0.1602
  249loPI   C4A 3978  17.173   0.124   8.218  0.0272  0.2803 -0.1923
  249loPI   C5A 3979  17.411   0.372   8.056  0.0996  0.1433  0.0299
  249loPI   C6A 3980  17.324   0.561   7.708 -0.0049  0.0112 -0.0404
  249loPI   C1B 3981  17.670   0.091   9.188  0.0563 -0.0576 -0.0667
  249loPI   C2B 3982  17.624   0.174   8.670  0.0082  0.0217 -0.0333
  249loPI   C3B 3983  17.909   0.100   8.355  0.0662 -0.2707 -0.1188
  249loPI   C4B 3984  18.070   0.085   7.895 -0.0679 -0.3170 -0.1762
  250loPI    C1 3985   8.986  15.040   9.985  0.1914  0.1346 -0.2549
  250loPI    C2 3986   8.620  15.197  10.021  0.1175 -0.0830 -0.0280
  250loPI    C3 3987   8.884  15.237  10.318  0.3318  0.2019 -0.2510
  250loPI   PO4 3988   8.933  14.860   9.853  0.2133 -0.3828 -0.2271
  250loPI   GL1 3989   8.779  14.780   9.340  0.2135  0.3491  0.1793
  250loPI   GL2 3990   9.034  14.477   9.560  0.1551  0.2170 -0.1480
  250loPI   C1A 3991   8.421  14.572   9.320  0.0920  0.0579 -0.0677
  250loPI   C2A 3992   8.164  14.270   9.085  0.0826  0.0460 -0.0692
  250loPI   C3A 3993   8.158  14.241   8.594  0.2433  0.1488  0.1956
  250loPI   C4A 3994   8.520  14.557   8.431  0.0762 -0.0408 -0.2363
  250loPI   C5A 3995   8.767  14.877   8.263  0.3035 -0.2542 -0.2247
  250loPI   C6A 3996   8.583  14.958   7.909 -0.1979 -0.1976 -0.0632
  250loPI   C1B 3997   9.016  14.405   9.111  0.0170  0.0164  0.1965
  250loPI   C2B 3998   9.123  14.430   8.707  0.2669  0.0397  0.0230
  250loPI   C3B 3999   9.033  14.463   8.369  0.2286 -0.0068 -0.2121
  250loPI   C4B 4000   9.127  14.533   7.961 -0.0082 -0.2265  0.0413
  251loPI    C1 4001  16.088  13.382  10.134 -0.0463  0.0842 -0.0301
  251loPI    C2 4002  16.242  13.047  10.290  0.0822  0.1771  0.0442
  251loPI    C3 4003  16.266  13.391  10.492  0.2023  0.2881 -0.1561
  251loPI   PO4 4004  16.202  13.535   9.894  0.3698  0.0611  0.1623
  251loPI   GL1 4005  16.314  13.748   9.582 -0.4070 -0.0226  0.2243
  251loPI   GL2 4006  16.502  13.463   9.456 -0.2259 -0.0545 -0.1551
  251loPI   C1A 4007  16.270  13.848   9.127  0.2876 -0.0076 -0.0754
  251loPI   C2A 4008  16.311  13.759   8.748 -0.0476 -0.0540  0.2255
  251loPI   C3A 4009  16.308  13.907   8.363  0.4795 -0.2299 -0.4931
  251loPI   C4A 4010  16.212  14.020   7.888 -0.0163  0.1597 -0.1782
  251loPI   C5A 4011  15.958  14.283   7.592  0.2223 -0.1904 -0.0998
  251loPI   C6A 4012  15.693  14.153   7.298 -0.0659  0.0613  0.0022
  251loPI   C1B 4013  16.951  13.498   9.439  0.0140  0.0309  0.2112
  251loPI   C2B 4014  17.189  13.674   9.070 -0.0492 -0.0544 -0.4628
  251loPI   C3B 4015  17.234  13.778   8.564  0.1352  0.0058  0.1484
  251loPI   C4B 4016  17.425  13.802   8.150  0.1316  0.2117 -0.0515
  252loPI    C1 4017   8.855   1.183  10.743  0.2035  0.0367 -0.1683
  252loPI    C2 4018   8.817   1.554  10.889  0.1613 -0.0940  0.1610
  252loPI    C3 4019   8.536   1.405  10.646  0.0554  0.0017  0.2239
  252loPI   PO4 4020   9.155   1.210  10.581  0.1446 -0.0463 -0.2719
  252loPI   GL1 4021   9.147   1.183  10.239  0.0049 -0.0180 -0.0501
  252loPI   GL2 4022   9.274   1.428  10.092  0.3108  0.0044  0.3891
  252loPI   C1A 4023   8.860   1.226   9.754  0.2593 -0.0153  0.0368
  252loPI   C2A 4024   8.565   1.412   9.425  0.4323 -0.4017  0.2440
  252loPI   C3A 4025   8.276   1.495   9.059  0.1953  0.1966  0.0390
  252loPI   C4A 4026   8.082   1.470   8.648  0.0488  0.2834  0.3448
  252loPI   C5A 4027   8.050   1.450   8.202  0.2456  0.0682  0.1675
  252loPI   C6A 4028   7.902   1.690   7.841  0.1397  0.0960  0.1509
  252loPI   C1B 4029   9.333   1.298   9.622 -0.1304  0.2010  0.1019
  252loPI   C2B 4030   9.470   1.429   9.230 -0.2596 -0.3789 -0.0185
  252loPI   C3B 4031   9.493   1.712   8.812 -0.0599 -0.0340 -0.0555
  252loPI   C4B 4032   9.643   1.951   8.535 -0.3702  0.1357  0.0704
  253loPI    C1 4033   4.678  12.857  10.215  0.0042 -0.0943 -0.2763
  253loPI    C2 4034   4.862  12.556  10.403  0.1157  0.2244  0.1382
  253loPI    C3 4035   4.490  12.508  10.265  0.1817 -0.1428  0.0796
  253loPI   PO4 4036   4.897  12.964  10.022  0.1483  0.1910  0.0595
  253loPI   GL1 4037   4.801  13.105   9.635  0.1606  0.3305 -0.2666
  253loPI   GL2 4038   4.529  12.902   9.720  0.3886  0.3358 -0.0904
  253loPI   C1A 4039   4.690  13.301   9.348  0.0272  0.1167 -0.2716
  253loPI   C2A 4040   4.719  13.237   8.936  0.4635 -0.1741  0.1287
  253loPI   C3A 4041   4.540  13.079   8.454 -0.0509  0.1083 -0.2254
  253loPI   C4A 4042   4.687  12.838   8.012  0.1310 -0.0934 -0.2113
  253loPI   C5A 4043   4.541  12.392   7.900  0.0853 -0.0148 -0.1571
  253loPI   C6A 4044   4.630  11.970   7.786 -0.4462  0.3441 -0.1977
  253loPI   C1B 4045   4.161  12.846   9.435 -0.2674 -0.1315  0.2691
  253loPI   C2B 4046   4.050  12.839   9.059  0.2028 -0.0833 -0.2011
  253loPI   C3B 4047   4.405  12.701   8.909  0.0926  0.0046 -0.0405
  253loPI   C4B 4048   4.374  12.293   8.782  0.0476  0.1215  0.3057
  254loPI    C1 4049   2.829   6.193  10.053  0.0056 -0.3370  0.0283
  254loPI    C2 4050   2.482   6.327  10.201  0.1472  0.2457 -0.1400
  254loPI    C3 4051   2.670   6.021  10.377 -0.1797  0.2759  0.2779
  254loPI   PO4 4052   2.761   6.137   9.741  0.2252 -0.1608 -0.0333
  254loPI   GL1 4053   2.552   6.106   9.460  0.1068  0.2259  0.1344
  254loPI   GL2 4054   2.717   6.040   9.229  0.0309  0.1354  0.0762
  254loPI   C1A 4055   2.268   6.320   9.093  0.1798 -0.1298 -0.0238
  254loPI   C2A 4056   2.107   6.161   8.791  0.3105  0.0174  0.0899
  254loPI   C3A 4057   1.972   6.150   8.429  0.1271  0.1552  0.3442
  254loPI   C4A 4058   1.867   6.436   8.018 -0.1152  0.3969 -0.0571
  254loPI   C5A 4059   1.501   6.735   8.040 -0.2409 -0.1599 -0.0553
  254loPI   C6A 4060   1.493   7.267   8.228  0.0947 -0.0243 -0.1497
  254loPI   C1B 4061   2.616   6.035   8.880 -0.0895  0.0953  0.0669
  254loPI   C2B 4062   2.585   6.103   8.503 -0.0284  0.1061  0.1914
  254loPI   C3B 4063   2.325   6.151   8.031 -0.1195 -0.2802 -0.0799
  254loPI   C4B 4064   1.955   5.960   7.901 -0.0461 -0.1009  0.0178
  255loPI    C1 4065   8.338   6.098  10.056 -0.1361  0.0157  0.1324
  255loPI    C2 4066   8.470   6.112  10.433  0.0602 -0.0131  0.0662
  255loPI    C3 4067   8.148   5.893  10.342  0.0322 -0.0330  0.2105
  255loPI   PO4 4068   8.423   6.001   9.847  0.3417  0.2097  0.0254
  255loPI   GL1 4069   8.800   5.947   9.472  0.0762  0.0655  0.1070
  255loPI   GL2 4070   8.371   5.872   9.403  0.1895 -0.0982 -0.0592
  255loPI   C1A 4071   8.745   6.122   8.979  0.0244 -0.0392 -0.0591
  255loPI   C2A 4072   8.906   6.070   8.573 -0.1908  0.0531 -0.0064
  255loPI   C3A 4073   8.695   6.033   8.183  0.2150  0.2084 -0.3106
  255loPI   C4A 4074   8.690   6.132   7.816  0.0596 -0.1359  0.2229
  255loPI   C5A 4075   8.708   6.076   7.339 -0.2415  0.2401  0.3725
  255loPI   C6A 4076   8.632   6.306   6.932 -0.1413  0.3312 -0.0433
  255loPI   C1B 4077   8.453   5.753   9.000 -0.0226 -0.0970 -0.1710
  255loPI   C2B 4078   8.423   5.781   8.492  0.0805  0.2930  0.1633
  255loPI   C3B 4079   8.171   5.921   8.098  0.1050 -0.3316  0.0243
  255loPI   C4B 4080   8.048   6.259   7.825  0.2898 -0.1017  0.0312
  256loPI    C1 4081  13.845   4.293   9.767 -0.0628 -0.2559  0.0759
  256loPI    C2 4082  13.896   3.897   9.743  0.0965 -0.2378  0.1046
  256loPI    C3 4083  14.021   4.096  10.067 -0.1717 -0.1922  0.1827
  256loPI   PO4 4084  13.546   4.275   9.702  0.2073  0.1536  0.2078
  256loPI   GL1 4085  13.479   4.145   9.359 -0.3217  0.2565 -0.2708
  256loPI   GL2 4086  13.648   4.333   9.172  0.0730  0.2060  0.3092
  256loPI   C1A 4087  13.578   3.900   8.951 -0.2329  0.1308 -0.2037
  256loPI   C2A 4088  13.732   3.778   8.570  0.1981 -0.2136  0.3123
  256loPI   C3A 4089  13.912   3.699   8.143 -0.1431 -0.0267 -0.0834
  256loPI   C4A 4090  13.975   3.605   7.864  0.0394  0.1950  0.1802
  256loPI   C5A 4091  14.237   3.547   7.567  0.0391  0.3160  0.3498
  256loPI   C6A 4092  14.435   3.641   7.273 -0.1000  0.1204  0.1956
  256loPI   C1B 4093  13.749   4.460   8.786  0.1567 -0.5169 -0.0105
  256loPI   C2B 4094  13.898   4.600   8.364  0.0401 -0.0155  0.1505
  256loPI   C3B 4095  14.026   4.492   7.929  0.4159 -0.2418  0.3237
  256loPI   C4B 4096  14.376   4.320   7.882 -0.1702  0.0106 -0.1963
  257loPI    C1 4097  11.599  15.025   9.685  0.3022 -0.0742 -0.1146
  257loPI    C2 4098  11.811  14.777   9.453  0.0714 -0.3450 -0.0408
  257loPI    C3 4099  11.702  14.663   9.821 -0.1757 -0.1981 -0.0665
  257loPI   PO4 4100  11.701  15.179   9.700  0.0240 -0.2568 -0.3814
  257loPI   GL1 4101  11.540  15.535   9.421  0.1970  0.2858  0.3081
  257loPI   GL2 4102  11.264  15.249   9.312  0.3420  0.1622 -0.0026
  257loPI   C1A 4103  11.790  15.710   9.176  0.1639  0.1276  0.1048
  257loPI   C2A 4104  12.070  15.829   8.854 -0.1743 -0.0176  0.0628
  257loPI   C3A 4105  12.099  15.940   8.530  0.1350 -0.0714  0.1754
  257loPI   C4A 4106  11.989  15.781   8.063 -0.0766  0.1660  0.2663
  257loPI   C5A 4107  11.805  15.937   7.726  0.0680  0.1016 -0.2000
  257loPI   C6A 4108  11.770  15.877   7.307 -0.0490 -0.0993 -0.0255
  257loPI   C1B 4109  11.169  15.165   8.903  0.4503  0.2809 -0.1407
  257loPI   C2B 4110  11.198  15.165   8.523  0.4342  0.3108  0.1198
  257loPI   C3B 4111  11.236  15.156   8.133  0.1666 -0.1141  0.1674
  257loPI   C4B 4112  11.286  15.275   7.683 -0.3958 -0.2012  0.3008
  258loPI    C1 4113   7.622  14.229  10.084  0.0811  0.0761 -0.1286
  258loPI    C2 4114   7.902  13.990  10.240  0.0118 -0.0242 -0.1573
  258loPI    C3 4115   7.527  13.977  10.379  0.0352  0.1560 -0.0748
  258loPI   PO4 4116   7.648  14.198   9.871 -0.1948  0.0189 -0.0036
  258loPI   GL1 4117   7.471  14.327   9.469  0.2258  0.2113  0.1782
  258loPI   GL2 4118   7.105  14.232   9.408  0.3936 -0.0566 -0.1045
  258loPI   C1A 4119   7.589  14.301   9.005 -0.0182  0.0187 -0.0767
  258loPI   C2A 4120   7.646  14.253   8.629 -0.0961 -0.3086 -0.0060
  258loPI   C3A 4121   7.770  14.241   8.146  0.1543 -0.2529 -0.3373
  258loPI   C4A 4122   8.070  13.997   7.979 -0.2008 -0.3477 -0.0326
  258loPI   C5A 4123   8.429  13.883   7.695 -0.2566  0.0516  0.1610
  258loPI   C6A 4124   8.583  13.627   7.281  0.3590 -0.1899 -0.0744
  258loPI   C1B 4125   7.080  14.256   9.035  0.2413  0.0799 -0.0130
  258loPI   C2B 4126   6.909  14.340   8.670 -0.0618 -0.3793 -0.0945
  258loPI   C3B 4127   6.858  14.284   8.244  0.0718  0.0813 -0.1808
  258loPI   C4B 4128   6.940  14.079   7.830  0.0034 -0.0080  0.0842
  259loPI    C1 4129   7.553  14.789  10.086 -0.2060 -0.0740 -0.1250
  259loPI    C2 4130   7.347  14.550  10.332 -0.2400  0.1987  0.1171
  259loPI    C3 4131   7.660  14.757  10.470 -0.1045  0.1637 -0.1316
  259loPI   PO4 4132   7.536  14.705   9.912 -0.0409  0.1899  0.0377
  259loPI   GL1 4133   7.390  14.995   9.644  0.0512  0.1848 -0.2444
  259loPI   GL2 4134   7.633  15.104   9.566  0.2408 -0.0654  0.1253
  259loPI   C1A 4135   7.353  14.786   9.203 -0.1220 -0.3076  0.2654
  259loPI   C2A 4136   7.353  14.669   8.741  0.1606  0.1270  0.1276
  259loPI   C3A 4137   7.268  14.656   8.343  0.2721  0.0735 -0.2724
  259loPI   C4A 4138   7.275  14.528   8.112 -0.0833  0.2048  0.0032
  259loPI   C5A 4139   7.318  14.423   7.706  0.3310 -0.2069  0.3455
  259loPI   C6A 4140   7.242  14.505   7.250 -0.2092 -0.0108  0.6625
  259loPI   C1B 4141   7.545  15.250   9.169  0.1112 -0.0097 -0.0106
  259loPI   C2B 4142   7.512  15.184   8.739  0.1431 -0.2009 -0.0842
  259loPI   C3B 4143   7.554  15.112   8.297 -0.1581  0.0978  0.0796
  259loPI   C4B 4144   7.326  14.996   7.964 -0.1343 -0.1440 -0.1252
  260loPI    C1 4145  18.319   0.436  10.052 -0.2101  0.1164  0.0714
  260loPI    C2 4146  18.412   0.434  10.441 -0.2116  0.3053  0.0739
  260loPI    C3 4147  18.243   0.758  10.277 -0.1012  0.2715 -0.1100
  260loPI   PO4 4148  18.574   0.322   9.946 -0.1185 -0.0764 -0.2686
  260loPI   GL1 4149  18.922   0.565   9.668 -0.2612 -0.0594  0.0431
  260loPI   GL2 4150  19.058   0.323   9.560 -0.0819 -0.1910 -0.0109
  260loPI   C1A 4151  18.684   0.777   9.299  0.0633 -0.0365  0.3756
  260loPI   C2A 4152  18.676   0.735   8.874 -0.1089  0.1881 -0.1614
  260loPI   C3A 4153  18.676   0.646   8.425  0.1985 -0.1528 -0.2462
  260loPI   C4A 4154  18.820   0.598   8.043  0.0361  0.0148 -0.0388
  260loPI   C5A 4155  19.073   0.803   7.768 -0.3158  0.1018 -0.1733
  260loPI   C6A 4156  19.247   0.912   7.481 -0.1521  0.0096  0.2145
  260loPI   C1B 4157  19.019   0.438   9.165 -0.1144  0.3381 -0.1978
  260loPI   C2B 4158  19.092   0.446   8.683  0.0908  0.1813 -0.1858
  260loPI   C3B 4159  19.224   0.706   8.303  0.0240 -0.3824 -0.0858
  260loPI   C4B 4160  19.518   0.851   7.959 -0.1399 -0.1178 -0.1624
  261loPI    C1 4161  16.332   1.834   9.952  0.1103 -0.0346 -0.3020
  261loPI    C2 4162  16.364   1.537   9.686  0.1148 -0.1111 -0.2166
  261loPI    C3 4163  16.052   1.549   9.936  0.1881 -0.1224 -0.1239
  261loPI   PO4 4164  16.618   1.836  10.036  0.1008  0.1738 -0.1285
  261loPI   GL1 4165  16.819   1.800   9.655 -0.1196 -0.0663  0.3224
  261loPI   GL2 4166  16.984   1.518   9.620 -0.4922 -0.4478  0.3016
  261loPI   C1A 4167  16.626   1.704   9.273 -0.0313 -0.0678  0.2094
  261loPI   C2A 4168  16.556   1.825   8.929 -0.0524 -0.0856  0.3729
  261loPI   C3A 4169  16.304   1.823   8.656  0.1536 -0.2019  0.0759
  261loPI   C4A 4170  16.309   1.683   8.188  0.0669  0.0081 -0.0121
  261loPI   C5A 4171  16.460   1.699   7.714 -0.2423 -0.1034 -0.0037
  261loPI   C6A 4172  16.599   1.882   7.368 -0.0576  0.0327 -0.3239
  261loPI   C1B 4173  17.028   1.454   9.196 -0.5417 -0.3062 -0.1042
  261loPI   C2B 4174  16.873   1.458   8.882 -0.1703 -0.0670 -0.0635
  261loPI   C3B 4175  16.761   1.488   8.450 -0.1266 -0.2027 -0.3018
  261loPI   C4B 4176  16.875   1.588   8.078 -0.1345  0.2611  0.3277
  262loPI    C1 4177  11.799   1.189  10.603  0.0808 -0.2115 -0.0052
  262loPI    C2 4178  12.094   1.010  10.804  0.0548 -0.1223  0.1136
  262loPI    C3 4179  12.043   1.405  10.835  0.0154 -0.1163 -0.0246
  262loPI   PO4 4180  11.809   0.938  10.320  0.0130  0.0654  0.0359
  262loPI   GL1 4181  11.804   0.870   9.856 -0.1836  0.2092 -0.1095
  262loPI   GL2 4182  11.690   1.093   9.728  0.5536 -0.3477 -0.1050
  262loPI   C1A 4183  11.826   0.585   9.456  0.0708 -0.0797 -0.2150
  262loPI   C2A 4184  11.535   0.441   9.218 -0.0383  0.0173 -0.4944
  262loPI   C3A 4185  11.432   0.250   8.844 -0.1169  0.2807 -0.1091
  262loPI   C4A 4186  11.154   0.196   8.454  0.0378 -0.0684 -0.1407
  262loPI   C5A 4187  10.844   0.463   8.229  0.0399  0.2143  0.1328
  262loPI   C6A 4188  10.768   0.826   7.933  0.0554  0.0226  0.1960
  262loPI   C1B 4189  11.423   0.922   9.375 -0.0728 -0.1107  0.3048
  262loPI   C2B 4190  11.320   0.800   8.937  0.2275 -0.2105 -0.3312
  262loPI   C3B 4191  11.199   1.135   8.646 -0.1115 -0.1309 -0.1525
  262loPI   C4B 4192  10.956   1.238   8.230  0.0529 -0.2577  0.0870
  263loPI    C1 4193  16.824   6.631   9.962  0.1195  0.1898 -0.2751
  263loPI    C2 4194  16.904   6.868  10.274 -0.3935 -0.0020  0.0151
  263loPI    C3 4195  16.676   7.003   9.974 -0.2558  0.0391 -0.0723
  263loPI   PO4 4196  17.189   6.561   9.935 -0.0817  0.0773  0.0584
  263loPI   GL1 4197  17.586   6.696   9.603  0.0254 -0.1484 -0.0299
  263loPI   GL2 4198  17.675   7.028   9.625  0.1697 -0.2077 -0.0725
  263loPI   C1A 4199  17.438   6.672   9.203  0.1990  0.0375  0.3326
  263loPI   C2A 4200  17.256   6.646   8.895 -0.0188 -0.1469 -0.0570
  263loPI   C3A 4201  16.908   6.454   8.623  0.0418 -0.0758 -0.0070
  263loPI   C4A 4202  17.011   6.123   8.257 -0.1818  0.0393 -0.0738
  263loPI   C5A 4203  17.145   6.338   7.868  0.0411  0.2419 -0.0479
  263loPI   C6A 4204  17.140   6.742   7.782 -0.4229 -0.0511  0.1261
  263loPI   C1B 4205  17.498   7.149   9.307 -0.2166 -0.1489 -0.0437
  263loPI   C2B 4206  17.324   7.171   8.905 -0.0019 -0.1198 -0.0670
  263loPI   C3B 4207  17.278   6.984   8.525  0.0444  0.1916  0.0136
  263loPI   C4B 4208  17.120   7.094   8.086  0.2018  0.0586 -0.0315
  264loPI    C1 4209   6.632  10.494   9.754  0.2243  0.1266 -0.1216
  264loPI    C2 4210   6.784  10.861   9.795  0.0218  0.2038 -0.0481
  264loPI    C3 4211   6.518  10.725  10.060 -0.0644  0.0843 -0.1948
  264loPI   PO4 4212   6.528  10.499   9.521  0.2680  0.0660  0.4319
  264loPI   GL1 4213   6.372  10.803   9.182 -0.0404  0.0686  0.1456
  264loPI   GL2 4214   6.751  10.763   9.197 -0.1941  0.0070 -0.1278
  264loPI   C1A 4215   6.269  10.710   8.799  0.0617  0.0697 -0.1871
  264loPI   C2A 4216   6.153  10.940   8.326  0.3047  0.1300  0.0675
  264loPI   C3A 4217   5.854  10.872   8.032 -0.1230 -0.0759 -0.3998
  264loPI   C4A 4218   5.805  10.723   7.717 -0.1206  0.0170 -0.1395
  264loPI   C5A 4219   6.028  10.869   7.356 -0.0623  0.1671  0.4751
  264loPI   C6A 4220   6.406  11.061   7.365 -0.0720 -0.2283 -0.0760
  264loPI   C1B 4221   6.787  10.731   8.703 -0.0064 -0.1787 -0.2517
  264loPI   C2B 4222   6.623  10.684   8.337 -0.3456 -0.0954  0.2842
  264loPI   C3B 4223   6.592  10.393   7.973 -0.1814 -0.1037 -0.2185
  264loPI   C4B 4224   6.419  10.233   7.668 -0.1225  0.0349  0.2543
  265loPI    C1 4225  12.106  10.258  10.228 -0.1764  0.1273 -0.0075
  265loPI    C2 4226  12.469  10.426  10.232 -0.1495  0.0750 -0.1667
  265loPI    C3 4227  12.308  10.288  10.572 -0.0535  0.1679 -0.0830
  265loPI   PO4 4228  12.128  10.261   9.886 -0.1150  0.1498  0.0060
  265loPI   GL1 4229  12.006  10.306   9.509 -0.0373  0.1204 -0.1016
  265loPI   GL2 4230  12.331  10.211   9.309  0.1542  0.2385 -0.3330
  265loPI   C1A 4231  12.076  10.508   8.997  0.2926 -0.0320  0.0305
  265loPI   C2A 4232  12.182  10.399   8.545 -0.3853 -0.3408  0.0246
  265loPI   C3A 4233  12.170  10.058   8.197 -0.1660 -0.1104 -0.1448
  265loPI   C4A 4234  12.225   9.900   7.821  0.0716 -0.0046  0.0896
  265loPI   C5A 4235  12.453   9.810   7.481  0.1497  0.1281  0.0876
  265loPI   C6A 4236  12.763   9.885   7.142 -0.1685  0.2825  0.3784
  265loPI   C1B 4237  12.344  10.070   8.929  0.0913 -0.3220 -0.0148
  265loPI   C2B 4238  12.466   9.944   8.572 -0.1068  0.0237  0.2130
  265loPI   C3B 4239  12.612   9.814   8.122 -0.1815  0.1980 -0.1126
  265loPI   C4B 4240  12.781   9.867   7.808  0.1939  0.0692 -0.2384
  266loPI    C1 4241   9.395  16.517   9.858 -0.0769 -0.0322  0.0112
  266loPI    C2 4242   9.264  16.799  10.109  0.2555  0.0643  0.0810
  266loPI    C3 4243   9.199  16.413  10.191  0.1361  0.1049  0.1820
  266loPI   PO4 4244   9.316  16.608   9.561  0.0565  0.2715 -0.2441
  266loPI   GL1 4245   9.052  16.714   9.361  0.1190 -0.0519  0.1480
  266loPI   GL2 4246   9.025  17.044   9.531 -0.2405 -0.3775 -0.2106
  266loPI   C1A 4247   8.913  16.644   8.879 -0.0928 -0.1123 -0.1219
  266loPI   C2A 4248   8.748  16.722   8.490  0.2251 -0.0872 -0.0307
  266loPI   C3A 4249   8.642  16.885   8.027 -0.3499  0.1447  0.0426
  266loPI   C4A 4250   8.315  16.987   7.800  0.0206 -0.0994  0.1458
  266loPI   C5A 4251   8.069  17.347   7.859  0.1090  0.0573 -0.1724
  266loPI   C6A 4252   8.076  17.780   7.903 -0.5189 -0.1239  0.1558
  266loPI   C1B 4253   8.957  17.125   9.121  0.1887  0.0458 -0.1694
  266loPI   C2B 4254   8.950  17.145   8.635 -0.0290 -0.0829 -0.2213
  266loPI   C3B 4255   8.760  17.308   8.366  0.0471 -0.0660  0.1099
  266loPI   C4B 4256   8.601  17.374   7.964 -0.0211 -0.1752 -0.0600
  267loPI    C1 4257   7.349   2.582  10.316 -0.2460 -0.0816  0.1442
  267loPI    C2 4258   7.596   2.385  10.561  0.1546 -0.0801 -0.2458
  267loPI    C3 4259   7.569   2.784  10.581 -0.0577 -0.1047  0.0076
  267loPI   PO4 4260   7.190   2.326  10.253 -0.2333  0.0693 -0.3441
  267loPI   GL1 4261   7.373   2.090   9.938 -0.0773  0.0992 -0.0305
  267loPI   GL2 4262   7.563   2.038  10.090  0.0321  0.0378 -0.2900
  267loPI   C1A 4263   7.371   2.160   9.526  0.2816  0.0441 -0.0063
  267loPI   C2A 4264   7.339   2.214   9.000  0.0969 -0.2026 -0.0180
  267loPI   C3A 4265   7.377   2.056   8.628  0.4523  0.1967 -0.2035
  267loPI   C4A 4266   7.197   1.894   8.250 -0.1532 -0.1926  0.1217
  267loPI   C5A 4267   7.380   1.780   7.776 -0.1341 -0.0757 -0.3288
  267loPI   C6A 4268   7.589   1.756   7.448 -0.2952  0.0168  0.0448
  267loPI   C1B 4269   7.553   1.729   9.704 -0.1388  0.0865  0.3362
  267loPI   C2B 4270   7.320   1.682   9.321  0.0761  0.2228  0.3690
  267loPI   C3B 4271   7.200   1.571   8.964 -0.2879 -0.1447 -0.2133
  267loPI   C4B 4272   7.126   1.498   8.540  0.4687  0.1595  0.0805
  268loPI    C1 4273   9.221  18.227  10.388  0.1287  0.1853 -0.0188
  268loPI    C2 4274   9.461  18.406  10.654  0.1017  0.0696  0.0841
  268loPI    C3 4275   9.311  18.042  10.731 -0.0759  0.1242  0.0036
  268loPI   PO4 4276   9.288  18.297  10.195  0.1474  0.0917  0.3202
  268loPI   GL1 4277   9.205  18.499   9.890 -0.1960 -0.1372 -0.2363
  268loPI   GL2 4278   9.415  18.651   9.804  0.2805 -0.2577  0.0455
  268loPI   C1A 4279   9.064  18.580   9.507  0.1603 -0.2607 -0.1304
  268loPI   C2A 4280   9.161  18.628   9.053 -0.1170  0.1434  0.0243
  268loPI   C3A 4281   8.961  18.945   8.800 -0.0093  0.3587 -0.3584
  268loPI   C4A 4282   9.124  19.196   8.500 -0.0780  0.0604  0.3095
  268loPI   C5A 4283   8.985  19.652   8.321 -0.3600  0.0328 -0.1450
  268loPI   C6A 4284   8.586  20.014   8.106  0.2571 -0.0553  0.0424
  268loPI   C1B 4285   9.508  18.836   9.398  0.0377 -0.1915 -0.1405
  268loPI   C2B 4286   9.625  18.974   9.029  0.1882  0.1136 -0.0555
  268loPI   C3B 4287   9.744  19.058   8.512 -0.2309  0.0997 -0.2950
  268loPI   C4B 4288   9.636  18.957   8.026 -0.0058 -0.1961 -0.1251
  269loPI    C1 4289   3.091   6.587  10.111 -0.0485 -0.1195  0.0062
  269loPI    C2 4290   3.387   6.443  10.338 -0.0223  0.2777  0.2333
  269loPI    C3 4291   3.016   6.471  10.487 -0.1162  0.0542  0.0474
  269loPI   PO4 4292   3.240   6.611   9.847 -0.2126 -0.1912  0.0580
  269loPI   GL1 4293   3.219   6.310   9.469 -0.1643 -0.0726  0.2045
  269loPI   GL2 4294   3.320   5.991   9.468 -0.2306 -0.0641 -0.0144
  269loPI   C1A 4295   3.103   6.644   9.180  0.2079  0.0605  0.1829
  269loPI   C2A 4296   2.814   6.542   8.803  0.0773  0.3100  0.3366
  269loPI   C3A 4297   2.810   6.592   8.337  0.0130  0.1139 -0.1083
  269loPI   C4A 4298   2.744   6.345   8.074  0.1626 -0.1777 -0.0701
  269loPI   C5A 4299   2.808   5.991   7.854 -0.6155  0.0342 -0.0737
  269loPI   C6A 4300   2.863   5.722   7.569  0.0384 -0.1994 -0.2109
  269loPI   C1B 4301   3.098   6.155   9.023 -0.0719 -0.3074  0.1629
  269loPI   C2B 4302   3.028   6.080   8.635  0.0049 -0.3211  0.1373
  269loPI   C3B 4303   3.210   6.060   8.189  0.1141  0.4296 -0.2944
  269loPI   C4B 4304   3.283   6.178   7.749 -0.6450  0.0061 -0.0423
  270loPI    C1 4305   4.068   7.323  10.210 -0.0253 -0.0661  0.0742
  270loPI    C2 4306   4.133   7.713  10.154  0.2299 -0.1218 -0.0301
  270loPI    C3 4307   4.012   7.580  10.511  0.4907  0.0127  0.1115
  270loPI   PO4 4308   3.888   7.252   9.986  0.1240 -0.0486 -0.2974
  270loPI   GL1 4309   3.980   7.424   9.625  0.2929 -0.4426 -0.0851
  270loPI   GL2 4310   4.015   7.755   9.622  0.1604  0.0907  0.1428
  270loPI   C1A 4311   3.660   7.214   9.315  0.1532 -0.1488  0.0234
  270loPI   C2A 4312   3.775   7.216   8.848 -0.0527 -0.2307  0.1064
  270loPI   C3A 4313   3.869   7.141   8.381 -0.1644 -0.0857  0.0582
  270loPI   C4A 4314   3.911   7.516   8.221  0.2300  0.0274  0.1810
  270loPI   C5A 4315   4.325   7.583   7.766  0.2766 -0.0646 -0.1413
  270loPI   C6A 4316   4.693   7.721   7.478 -0.3269  0.2611  0.1291
  270loPI   C1B 4317   4.033   7.598   9.185  0.0761 -0.2196 -0.3365
  270loPI   C2B 4318   4.036   7.648   8.714  0.1872  0.3612 -0.1601
  270loPI   C3B 4319   4.252   7.908   8.393  0.1152 -0.2141  0.0702
  270loPI   C4B 4320   4.540   7.905   8.177  0.2800 -0.1878 -0.0540
  271loPI    C1 4321   4.413  17.170  10.145  0.1943  0.1306  0.0220
  271loPI    C2 4322   4.238  17.166  10.505  0.2171  0.0101  0.0323
  271loPI    C3 4323   4.083  17.387  10.210  0.1028 -0.0210  0.0688
  271loPI   PO4 4324   4.434  16.884  10.125 -0.2903  0.0934 -0.2787
  271loPI   GL1 4325   4.404  16.834   9.768  0.3053  0.0803 -0.0234
  271loPI   GL2 4326   4.102  16.653   9.682  0.2803 -0.1985  0.1878
  271loPI   C1A 4327   4.305  17.009   9.352  0.0696 -0.0663 -0.1969
  271loPI   C2A 4328   4.139  17.229   8.996 -0.3018 -0.0520 -0.0442
  271loPI   C3A 4329   4.268  17.545   8.684  0.0125 -0.1144  0.1818
  271loPI   C4A 4330   4.335  17.734   8.361 -0.0922  0.0588 -0.1748
  271loPI   C5A 4331   4.590  17.785   8.025  0.0011 -0.3497  0.2801
  271loPI   C6A 4332   4.849  17.643   7.759 -0.5352  0.0208  0.1069
  271loPI   C1B 4333   3.966  16.373   9.276 -0.0626  0.2290  0.0161
  271loPI   C2B 4334   3.690  16.254   8.976 -0.0883  0.0934  0.0648
  271loPI   C3B 4335   3.630  16.110   8.492  0.1067 -0.1992 -0.0511
  271loPI   C4B 4336   3.467  15.985   8.151  0.0376  0.1686 -0.3309
  272loPI    C1 4337   0.623   2.408  10.114 -0.1723  0.1577  0.1063
  272loPI    C2 4338   0.774   2.685  10.360 -0.0627  0.0022  0.2160
  272loPI    C3 4339   0.648   2.334  10.507 -0.1932 -0.0098  0.0771
  272loPI   PO4 4340   0.371   2.556   9.872  0.0626  0.0090  0.1112
  272loPI   GL1 4341   0.435   2.461   9.502  0.6223 -0.0359  0.2925
  272loPI   GL2 4342   0.477   2.817   9.365  0.5052 -0.0755 -0.2320
  272loPI   C1A 4343   0.536   2.522   8.967  0.1167  0.0689 -0.1380
  272loPI   C2A 4344   0.371   2.506   8.574  0.0716 -0.2672  0.2363
  272loPI   C3A 4345   0.346   2.605   8.189 -0.4007  0.2154 -0.2128
  272loPI   C4A 4346   0.067   2.663   7.950  0.0993 -0.0518 -0.1092
  272loPI   C5A 4347   0.048   3.040   7.644 -0.0441  0.1734  0.0308
  272loPI   C6A 4348  -0.046   3.173   7.265 -0.2073 -0.5728 -0.1752
  272loPI   C1B 4349   0.302   2.968   8.929 -0.0442 -0.1931 -0.3314
  272loPI   C2B 4350   0.255   3.038   8.423 -0.5690 -0.1496 -0.1413
  272loPI   C3B 4351   0.447   3.117   7.968  0.1828 -0.3684 -0.2089
  272loPI   C4B 4352   0.633   2.958   7.634 -0.1713  0.0818 -0.1484
  273loPI    C1 4353   8.265  10.864  10.053  0.0296  0.1430  0.1423
  273loPI    C2 4354   8.657  10.908  10.121 -0.0214  0.1915  0.4172
  273loPI    C3 4355   8.465  10.585  10.259 -0.0009 -0.0375 -0.0685
  273loPI   PO4 4356   8.171  10.985   9.792  0.2123 -0.1070 -0.0567
  273loPI   GL1 4357   7.987  10.943   9.334  0.2972 -0.1137  0.0924
  273loPI   GL2 4358   8.208  10.642   9.406 -0.3185 -0.1600  0.2048
  273loPI   C1A 4359   7.894  11.236   9.018 -0.2693  0.2008  0.0791
  273loPI   C2A 4360   7.820  11.195   8.594  0.2774 -0.1021  0.0957
  273loPI   C3A 4361   7.958  11.270   8.202  0.2142 -0.1584  0.1021
  273loPI   C4A 4362   7.906  11.479   7.887  0.3804  0.0227  0.0729
  273loPI   C5A 4363   7.682  11.653   7.614  0.2123 -0.3062 -0.1666
  273loPI   C6A 4364   7.871  11.980   7.273 -0.1403  0.0871 -0.2508
  273loPI   C1B 4365   7.983  10.510   9.040  0.1679 -0.0545  0.1207
  273loPI   C2B 4366   7.988  10.647   8.724 -0.1477 -0.2966 -0.2821
  273loPI   C3B 4367   7.782  10.479   8.389 -0.1766  0.3838  0.0308
  273loPI   C4B 4368   7.524  10.578   7.968  0.0074 -0.0772  0.1124
  274loPI    C1 4369   1.379   3.303  10.235  0.0860  0.1201 -0.0547
  274loPI    C2 4370   1.203   3.412  10.577  0.0314  0.3459 -0.1533
  274loPI    C3 4371   1.600   3.444  10.537  0.1014 -0.1574  0.0668
  274loPI   PO4 4372   1.332   3.368  10.034 -0.1043  0.4017  0.1268
  274loPI   GL1 4373   1.321   3.442   9.588  0.0411  0.2245  0.2567
  274loPI   GL2 4374   1.134   3.133   9.593 -0.0519 -0.1277 -0.0476
  274loPI   C1A 4375   1.077   3.592   9.164 -0.1161 -0.1204 -0.0363
  274loPI   C2A 4376   0.915   3.640   8.789  0.0035 -0.1005  0.0067
  274loPI   C3A 4377   0.835   3.492   8.312  0.0827 -0.1645 -0.1619
  274loPI   C4A 4378   0.849   3.462   7.942  0.0238  0.0685 -0.5038
  274loPI   C5A 4379   1.176   3.522   7.726 -0.0420  0.2255  0.2454
  274loPI   C6A 4380   1.372   3.861   7.494  0.1753 -0.0049  0.1645
  274loPI   C1B 4381   1.348   3.189   9.145 -0.0808 -0.1053  0.2114
  274loPI   C2B 4382   1.331   3.428   8.680 -0.2934  0.0594  0.0266
  274loPI   C3B 4383   1.298   3.332   8.172  0.3395  0.2570 -0.1470
  274loPI   C4B 4384   1.545   3.195   7.750 -0.1062  0.2890  0.2089
  275loPI    C1 4385   8.793  16.095  10.170  0.0771  0.1100  0.0871
  275loPI    C2 4386   8.674  15.734  10.295 -0.0325  0.1194  0.0106
  275loPI    C3 4387   8.648  16.049  10.540  0.1132  0.0660  0.0959
  275loPI   PO4 4388   8.602  16.126   9.874  0.4069 -0.2037 -0.0290
  275loPI   GL1 4389   8.369  15.992   9.482  0.0044 -0.0813 -0.1854
  275loPI   GL2 4390   8.616  15.794   9.458 -0.2479 -0.1679  0.0261
  275loPI   C1A 4391   8.173  15.834   9.092 -0.1065  0.0486 -0.0583
  275loPI   C2A 4392   8.269  15.810   8.616  0.0399 -0.0255 -0.1123
  275loPI   C3A 4393   8.590  15.910   8.337  0.0132  0.1741  0.0715
  275loPI   C4A 4394   8.728  16.309   8.169 -0.0529 -0.1555 -0.1674
  275loPI   C5A 4395   8.930  16.455   7.824 -0.0522  0.0561  0.5015
  275loPI   C6A 4396   9.252  16.405   7.612 -0.0877 -0.1552  0.1273
  275loPI   C1B 4397   8.673  15.744   9.024 -0.2105 -0.0292  0.1042
  275loPI   C2B 4398   8.920  15.716   8.674  0.0300  0.0613 -0.0341
  275loPI   C3B 4399   9.147  15.491   8.305 -0.1817 -0.1362 -0.0446
  275loPI   C4B 4400   9.112  15.520   7.972 -0.0213  0.1733  0.0626
  276loPI    C1 4401  14.896   2.858  10.212 -0.1837 -0.0475 -0.1041
  276loPI    C2 4402  14.861   2.465  10.276 -0.0841 -0.0809 -0.2497
  276loPI    C3 4403  14.563   2.712  10.377 -0.0610 -0.1680  0.0399
  276loPI   PO4 4404  14.996   2.917   9.952 -0.3293 -0.0692  0.1909
  276loPI   GL1 4405  15.080   2.810   9.558  0.1141 -0.0506 -0.1218
  276loPI   GL2 4406  14.872   3.177   9.502 -0.3085 -0.2106  0.2479
  276loPI   C1A 4407  15.095   2.361   9.362 -0.2389 -0.1733 -0.0040
  276loPI   C2A 4408  14.922   2.157   9.106  0.1595  0.1664  0.2522
  276loPI   C3A 4409  14.975   1.956   8.778  0.2560  0.1819  0.2286
  276loPI   C4A 4410  14.694   2.050   8.385 -0.1131  0.2071 -0.2620
  276loPI   C5A 4411  14.607   2.186   8.017 -0.0992 -0.0750  0.0040
  276loPI   C6A 4412  14.573   2.042   7.634 -0.2621 -0.0384  0.2115
  276loPI   C1B 4413  14.774   3.324   9.142 -0.0830 -0.1559 -0.1569
  276loPI   C2B 4414  14.709   3.244   8.686 -0.1240 -0.0654  0.2693
  276loPI   C3B 4415  14.557   2.986   8.262 -0.0779  0.2516  0.1335
  276loPI   C4B 4416  14.592   2.541   8.367 -0.2988 -0.4736 -0.0149
  277loPI    C1 4417   0.024  17.814  10.088  0.0273  0.2227  0.0071
  277loPI    C2 4418   0.295  17.609   9.878  0.0464  0.0711  0.1771
  277loPI    C3 4419   0.172  17.472  10.233 -0.2361  0.1507  0.1129
  277loPI   PO4 4420  -0.132  17.862   9.873  0.2709 -0.3407 -0.1145
  277loPI   GL1 4421  -0.140  17.958   9.468 -0.0901 -0.0699 -0.0413
  277loPI   GL2 4422  -0.304  18.292   9.358  0.2873  0.0363  0.1268
  277loPI   C1A 4423   0.033  17.719   9.047  0.0407  0.1190  0.0015
  277loPI   C2A 4424   0.009  17.764   8.585 -0.1192 -0.0239  0.1914
  277loPI   C3A 4425   0.129  17.674   8.193  0.0139 -0.2118 -0.0109
  277loPI   C4A 4426   0.020  17.583   7.772 -0.3968 -0.4821 -0.1062
  277loPI   C5A 4427   0.045  17.305   7.626 -0.0856 -0.0353  0.0635
  277loPI   C6A 4428   0.018  16.883   7.700 -0.1314  0.5391  0.0680
  277loPI   C1B 4429  -0.497  18.120   9.131  0.2791 -0.2788 -0.0028
  277loPI   C2B 4430  -0.846  17.979   8.881  0.3247 -0.0023 -0.1779
  277loPI   C3B 4431  -0.795  18.177   8.501 -0.2949 -0.0552  0.2313
  277loPI   C4B 4432  -0.788  18.234   8.071 -0.0375 -0.0610 -0.0515
  278loPI    C1 4433   8.851   5.105  10.335 -0.0327 -0.0469  0.0841
  278loPI    C2 4434   8.983   4.833  10.072 -0.1573  0.0141 -0.0425
  278loPI    C3 4435   9.211   4.938  10.383  0.0455  0.0358 -0.1970
  278loPI   PO4 4436   8.796   5.298  10.089  0.0698 -0.0562  0.1005
  278loPI   GL1 4437   8.443   5.106   9.742  0.1834  0.0403 -0.1184
  278loPI   GL2 4438   8.710   5.027   9.696 -0.3948  0.0691 -0.0692
  278loPI   C1A 4439   8.198   4.772   9.516 -0.1749 -0.3817  0.3351
  278loPI   C2A 4440   8.030   4.900   9.100 -0.1683 -0.2562  0.3890
  278loPI   C3A 4441   7.805   4.954   8.822 -0.3249  0.1226  0.0163
  278loPI   C4A 4442   7.667   5.172   8.668 -0.1131 -0.1401 -0.4227
  278loPI   C5A 4443   7.380   5.286   8.404 -0.2331 -0.0720  0.1325
  278loPI   C6A 4444   7.353   5.754   8.331 -0.3275  0.3240 -0.2629
  278loPI   C1B 4445   8.949   4.994   9.314  0.0864 -0.1061 -0.0511
  278loPI   C2B 4446   9.192   5.131   8.989 -0.0404  0.0642 -0.3299
  278loPI   C3B 4447   9.466   5.484   8.903  0.1699  0.1187  0.3285
  278loPI   C4B 4448   9.538   5.776   8.477  0.1475  0.0330 -0.1525
  279loPI    C1 4449   0.702  10.009  10.141  0.1925  0.1743  0.1345
  279loPI    C2 4450   0.472   9.715  10.286  0.1442  0.0395 -0.2070
  279loPI    C3 4451   0.621   9.992  10.532  0.0235 -0.1543  0.0891
  279loPI   PO4 4452   0.747   9.896   9.923 -0.1325 -0.0077 -0.0387
  279loPI   GL1 4453   0.697   9.845   9.503  0.0320  0.2015 -0.1951
  279loPI   GL2 4454   0.345   9.890   9.414  0.0839  0.0662  0.0561
  279loPI   C1A 4455   0.717   9.593   9.143  0.0918  0.0073 -0.1060
  279loPI   C2A 4456   0.500   9.276   8.794  0.1119  0.0841 -0.6651
  279loPI   C3A 4457   0.518   9.225   8.302  0.5056 -0.0279 -0.0613
  279loPI   C4A 4458   0.414   9.305   7.901 -0.0749 -0.1303 -0.4357
  279loPI   C5A 4459   0.295   9.442   7.556  0.0070  0.0112 -0.0162
  279loPI   C6A 4460   0.285   9.153   7.233  0.0755 -0.0664  0.3563
  279loPI   C1B 4461   0.391   9.940   9.098  0.0970 -0.4184 -0.0575
  279loPI   C2B 4462   0.410   9.809   8.664  0.1654 -0.0216  0.1185
  279loPI   C3B 4463   0.438  10.088   8.420 -0.0550  0.3032 -0.0335
  279loPI   C4B 4464   0.443  10.238   7.935  0.2818  0.3176  0.0521
  280loPI    C1 4465  14.654   7.992  10.257 -0.0216 -0.0099  0.1124
  280loPI    C2 4466  14.256   8.028  10.257 -0.0460 -0.2388 -0.2317
  280loPI    C3 4467  14.424   7.668  10.300  0.1431 -0.0744  0.5687
  280loPI   PO4 4468  14.725   8.065  10.028  0.4304  0.1772  0.0361
  280loPI   GL1 4469  14.807   7.884   9.606  0.0435 -0.2671  0.0399
  280loPI   GL2 4470  15.065   8.236   9.618 -0.0215 -0.0121  0.2477
  280loPI   C1A 4471  15.110   7.932   9.239  0.1355 -0.2260 -0.0056
  280loPI   C2A 4472  15.220   8.003   8.826 -0.2880 -0.1399 -0.1920
  280loPI   C3A 4473  15.240   8.172   8.426 -0.0204 -0.0214 -0.0033
  280loPI   C4A 4474  15.294   8.128   8.111 -0.0392  0.0642  0.0986
  280loPI   C5A 4475  15.277   8.318   7.749 -0.0272  0.1160 -0.2250
  280loPI   C6A 4476  14.946   8.491   7.523 -0.5278  0.0489 -0.1263
  280loPI   C1B 4477  15.028   8.587   9.323 -0.0304  0.1638 -0.0365
  280loPI   C2B 4478  14.920   8.743   8.935 -0.0071 -0.0640  0.3676
  280loPI   C3B 4479  15.089   8.667   8.455  0.2503 -0.0463 -0.0562
  280loPI   C4B 4480  15.022   8.655   8.031  0.4854 -0.0946 -0.2031
  281loPI    C1 4481   8.310   1.817  10.705 -0.0590 -0.0584 -0.1363
  281loPI    C2 4482   8.061   1.536  10.843 -0.1695  0.1762  0.1544
  281loPI    C3 4483   7.954   1.922  10.856  0.1732  0.2723  0.2001
  281loPI   PO4 4484   8.382   1.837  10.453  0.0015 -0.3171  0.1059
  281loPI   GL1 4485   8.273   1.627  10.173 -0.1016 -0.1102 -0.7159
  281loPI   GL2 4486   8.447   1.812   9.967  0.1722 -0.0032 -0.1765
  281loPI   C1A 4487   7.846   1.364   9.975  0.1633  0.0112 -0.0079
  281loPI   C2A 4488   7.860   1.030   9.613 -0.0400 -0.3205  0.2037
  281loPI   C3A 4489   7.736   0.816   9.338  0.0290  0.5301 -0.0400
  281loPI   C4A 4490   7.399   0.585   9.431 -0.2354  0.2521  0.1550
  281loPI   C5A 4491   6.989   0.733   9.272 -0.1230 -0.3751  0.2102
  281loPI   C6A 4492   6.612   0.838   9.065  0.2136 -0.1031 -0.0885
  281loPI   C1B 4493   8.496   1.909   9.553 -0.1231 -0.1821 -0.1528
  281loPI   C2B 4494   8.504   1.969   9.206  0.0471  0.3014  0.1330
  281loPI   C3B 4495   8.417   1.962   8.764  0.1211  0.3032 -0.0505
  281loPI   C4B 4496   8.139   1.911   8.487 -0.0513 -0.1762 -0.0523
  282loPI    C1 4497   5.952  15.004  10.483  0.0013 -0.1316 -0.0301
  282loPI    C2 4498   6.146  15.353  10.467 -0.0505 -0.1015 -0.0022
  282loPI    C3 4499   5.841  15.305  10.721 -0.0235 -0.1771  0.0160
  282loPI   PO4 4500   5.955  14.955  10.196 -0.0440 -0.2175 -0.1442
  282loPI   GL1 4501   6.136  15.172   9.930 -0.1690 -0.1090  0.2521
  282loPI   GL2 4502   6.305  14.978   9.839  0.1049  0.1306  0.0400
  282loPI   C1A 4503   5.912  15.055   9.503  0.1238 -0.2528 -0.3954
  282loPI   C2A 4504   6.092  15.209   9.073  0.0112 -0.2612  0.0608
  282loPI   C3A 4505   6.074  15.609   8.904 -0.0745  0.2401 -0.0643
  282loPI   C4A 4506   5.940  15.865   8.671  0.3055 -0.0017  0.5059
  282loPI   C5A 4507   5.594  16.155   8.710  0.3418  0.1637  0.0030
  282loPI   C6A 4508   5.355  16.347   9.010  0.1000  0.1683  0.1227
  282loPI   C1B 4509   6.393  14.934   9.406  0.0923 -0.0233  0.1554
  282loPI   C2B 4510   6.418  14.874   8.963 -0.0224 -0.2695  0.2266
  282loPI   C3B 4511   6.642  14.807   8.547  0.0165 -0.0940 -0.2660
  282loPI   C4B 4512   6.846  14.790   8.154  0.3706 -0.0383  0.4459
  283loPI    C1 4513   3.204   7.723  10.249 -0.1612  0.1568 -0.0778
  283loPI    C2 4514   2.883   7.920  10.384 -0.0614  0.1651  0.1517
  283loPI    C3 4515   3.193   7.851  10.628 -0.0569 -0.1967  0.0489
  283loPI   PO4 4516   3.129   7.669  10.043 -0.1348  0.0562 -0.4595
  283loPI   GL1 4517   3.195   7.807   9.672  0.1292 -0.0661  0.2652
  283loPI   GL2 4518   3.403   7.426   9.665 -0.0696 -0.1825 -0.1354
  283loPI   C1A 4519   2.922   7.954   9.361 -0.0138 -0.2209 -0.2152
  283loPI   C2A 4520   2.913   7.805   8.986  0.1107  0.1118 -0.1662
  283loPI   C3A 4521   2.975   7.678   8.556 -0.0777 -0.0501  0.1814
  283loPI   C4A 4522   2.737   7.757   8.214 -0.0277 -0.0485  0.0375
  283loPI   C5A 4523   2.450   7.809   7.808  0.1580 -0.0959  0.0880
  283loPI   C6A 4524   2.379   7.600   7.462  0.0608 -0.0866  0.0431
  283loPI   C1B 4525   3.505   7.717   9.261  0.0397 -0.2390 -0.0922
  283loPI   C2B 4526   3.552   7.687   8.906 -0.1333  0.2347 -0.0386
  283loPI   C3B 4527   3.474   7.483   8.559  0.4362 -0.2819 -0.0612
  283loPI   C4B 4528   3.291   7.399   8.117  0.1403 -0.0639 -0.0657
  284loPI    C1 4529  12.830   0.877  10.294 -0.0303  0.1068  0.1037
  284loPI    C2 4530  13.154   1.089  10.193  0.0821 -0.0513  0.1297
  284loPI    C3 4531  13.035   1.075  10.575 -0.1048  0.2133  0.0836
  284loPI   PO4 4532  12.698   0.943  10.164  0.0785 -0.0644  0.1257
  284loPI   GL1 4533  12.612   1.070   9.805  0.1706 -0.0086  0.2925
  284loPI   GL2 4534  12.889   1.261   9.683  0.1330  0.3521 -0.1031
  284loPI   C1A 4535  12.662   1.041   9.313 -0.2268  0.1594  0.0208
  284loPI   C2A 4536  12.586   1.150   8.860 -0.1394 -0.0253 -0.1850
  284loPI   C3A 4537  12.555   1.084   8.380  0.1192  0.3044 -0.2554
  284loPI   C4A 4538  13.037   1.046   8.197 -0.2662  0.2750  0.2294
  284loPI   C5A 4539  13.103   0.607   7.928 -0.1670  0.1251 -0.0237
  284loPI   C6A 4540  13.446   0.442   7.903  0.1300 -0.2215  0.2186
  284loPI   C1B 4541  12.804   1.524   9.286  0.1720  0.0483 -0.1963
  284loPI   C2B 4542  12.708   1.637   8.905  0.0376 -0.2927 -0.2467
  284loPI   C3B 4543  12.599   1.711   8.451  0.0918 -0.0004 -0.3310
  284loPI   C4B 4544  12.820   1.562   8.158  0.4926  0.1939  0.2059
  285loPI    C1 4545  13.292   8.164  10.300 -0.0182  0.0216  0.0046
  285loPI    C2 4546  13.086   8.500  10.231 -0.1548 -0.0689 -0.0313
  285loPI    C3 4547  12.915   8.197  10.428  0.0584 -0.0141  0.2454
  285loPI   PO4 4548  13.402   8.151  10.060 -0.2854  0.0026 -0.0282
  285loPI   GL1 4549  13.386   8.049   9.618 -0.2519 -0.1626  0.0916
  285loPI   GL2 4550  13.741   8.122   9.498  0.3385  0.0503 -0.2980
  285loPI   C1A 4551  13.543   7.832   9.129 -0.1437 -0.0446  0.0415
  285loPI   C2A 4552  13.752   7.799   8.690 -0.1459 -0.3321 -0.2757
  285loPI   C3A 4553  13.936   7.616   8.370  0.5477  0.2384 -0.2488
  285loPI   C4A 4554  14.235   7.316   8.106 -0.2141  0.0797 -0.0649
  285loPI   C5A 4555  14.536   7.218   7.826  0.2475  0.2555  0.1145
  285loPI   C6A 4556  14.451   6.901   7.470  0.3504  0.3200  0.0324
  285loPI   C1B 4557  14.007   8.023   9.060 -0.1656 -0.0499 -0.1650
  285loPI   C2B 4558  14.180   8.048   8.558 -0.2076  0.2099  0.2460
  285loPI   C3B 4559  14.292   7.935   8.213  0.3643  0.2691 -0.1136
  285loPI   C4B 4560  14.411   7.787   7.768 -0.2654  0.1921  0.2828
  286loPI    C1 4561  13.490   6.937  10.131  0.0961 -0.1886 -0.0802
  286loPI    C2 4562  13.304   7.172  10.395 -0.1036 -0.0509 -0.3378
  286loPI    C3 4563  13.320   6.777  10.456  0.0858  0.0059  0.0114
  286loPI   PO4 4564  13.671   7.111   9.963 -0.1098  0.0258 -0.0581
  286loPI   GL1 4565  13.697   7.217   9.438  0.4126 -0.1423  0.0484
  286loPI   GL2 4566  13.603   7.473   9.611  0.1680 -0.0176 -0.0245
  286loPI   C1A 4567  13.940   7.469   9.033  0.3215 -0.2703  0.3087
  286loPI   C2A 4568  14.253   7.596   8.805 -0.0856  0.0307  0.0057
  286loPI   C3A 4569  14.512   7.558   8.495  0.0917  0.1520  0.0754
  286loPI   C4A 4570  14.728   7.594   8.187  0.1192 -0.0041  0.3771
  286loPI   C5A 4571  14.943   7.453   7.788 -0.4051  0.0667 -0.1501
  286loPI   C6A 4572  15.092   7.540   7.346 -0.0540 -0.1024 -0.0639
  286loPI   C1B 4573  13.996   7.639   9.504 -0.2225 -0.1909  0.1410
  286loPI   C2B 4574  14.356   7.703   9.309 -0.0651 -0.4329  0.0870
  286loPI   C3B 4575  14.751   7.580   9.172 -0.2804 -0.0065 -0.0768
  286loPI   C4B 4576  14.834   7.662   8.808 -0.1392  0.0328 -0.0099
  287loPI    C1 4577  18.517  15.235  10.362 -0.2004 -0.0445  0.0037
  287loPI    C2 4578  18.441  14.843  10.365  0.1048 -0.1069 -0.0726
  287loPI    C3 4579  18.471  15.043  10.710 -0.2822 -0.1011 -0.0383
  287loPI   PO4 4580  18.581  15.259  10.038 -0.0931 -0.1937 -0.1827
  287loPI   GL1 4581  18.377  15.403   9.663  0.3288 -0.0082 -0.1131
  287loPI   GL2 4582  18.129  15.613   9.573 -0.0830 -0.0565 -0.0514
  287loPI   C1A 4583  18.729  15.544   9.416  0.2042  0.1267  0.0281
  287loPI   C2A 4584  18.784  15.541   8.937  0.1850 -0.2084 -0.1081
  287loPI   C3A 4585  18.743  15.469   8.630  0.0107  0.0471  0.0307
  287loPI   C4A 4586  18.529  15.367   8.259  0.1132  0.2240 -0.0597
  287loPI   C5A 4587  18.456  15.620   7.854  0.0227  0.2934  0.3129
  287loPI   C6A 4588  18.543  15.761   7.508  0.3226  0.0184  0.2781
  287loPI   C1B 4589  18.213  15.501   9.201 -0.0260  0.0612 -0.0159
  287loPI   C2B 4590  18.222  15.374   8.755 -0.2992 -0.3023 -0.2481
  287loPI   C3B 4591  18.059  15.535   8.361  0.2179 -0.0650  0.1815
  287loPI   C4B 4592  18.171  15.964   8.114 -0.4388 -0.2766 -0.2325
  288loPI    C1 4593   1.895   1.155  11.162 -0.2131 -0.1122 -0.0937
  288loPI    C2 4594   1.525   1.030  11.250  0.0019 -0.2509  0.6906
  288loPI    C3 4595   1.693   1.324  11.463  0.2542 -0.0052  0.1701
  288loPI   PO4 4596   1.850   1.262  10.867  0.3081 -0.1133  0.2987
  288loPI   GL1 4597   1.884   1.367  10.488 -0.0031  0.0883 -0.0321
  288loPI   GL2 4598   1.951   1.496  10.268  0.0128 -0.1873  0.4302
  288loPI   C1A 4599   1.677   1.056  10.240  0.0893  0.0380 -0.0966
  288loPI   C2A 4600   1.488   1.074   9.826 -0.5207 -0.0868  0.1022
  288loPI   C3A 4601   1.387   1.185   9.361 -0.0085  0.1289  0.1513
  288loPI   C4A 4602   1.336   1.300   8.858  0.1898  0.1141 -0.0747
  288loPI   C5A 4603   1.305   1.384   8.415  0.4143 -0.1712  0.2687
  288loPI   C6A 4604   1.557   1.462   7.852 -0.1276  0.2342  0.2185
  288loPI   C1B 4605   1.622   1.523   9.948 -0.1207 -0.2307 -0.0642
  288loPI   C2B 4606   1.682   1.680   9.549 -0.2064  0.0300 -0.3374
  288loPI   C3B 4607   1.978   1.864   9.355  0.2513 -0.3889 -0.1754
  288loPI   C4B 4608   1.942   2.030   8.871  0.3573  0.0928  0.1093
  289loPI    C1 4609   6.323  12.992   9.801  0.0372  0.1074  0.0367
  289loPI    C2 4610   6.312  12.836  10.169  0.1675 -0.0030 -0.0056
  289loPI    C3 4611   6.559  13.140  10.087 -0.0031  0.1517  0.0474
  289loPI   PO4 4612   6.023  13.090   9.707  0.0730 -0.3235  0.2597
  289loPI   GL1 4613   5.876  13.151   9.309 -0.1131 -0.0032 -0.3245
  289loPI   GL2 4614   5.677  13.422   9.447 -0.1061  0.1417 -0.0542
  289loPI   C1A 4615   5.878  13.116   8.841  0.0467 -0.2160 -0.0808
  289loPI   C2A 4616   6.006  13.251   8.454  0.3089  0.0102 -0.2146
  289loPI   C3A 4617   6.086  13.025   8.050  0.2145  0.1017 -0.1302
  289loPI   C4A 4618   6.175  12.742   7.780  0.0829 -0.5796 -0.2500
  289loPI   C5A 4619   6.543  12.554   7.689 -0.0502  0.1208 -0.2027
  289loPI   C6A 4620   6.886  12.225   7.590  0.4889 -0.2342  0.0001
  289loPI   C1B 4621   5.762  13.601   9.022 -0.1209 -0.2055 -0.1431
  289loPI   C2B 4622   5.692  13.658   8.470  0.3875 -0.1826 -0.2922
  289loPI   C3B 4623   5.453  13.714   8.019  0.1070 -0.1177 -0.0625
  289loPI   C4B 4624   5.674  14.001   7.809  0.0603  0.0951 -0.4082
  290loPI    C1 4625  12.173  16.574   9.910  0.1214 -0.0105 -0.1125
  290loPI    C2 4626  12.281  16.211  10.040 -0.1623 -0.1042 -0.1322
  290loPI    C3 4627  12.432  16.539  10.213 -0.3447 -0.2277  0.2729
  290loPI   PO4 4628  12.144  16.558   9.625  0.0873 -0.3506 -0.0320
  290loPI   GL1 4629  12.153  16.151   9.270  0.0552  0.3194  0.2283
  290loPI   GL2 4630  12.485  16.259   9.371  0.2161 -0.1094  0.2931
  290loPI   C1A 4631  11.751  16.185   9.018 -0.1516 -0.1553  0.0582
  290loPI   C2A 4632  11.638  15.962   8.647  0.2717 -0.1550 -0.0151
  290loPI   C3A 4633  11.606  16.050   8.232  0.1394 -0.1098  0.2309
  290loPI   C4A 4634  11.604  16.399   7.811  0.3259  0.4763 -0.0720
  290loPI   C5A 4635  11.777  16.447   7.373 -0.4861 -0.0670  0.2573
  290loPI   C6A 4636  12.048  16.629   7.111 -0.0064  0.4262  0.3875
  290loPI   C1B 4637  12.152  16.506   8.978  0.0167  0.1464 -0.1649
  290loPI   C2B 4638  12.016  16.470   8.543  0.0128  0.2526  0.1183
  290loPI   C3B 4639  12.036  16.279   8.137 -0.1039  0.0371  0.2701
  290loPI   C4B 4640  12.232  16.248   7.663  0.0735  0.0477 -0.0064
  291loPI    C1 4641   7.565  12.483  10.509 -0.0345  0.0277  0.2951
  291loPI    C2 4642   7.802  12.162  10.487 -0.0374  0.0346  0.1525
  291loPI    C3 4643   7.524  12.187  10.774 -0.1353 -0.1569  0.0762
  291loPI   PO4 4644   7.529  12.564  10.135  0.2772  0.1002  0.0231
  291loPI   GL1 4645   7.342  12.639   9.736 -0.0034  0.2293 -0.0784
  291loPI   GL2 4646   7.333  12.939   9.553  0.1797 -0.1279  0.3491
  291loPI   C1A 4647   7.564  12.468   9.387  0.0989  0.2672  0.0013
  291loPI   C2A 4648   7.686  12.316   9.017 -0.1539 -0.0255  0.1864
  291loPI   C3A 4649   7.645  12.348   8.515 -0.0769 -0.0852 -0.0767
  291loPI   C4A 4650   7.531  12.444   8.119 -0.1096 -0.3108  0.3155
  291loPI   C5A 4651   7.314  12.658   7.848 -0.0723 -0.1071 -0.1525
  291loPI   C6A 4652   7.066  12.789   7.541 -0.1881  0.5843 -0.2378
  291loPI   C1B 4653   7.385  13.125   9.145  0.0446  0.0620 -0.1355
  291loPI   C2B 4654   7.321  13.030   8.750  0.1692 -0.0838 -0.2467
  291loPI   C3B 4655   7.207  13.027   8.263  0.1704  0.1403  0.0937
  291loPI   C4B 4656   6.926  13.010   8.023  0.1693  0.0808  0.4597
  292loPI    C1 4657   7.512  17.795  10.537 -0.2116 -0.0932 -0.3379
  292loPI    C2 4658   7.500  17.399  10.588 -0.0104 -0.0449  0.1447
  292loPI    C3 4659   7.429  17.642  10.897 -0.2081  0.3008 -0.1645
  292loPI   PO4 4660   7.282  17.906  10.299 -0.2297 -0.6046 -0.1857
  292loPI   GL1 4661   7.221  17.987   9.911 -0.0133  0.0053  0.2760
  292loPI   GL2 4662   7.428  17.725   9.802 -0.0816  0.0507 -0.1865
  292loPI   C1A 4663   7.230  18.116   9.533  0.0637  0.1289  0.1958
  292loPI   C2A 4664   7.297  18.060   9.100 -0.0592  0.2523  0.0619
  292loPI   C3A 4665   7.230  18.245   8.666 -0.0770  0.0433 -0.1274
  292loPI   C4A 4666   7.071  18.437   8.246  0.0167  0.0982  0.0687
  292loPI   C5A 4667   7.009  18.766   7.967  0.0574 -0.0766  0.1832
  292loPI   C6A 4668   7.212  19.031   7.790 -0.1941  0.0004  0.0992
  292loPI   C1B 4669   7.586  17.712   9.306  0.4856  0.0759  0.0191
  292loPI   C2B 4670   7.718  17.673   8.931 -0.3563  0.1313 -0.1507
  292loPI   C3B 4671   7.805  17.664   8.405  0.0459 -0.3578 -0.0625
  292loPI   C4B 4672   8.268  17.544   8.375  0.0454 -0.0106 -0.0557
  293loPI    C1 4673   3.758   3.891  10.285 -0.1319 -0.2081  0.0292
  293loPI    C2 4674   4.063   3.702  10.110  0.0146  0.0780 -0.0309
  293loPI    C3 4675   4.034   3.708  10.509  0.2419  0.2798 -0.0149
  293loPI   PO4 4676   3.583   3.789  10.151 -0.0205 -0.2190 -0.1391
  293loPI   GL1 4677   3.366   3.624   9.842  0.0845 -0.4073 -0.0291
  293loPI   GL2 4678   3.378   3.955   9.687  0.2785 -0.0717 -0.0954
  293loPI   C1A 4679   3.245   3.595   9.366 -0.1254 -0.3195 -0.0974
  293loPI   C2A 4680   3.346   3.345   8.958 -0.0527 -0.1533 -0.1596
  293loPI   C3A 4681   3.210   3.243   8.599  0.3116  0.1284 -0.1854
  293loPI   C4A 4682   3.254   3.100   8.134  0.2119 -0.1093  0.1247
  293loPI   C5A 4683   3.591   3.011   7.825  0.1702  0.1969  0.1460
  293loPI   C6A 4684   3.833   2.570   7.872 -0.0216 -0.0074  0.0021
  293loPI   C1B 4685   3.175   4.071   9.241 -0.0643 -0.0947  0.1910
  293loPI   C2B 4686   2.960   4.082   8.758  0.1151  0.0810  0.1808
  293loPI   C3B 4687   2.741   4.115   8.326  0.0714 -0.2566 -0.2416
  293loPI   C4B 4688   2.660   3.798   8.112  0.2126 -0.1624 -0.1580
  294loPI    C1 4689  13.415  17.590   9.948 -0.0077  0.1632  0.0415
  294loPI    C2 4690  13.255  17.940  10.055  0.0444  0.1903  0.0309
  294loPI    C3 4691  13.534  17.769  10.285 -0.0883  0.0828  0.1129
  294loPI   PO4 4692  13.442  17.574   9.759  0.0461  0.3624 -0.1188
  294loPI   GL1 4693  13.213  17.599   9.349  0.0626  0.1467 -0.0084
  294loPI   GL2 4694  13.154  17.340   9.105 -0.2759  0.2193 -0.1071
  294loPI   C1A 4695  12.949  17.813   9.226  0.0612 -0.0724  0.0585
  294loPI   C2A 4696  13.047  17.931   8.728 -0.0275 -0.4101  0.0589
  294loPI   C3A 4697  13.243  18.206   8.487  0.0465  0.2612  0.4661
  294loPI   C4A 4698  13.548  18.265   8.115  0.2399 -0.2053  0.3763
  294loPI   C5A 4699  13.643  18.298   7.669 -0.2839  0.0287  0.0837
  294loPI   C6A 4700  13.331  18.116   7.408 -0.1877 -0.1902  0.1623
  294loPI   C1B 4701  13.344  17.478   8.781  0.1916 -0.0006  0.0219
  294loPI   C2B 4702  13.614  17.479   8.400 -0.0932  0.1060 -0.2777
  294loPI   C3B 4703  13.506  17.352   8.046  0.2766  0.0896  0.1938
  294loPI   C4B 4704  13.281  17.414   7.671  0.3599 -0.1744 -0.2064
  295loPI    C1 4705   9.920   8.702   9.453  0.3269 -0.1065  0.2052
  295loPI    C2 4706  10.041   8.529   9.113  0.0957 -0.0627  0.0992
  295loPI    C3 4707  10.175   8.893   9.211 -0.0831  0.0611 -0.1059
  295loPI   PO4 4708   9.689   8.757   9.421  0.0209 -0.1316 -0.1879
  295loPI   GL1 4709   9.551   8.459   9.071 -0.0450 -0.1338 -0.1143
  295loPI   GL2 4710   9.682   8.128   9.033 -0.2805 -0.1430  0.0866
  295loPI   C1A 4711   9.806   8.521   8.723 -0.4004 -0.1794  0.2280
  295loPI   C2A 4712   9.984   8.512   8.307  0.1680  0.2776 -0.2844
  295loPI   C3A 4713  10.163   8.296   7.956 -0.3098  0.1425 -0.0541
  295loPI   C4A 4714  10.268   8.178   7.548 -0.1457  0.1730 -0.0515
  295loPI   C5A 4715  10.231   8.316   7.110 -0.2479 -0.0525  0.1529
  295loPI   C6A 4716   9.995   8.326   6.696 -0.0383 -0.2137  0.3975
  295loPI   C1B 4717   9.652   7.749   8.773 -0.0327 -0.2562  0.0166
  295loPI   C2B 4718   9.588   7.823   8.353 -0.0767 -0.0805 -0.3295
  295loPI   C3B 4719   9.404   7.851   7.920  0.0509  0.3535 -0.2712
  295loPI   C4B 4720   9.126   7.514   7.612  0.0670  0.1211 -0.0783
  296loPI    C1 4721  17.346  15.265  10.493  0.2664 -0.2674  0.1979
  296loPI    C2 4722  17.133  15.032  10.739 -0.0380 -0.1235  0.0760
  296loPI    C3 4723  17.270  15.385  10.867 -0.1257 -0.0853  0.0654
  296loPI   PO4 4724  17.168  15.178  10.279 -0.0663 -0.4010 -0.2373
  296loPI   GL1 4725  17.230  15.089   9.750  0.4428 -0.0047 -0.2753
  296loPI   GL2 4726  16.890  15.142   9.818 -0.0681 -0.0861  0.1243
  296loPI   C1A 4727  17.318  15.055   9.357 -0.2275  0.3059  0.0067
  296loPI   C2A 4728  17.476  15.276   8.924 -0.2527  0.1181  0.0068
  296loPI   C3A 4729  17.592  15.425   8.547  0.2765  0.1208  0.3385
  296loPI   C4A 4730  17.603  15.569   8.079 -0.0087 -0.2162 -0.1068
  296loPI   C5A 4731  17.927  15.335   7.884 -0.1325  0.0034  0.0208
  296loPI   C6A 4732  18.166  15.029   7.874 -0.0830 -0.0575  0.1432
  296loPI   C1B 4733  16.783  15.235   9.459  0.1250 -0.2235  0.0654
  296loPI   C2B 4734  16.970  15.180   9.071 -0.2685  0.1767  0.1790
  296loPI   C3B 4735  17.000  15.111   8.651  0.1239 -0.0160 -0.0776
  296loPI   C4B 4736  16.882  15.038   8.204 -0.1891 -0.1522  0.2596
  297loPI    C1 4737  18.665   8.008   9.882  0.1893  0.0982 -0.0491
  297loPI    C2 4738  18.581   7.634   9.768 -0.1674  0.1616 -0.0068
  297loPI    C3 4739  18.909   7.708   9.983 -0.1701 -0.1489  0.1100
  297loPI   PO4 4740  18.482   8.103   9.856  0.0590 -0.0538 -0.2258
  297loPI   GL1 4741  18.332   8.390   9.625 -0.1934 -0.2718  0.2511
  297loPI   GL2 4742  18.479   8.710   9.567  0.4527 -0.0393  0.0588
  297loPI   C1A 4743  18.236   8.341   9.248  0.1501  0.0039  0.1795
  297loPI   C2A 4744  18.175   8.262   8.850  0.2139 -0.0501  0.0796
  297loPI   C3A 4745  18.122   8.328   8.481  0.0616 -0.2915  0.0959
  297loPI   C4A 4746  18.023   8.294   8.114 -0.0087  0.0407 -0.0569
  297loPI   C5A 4747  18.130   8.347   7.637  0.2853  0.0086 -0.0970
  297loPI   C6A 4748  18.557   8.572   7.639 -0.0442  0.1361 -0.0002
  297loPI   C1B 4749  18.466   8.779   9.079  0.1124 -0.0643 -0.0214
  297loPI   C2B 4750  18.437   8.651   8.696  0.0740  0.1013  0.0240
  297loPI   C3B 4751  18.244   8.843   8.366 -0.1083 -0.0736  0.1354
  297loPI   C4B 4752  18.159   8.830   7.972  0.0245  0.0415  0.1045
  298loPI    C1 4753  13.341   3.924  10.486 -0.2026  0.3760 -0.1962
  298loPI    C2 4754  12.987   4.079  10.587 -0.1077  0.2605  0.3467
  298loPI    C3 4755  13.307   4.146  10.817  0.2163  0.3179 -0.1083
  298loPI   PO4 4756  13.192   3.699  10.280  0.2814 -0.0613  0.2180
  298loPI   GL1 4757  13.331   3.357   9.874 -0.2463  0.0975 -0.2743
  298loPI   GL2 4758  13.602   3.430   9.728  0.0659  0.0720  0.2473
  298loPI   C1A 4759  13.382   3.067   9.421  0.0888  0.1301  0.2311
  298loPI   C2A 4760  13.560   2.886   9.017 -0.3144  0.1120 -0.4219
  298loPI   C3A 4761  13.613   2.919   8.686  0.1110 -0.0645  0.1266
  298loPI   C4A 4762  13.604   2.801   8.304  0.1600 -0.0115 -0.0381
  298loPI   C5A 4763  13.409   2.786   7.899 -0.0249 -0.0307 -0.0960
  298loPI   C6A 4764  13.020   2.875   7.720  0.0366  0.3476  0.1114
  298loPI   C1B 4765  13.485   3.549   9.302 -0.2454 -0.1642  0.0844
  298loPI   C2B 4766  13.382   3.376   8.964  0.0720  0.3094  0.2232
  298loPI   C3B 4767  13.378   3.374   8.599 -0.2885 -0.0456 -0.1125
  298loPI   C4B 4768  13.352   3.664   8.316 -0.1251  0.0589  0.2324
  299loPI    C1 4769   8.934  13.245  10.184  0.1022 -0.1853 -0.1524
  299loPI    C2 4770   8.687  13.406  10.454  0.0390 -0.1780 -0.2143
  299loPI    C3 4771   8.937  13.112  10.561  0.2395  0.0408 -0.0718
  299loPI   PO4 4772   9.026  13.462  10.016  0.1595 -0.2976  0.0274
  299loPI   GL1 4773   9.072  13.480   9.564 -0.1872  0.1839 -0.3076
  299loPI   GL2 4774   8.871  13.116   9.574 -0.2889  0.2248  0.1656
  299loPI   C1A 4775   9.099  13.715   9.254 -0.2084  0.2676 -0.5014
  299loPI   C2A 4776   9.072  13.839   8.896 -0.0668 -0.1921  0.0221
  299loPI   C3A 4777   9.065  13.798   8.452  0.0782 -0.0613  0.1205
  299loPI   C4A 4778   9.010  13.957   8.068 -0.0296  0.0935  0.1550
  299loPI   C5A 4779   8.809  14.188   7.789 -0.4405 -0.2648  0.1148
  299loPI   C6A 4780   8.819  14.645   7.619 -0.0625 -0.2016  0.0677
  299loPI   C1B 4781   8.869  13.236   9.144 -0.3850 -0.0379  0.1723
  299loPI   C2B 4782   8.906  13.399   8.788  0.2007  0.0689  0.2294
  299loPI   C3B 4783   8.938  13.311   8.366 -0.0617  0.1215 -0.0879
  299loPI   C4B 4784   9.184  13.460   8.019 -0.1597  0.2458  0.0496
  300loPI    C1 4785   0.646   3.960   9.979  0.0434  0.6332 -0.0365
  300loPI    C2 4786   0.295   4.000  10.166  0.0380 -0.0496  0.1265
  300loPI    C3 4787   0.635   4.007  10.376  0.0800 -0.0538  0.0590
  300loPI   PO4 4788   0.586   4.062   9.736 -0.0420 -0.1417  0.3502
  300loPI   GL1 4789   0.767   3.974   9.299 -0.1226 -0.0678 -0.1544
  300loPI   GL2 4790   0.435   4.037   9.231  0.0214 -0.3559 -0.0354
  300loPI   C1A 4791   0.872   4.183   8.908  0.1508 -0.1992  0.1310
  300loPI   C2A 4792   0.894   3.973   8.438 -0.0449  0.1874 -0.1438
  300loPI   C3A 4793   0.632   3.930   7.996 -0.1432 -0.1234 -0.0228
  300loPI   C4A 4794   0.735   3.816   7.566 -0.0234  0.0195  0.1209
  300loPI   C5A 4795   0.641   3.690   7.153 -0.0533  0.1334 -0.1809
  300loPI   C6A 4796   0.550   3.550   6.726 -0.3244 -0.1834 -0.0787
  300loPI   C1B 4797   0.363   4.122   8.813  0.2386 -0.0294 -0.0414
  300loPI   C2B 4798   0.403   4.069   8.406  0.2314  0.2163  0.2419
  300loPI   C3B 4799   0.161   4.118   8.016 -0.2759  0.1603 -0.0031
  300loPI   C4B 4800  -0.021   4.276   7.758 -0.1427 -0.3313  0.0552
  301loPI    C1 4801   9.250   4.235  10.090 -0.0571 -0.0754  0.0220
  301loPI    C2 4802   9.105   4.477  10.374 -0.3304 -0.2189  0.0087
  301loPI    C3 4803   9.400   4.222  10.461  0.1055  0.2555 -0.0281
  301loPI   PO4 4804   9.176   4.384   9.905 -0.3764  0.1152 -0.2437
  301loPI   GL1 4805   8.858   4.531   9.659 -0.1376 -0.1477  0.1129
  301loPI   GL2 4806   8.522   4.437   9.651 -0.2989  0.1655  0.0847
  301loPI   C1A 4807   8.577   4.646   9.195 -0.1284  0.0767 -0.0105
  301loPI   C2A 4808   8.911   4.698   8.868 -0.1663 -0.1190  0.0725
  301loPI   C3A 4809   9.089   4.841   8.533 -0.0113 -0.3073  0.1309
  301loPI   C4A 4810   9.222   4.770   8.027 -0.1107 -0.0266  0.0797
  301loPI   C5A 4811   8.828   4.632   7.681 -0.1509 -0.0742  0.0116
  301loPI   C6A 4812   8.470   4.718   7.496  0.0089  0.1939  0.0466
  301loPI   C1B 4813   8.131   4.357   9.307 -0.1772  0.1506  0.1643
  301loPI   C2B 4814   8.101   4.427   8.896  0.0574  0.0758  0.2132
  301loPI   C3B 4815   8.074   4.541   8.433  0.1961  0.3745  0.0007
  301loPI   C4B 4816   8.384   4.565   8.042 -0.1130 -0.1506  0.0071
  302loPI    C1 4817  17.467   4.716   9.658  0.0504 -0.1015 -0.0684
  302loPI    C2 4818  17.643   4.937   9.941  0.0066  0.1184 -0.2100
  302loPI    C3 4819  17.277   4.788  10.002  0.0283  0.1003 -0.1217
  302loPI   PO4 4820  17.640   4.589   9.553  0.2345 -0.3596 -0.0006
  302loPI   GL1 4821  17.664   4.562   9.123 -0.0993 -0.3110 -0.1127
  302loPI   GL2 4822  17.558   4.944   9.066  0.4549 -0.4004 -0.1179
  302loPI   C1A 4823  17.676   4.533   8.633  0.2816  0.0238 -0.1501
  302loPI   C2A 4824  17.885   4.372   8.277  0.3327  0.2988  0.1763
  302loPI   C3A 4825  17.988   4.037   8.026 -0.0680  0.4800  0.2401
  302loPI   C4A 4826  18.001   3.881   7.658 -0.2217  0.1758  0.0067
  302loPI   C5A 4827  17.739   3.798   7.319  0.2656 -0.0400  0.2223
  302loPI   C6A 4828  17.465   3.379   7.297  0.0491  0.0208 -0.1897
  302loPI   C1B 4829  17.721   5.030   8.704 -0.3988  0.0986 -0.0159
  302loPI   C2B 4830  18.001   5.184   8.523  0.0686  0.0333 -0.0163
  302loPI   C3B 4831  18.011   5.242   8.136  0.4946 -0.3229 -0.2832
  302loPI   C4B 4832  18.062   5.050   7.705 -0.1009 -0.2982  0.0482
  303loPI    C1 4833  11.111  14.181   9.766  0.1280  0.3514 -0.0630
  303loPI    C2 4834  11.086  14.486  10.024 -0.0189  0.0061  0.3437
  303loPI    C3 4835  10.859  14.161  10.077  0.1380 -0.1796 -0.0805
  303loPI   PO4 4836  11.149  14.335   9.511 -0.0569 -0.0802 -0.3263
  303loPI   GL1 4837  11.415  14.516   9.304  0.1668 -0.0752 -0.0784
  303loPI   GL2 4838  11.645  14.317   9.333 -0.3289 -0.0750 -0.1674
  303loPI   C1A 4839  11.478  14.750   9.012 -0.5507 -0.2327 -0.0036
  303loPI   C2A 4840  11.494  14.682   8.642  0.1608 -0.1372 -0.2060
  303loPI   C3A 4841  11.494  14.783   8.261  0.0858 -0.1699 -0.0417
  303loPI   C4A 4842  11.574  14.888   7.824  0.0383  0.1426 -0.0859
  303loPI   C5A 4843  11.428  14.840   7.427 -0.1696  0.3317  0.1744
  303loPI   C6A 4844  11.517  14.657   6.945  0.1534  0.0146  0.2398
  303loPI   C1B 4845  11.749  14.308   8.880 -0.0594 -0.0144  0.3535
  303loPI   C2B 4846  11.796  14.295   8.364 -0.0719 -0.3269 -0.1773
  303loPI   C3B 4847  11.669  14.387   7.945  0.1222 -0.0422  0.1163
  303loPI   C4B 4848  11.748  14.492   7.461  0.2381 -0.0058  0.0412
  304loPI    C1 4849  15.614  15.785  10.651 -0.0249 -0.0807 -0.0032
  304loPI    C2 4850  15.586  15.388  10.693  0.1399 -0.0836  0.0852
  304loPI    C3 4851  15.503  15.629  11.002 -0.1263 -0.0409 -0.0171
  304loPI   PO4 4852  15.519  15.803  10.385 -0.2107 -0.0239 -0.2051
  304loPI   GL1 4853  15.752  15.788   9.948  0.2937 -0.0777 -0.0850
  304loPI   GL2 4854  15.648  15.663   9.627 -0.2661 -0.0123  0.0140
  304loPI   C1A 4855  16.100  15.964   9.561  0.0269 -0.1675  0.0715
  304loPI   C2A 4856  16.252  16.022   9.135  0.3292 -0.4576 -0.0021
  304loPI   C3A 4857  16.196  15.883   8.689  0.1427  0.0223 -0.0336
  304loPI   C4A 4858  16.401  15.894   8.382 -0.2560 -0.0101 -0.2650
  304loPI   C5A 4859  16.598  15.943   7.968 -0.1418  0.2746 -0.1693
  304loPI   C6A 4860  17.021  15.862   7.828  0.2487  0.0974 -0.2065
  304loPI   C1B 4861  15.761  15.839   9.169 -0.0540 -0.1493  0.2966
  304loPI   C2B 4862  15.771  15.677   8.752 -0.0880  0.0163 -0.2628
  304loPI   C3B 4863  15.916  15.647   8.225 -0.1741 -0.1182 -0.2709
  304loPI   C4B 4864  15.627  15.461   7.805 -0.0586  0.3563 -0.3611
  305loPI    C1 4865  16.644   2.327  10.187  0.0677 -0.1736  0.1697
  305loPI    C2 4866  16.256   2.230  10.209  0.0157 -0.0302 -0.0775
  305loPI    C3 4867  16.419   2.468  10.486 -0.0840 -0.0522  0.0006
  305loPI   PO4 4868  16.708   2.366   9.883 -0.0413 -0.1983  0.1202
  305loPI   GL1 4869  16.690   2.520   9.470  0.1946  0.4237  0.0151
  305loPI   GL2 4870  16.739   2.813   9.352  0.0577  0.2609  0.0721
  305loPI   C1A 4871  16.807   2.361   9.173 -0.0759  0.0427 -0.0034
  305loPI   C2A 4872  16.732   2.300   8.696  0.1185  0.2011 -0.3884
  305loPI   C3A 4873  16.686   2.111   8.420  0.2512  0.1899  0.0418
  305loPI   C4A 4874  16.704   2.016   7.959 -0.1316  0.0628  0.1224
  305loPI   C5A 4875  16.983   1.944   7.727  0.0039  0.0781  0.3358
  305loPI   C6A 4876  17.448   1.891   7.747 -0.2538  0.0078  0.1378
  305loPI   C1B 4877  16.724   2.794   8.877 -0.0068 -0.0825 -0.1503
  305loPI   C2B 4878  16.583   2.863   8.471  0.0295  0.3078  0.2994
  305loPI   C3B 4879  16.618   2.708   8.126  0.2054  0.0067 -0.1386
  305loPI   C4B 4880  16.612   2.595   7.684  0.1162 -0.2729 -0.0248
  306loPI    C1 4881   2.580  13.609  10.282  0.0002 -0.0229  0.1211
  306loPI    C2 4882   2.421  13.797  10.597 -0.1538  0.0383  0.0083
  306loPI    C3 4883   2.312  13.421  10.512 -0.1192  0.0251  0.0221
  306loPI   PO4 4884   2.658  13.745  10.080  0.0067  0.1508 -0.0999
  306loPI   GL1 4885   2.683  13.572   9.587  0.0411  0.2178  0.0483
  306loPI   GL2 4886   2.974  13.619   9.704 -0.0774  0.0922 -0.4741
  306loPI   C1A 4887   2.632  13.390   9.211  0.1513 -0.1462 -0.2194
  306loPI   C2A 4888   2.891  13.031   9.088  0.2239  0.0133  0.0623
  306loPI   C3A 4889   2.729  12.752   8.820  0.0909  0.0986 -0.1001
  306loPI   C4A 4890   2.761  12.505   8.425 -0.1293  0.0238  0.1105
  306loPI   C5A 4891   2.949  12.380   7.969 -0.0567 -0.0405 -0.0721
  306loPI   C6A 4892   3.185  12.489   7.656 -0.0769  0.0115 -0.2911
  306loPI   C1B 4893   3.188  13.363   9.350  0.0473  0.3237 -0.3548
  306loPI   C2B 4894   3.162  13.344   8.821 -0.1918  0.0687  0.1509
  306loPI   C3B 4895   3.163  12.934   8.525 -0.0324  0.2016 -0.1882
  306loPI   C4B 4896   3.277  12.847   7.966 -0.0339 -0.0781  0.0205
  307loPI    C1 4897   0.191  15.338  10.643 -0.0517  0.1633  0.0917
  307loPI    C2 4898   0.493  15.212  10.874 -0.0242  0.0378 -0.0119
  307loPI    C3 4899   0.121  15.227  11.021 -0.0391 -0.2310 -0.0177
  307loPI   PO4 4900   0.301  15.395  10.385 -0.1065  0.2273 -0.0428
  307loPI   GL1 4901   0.461  15.247   9.895  0.2805 -0.1609 -0.0433
  307loPI   GL2 4902   0.181  15.150   9.687  0.0271 -0.1920 -0.0574
  307loPI   C1A 4903   0.668  15.155   9.515 -0.0202  0.1554 -0.0547
  307loPI   C2A 4904   0.746  15.051   9.120  0.1902  0.0366 -0.1998
  307loPI   C3A 4905   0.729  14.962   8.768 -0.0000  0.0495 -0.2403
  307loPI   C4A 4906   0.792  15.141   8.329 -0.0535 -0.0971 -0.2797
  307loPI   C5A 4907   0.902  14.913   7.970 -0.1738  0.1547  0.2469
  307loPI   C6A 4908   0.563  14.769   7.793  0.2214  0.0174  0.0099
  307loPI   C1B 4909   0.245  15.139   9.301  0.2060 -0.4100 -0.1817
  307loPI   C2B 4910   0.284  15.143   8.883 -0.2442  0.2270  0.0307
  307loPI   C3B 4911   0.267  15.122   8.485 -0.2680  0.2713  0.0072
  307loPI   C4B 4912   0.335  15.112   8.126 -0.1332 -0.1113  0.0756
  308loPI    C1 4913  12.741  13.091  10.114  0.2589 -0.5358  0.3108
  308loPI    C2 4914  13.023  13.356  10.213  0.0273 -0.2155  0.1293
  308loPI    C3 4915  12.752  13.242  10.484 -0.1451  0.0812  0.0866
  308loPI   PO4 4916  12.922  12.940   9.944 -0.2451  0.2866  0.0961
  308loPI   GL1 4917  13.151  13.008   9.563 -0.0162 -0.1903  0.0790
  308loPI   GL2 4918  13.146  13.367   9.648  0.3449  0.1548  0.0812
  308loPI   C1A 4919  13.243  12.903   9.238 -0.0110  0.0828  0.2998
  308loPI   C2A 4920  13.439  12.764   8.846 -0.2464 -0.1245 -0.3258
  308loPI   C3A 4921  13.412  12.405   8.545 -0.2621 -0.0475 -0.1438
  308loPI   C4A 4922  13.202  12.203   8.293  0.2258  0.2144  0.0014
  308loPI   C5A 4923  13.427  11.867   8.073 -0.0246  0.2072  0.1399
  308loPI   C6A 4924  13.684  11.609   8.302 -0.0395  0.0859  0.2803
  308loPI   C1B 4925  13.184  13.402   9.176 -0.1180  0.1446 -0.1568
  308loPI   C2B 4926  13.412  13.259   8.845 -0.0862  0.2653  0.0741
  308loPI   C3B 4927  13.359  13.369   8.444  0.0560  0.0381  0.1766
  308loPI   C4B 4928  13.096  13.323   8.109  0.0195 -0.1250 -0.3429
  309loPI    C1 4929   8.081   6.411  10.375  0.0927 -0.0154 -0.0855
  309loPI    C2 4930   7.840   6.546  10.664  0.2501 -0.1609  0.1162
  309loPI    C3 4931   8.063   6.219  10.725  0.2018 -0.2587 -0.2108
  309loPI   PO4 4932   7.901   6.342  10.195 -0.1709  0.0803 -0.2458
  309loPI   GL1 4933   7.895   6.365   9.771 -0.1505 -0.1872  0.0503
  309loPI   GL2 4934   8.140   6.338   9.563  0.0550 -0.0771  0.1323
  309loPI   C1A 4935   7.619   6.429   9.562 -0.0078 -0.0729 -0.3092
  309loPI   C2A 4936   7.749   6.456   9.071 -0.3462 -0.0634  0.1418
  309loPI   C3A 4937   7.704   6.377   8.571  0.1906  0.1495 -0.1146
  309loPI   C4A 4938   7.757   6.198   8.207 -0.1983  0.1759 -0.1798
  309loPI   C5A 4939   7.698   5.964   8.007  0.0834 -0.1219 -0.0395
  309loPI   C6A 4940   7.675   5.710   7.646 -0.1720  0.1929 -0.0178
  309loPI   C1B 4941   8.322   6.406   9.224 -0.2955  0.0472  0.3887
  309loPI   C2B 4942   8.204   6.314   8.808  0.1057 -0.3386 -0.3055
  309loPI   C3B 4943   8.359   6.284   8.430  0.1396  0.1187  0.1780
  309loPI   C4B 4944   8.457   6.460   8.127 -0.1604 -0.0854  0.2197
  310loPI    C1 4945   5.347   2.246  10.732 -0.2249  0.2508 -0.1842
  310loPI    C2 4946   5.642   2.480  10.868 -0.0465 -0.0556 -0.0335
  310loPI    C3 4947   5.343   2.375  11.111  0.0454 -0.2495 -0.0023
  310loPI   PO4 4948   5.314   2.408  10.447  0.0919 -0.1518 -0.1165
  310loPI   GL1 4949   5.123   2.434  10.048 -0.3297 -0.0746 -0.1592
  310loPI   GL2 4950   5.491   2.374   9.969  0.0628  0.0167 -0.0017
  310loPI   C1A 4951   4.901   2.543   9.592  0.0398  0.0472  0.0769
  310loPI   C2A 4952   4.897   2.483   9.166  0.0365 -0.0246  0.2554
  310loPI   C3A 4953   4.878   2.383   8.758  0.0902 -0.2875  0.0333
  310loPI   C4A 4954   4.877   2.190   8.440  0.0883  0.0220  0.3136
  310loPI   C5A 4955   4.580   2.336   8.163 -0.1001  0.2150  0.2343
  310loPI   C6A 4956   4.348   2.777   8.050 -0.0105 -0.3016  0.1343
  310loPI   C1B 4957   5.428   2.492   9.556 -0.0866 -0.0297 -0.0553
  310loPI   C2B 4958   5.427   2.598   9.069 -0.0912 -0.0588  0.0028
  310loPI   C3B 4959   5.439   2.679   8.646 -0.2939 -0.0778  0.1960
  310loPI   C4B 4960   5.360   2.865   8.306 -0.0209 -0.1679  0.3731
  311loPI    C1 4961  18.715   7.007   9.958 -0.0529 -0.3623  0.0636
  311loPI    C2 4962  18.856   7.250  10.242 -0.5030 -0.0719  0.0488
  311loPI    C3 4963  18.833   6.856  10.309 -0.1538 -0.0659  0.2282
  311loPI   PO4 4964  18.695   7.178   9.747  0.0003  0.3365 -0.1863
  311loPI   GL1 4965  18.927   7.318   9.513 -0.0238  0.3934  0.2519
  311loPI   GL2 4966  19.067   6.966   9.497 -0.1448  0.2286  0.2204
  311loPI   C1A 4967  19.019   7.350   9.047 -0.0002  0.2068 -0.2692
  311loPI   C2A 4968  18.942   7.444   8.640 -0.2900 -0.1563 -0.1077
  311loPI   C3A 4969  19.123   7.384   8.205 -0.0665  0.1940 -0.1538
  311loPI   C4A 4970  19.431   7.464   7.907  0.1632  0.2654  0.0673
  311loPI   C5A 4971  19.811   7.558   7.684  0.0914  0.0310  0.0549
  311loPI   C6A 4972  20.095   7.178   7.499  0.1365  0.0050 -0.0440
  311loPI   C1B 4973  19.310   6.908   9.142  0.2331  0.0530  0.2722
  311loPI   C2B 4974  19.419   7.072   8.752  0.0744 -0.2608 -0.0339
  311loPI   C3B 4975  19.495   7.540   8.665 -0.4386  0.2190  0.2542
  311loPI   C4B 4976  19.691   7.812   8.941  0.2651 -0.0453  0.1780
  312loPI    C1 4977   6.198   0.298  10.771  0.3630  0.1311  0.0559
  312loPI    C2 4978   6.014   0.070  11.042 -0.0124  0.3875  0.0246
  312loPI    C3 4979   6.411   0.049  11.000 -0.0148 -0.0902  0.1749
  312loPI   PO4 4980   6.062   0.264  10.490 -0.3341  0.0096  0.0458
  312loPI   GL1 4981   5.985   0.227  10.075 -0.3299  0.0462  0.3050
  312loPI   GL2 4982   6.081  -0.062   9.953  0.0362  0.0992 -0.2390
  312loPI   C1A 4983   6.184   0.461   9.712 -0.2306  0.2661  0.0505
  312loPI   C2A 4984   6.225   0.696   9.329 -0.2196 -0.0297 -0.0647
  312loPI   C3A 4985   6.065   0.733   8.968 -0.2180 -0.1178 -0.0789
  312loPI   C4A 4986   5.941   0.789   8.560  0.2384 -0.1470 -0.0199
  312loPI   C5A 4987   5.718   1.032   8.176  0.1283  0.1126  0.0342
  312loPI   C6A 4988   5.355   1.328   8.396  0.1191  0.0583 -0.0559
  312loPI   C1B 4989   5.774  -0.215   9.491 -0.3302 -0.0263  0.1219
  312loPI   C2B 4990   5.782  -0.252   8.990 -0.0924  0.1130  0.2147
  312loPI   C3B 4991   5.952  -0.368   8.492 -0.2952  0.2765  0.1178
  312loPI   C4B 4992   5.906  -0.322   8.093  0.0850  0.1361 -0.2735
  313loPI    C1 4993  16.296  12.484  10.102 -0.1646 -0.0741 -0.0541
  313loPI    C2 4994  15.963  12.707  10.092 -0.0506  0.1070  0.1057
  313loPI    C3 4995  16.077  12.533  10.434 -0.0603 -0.0790  0.0157
  313loPI   PO4 4996  16.438  12.708   9.894 -0.2948  0.0064 -0.1468
  313loPI   GL1 4997  16.081  12.995   9.730  0.1489 -0.1719 -0.1201
  313loPI   GL2 4998  16.241  13.009   9.520  0.2118  0.0056 -0.0048
  313loPI   C1A 4999  15.784  13.138   9.425  0.1343 -0.4432  0.0356
  313loPI   C2A 5000  15.754  13.091   8.938 -0.0084  0.2325  0.2289
  313loPI   C3A 5001  15.789  13.101   8.537  0.5576 -0.1923 -0.2238
  313loPI   C4A 5002  15.796  13.229   8.147 -0.0353 -0.3074 -0.2921
  313loPI   C5A 5003  16.037  13.254   7.767  0.0768 -0.0024 -0.0327
  313loPI   C6A 5004  16.125  13.265   7.357 -0.0655  0.0368 -0.2000
  313loPI   C1B 5005  16.165  13.299   9.193 -0.1100  0.1407  0.2820
  313loPI   C2B 5006  16.160  13.320   8.753 -0.0934  0.0317  0.1631
  313loPI   C3B 5007  16.308  13.357   8.363  0.6211 -0.0599  0.2641
  313loPI   C4B 5008  16.473  13.543   8.050 -0.1458 -0.0097 -0.2351
  314loPI    C1 5009   1.314  13.957  10.495  0.0592 -0.0998  0.0105
  314loPI    C2 5010   1.641  14.051  10.705 -0.0283 -0.0732  0.1356
  314loPI    C3 5011   1.278  14.131  10.853 -0.0871  0.1829 -0.1381
  314loPI   PO4 5012   1.364  13.909  10.318  0.2905  0.1671  0.2434
  314loPI   GL1 5013   1.372  13.978   9.895  0.0158 -0.0662  0.2799
  314loPI   GL2 5014   1.337  14.249   9.790 -0.2809 -0.0803 -0.0137
  314loPI   C1A 5015   1.579  13.895   9.498  0.2449 -0.1428 -0.1693
  314loPI   C2A 5016   1.793  13.715   9.194 -0.2288 -0.1642 -0.1586
  314loPI   C3A 5017   1.951  13.552   8.907 -0.1603  0.0492 -0.2588
  314loPI   C4A 5018   1.856  13.502   8.486 -0.1650 -0.0280 -0.1690
  314loPI   C5A 5019   1.569  13.676   8.143 -0.0940 -0.4235  0.1490
  314loPI   C6A 5020   1.457  13.638   7.674 -0.1451 -0.0929  0.0874
  314loPI   C1B 5021   1.614  14.451   9.411  0.0785  0.0311 -0.0824
  314loPI   C2B 5022   1.773  14.607   9.058 -0.3122  0.0486  0.1293
  314loPI   C3B 5023   1.793  14.552   8.672  0.0518 -0.1484 -0.0723
  314loPI   C4B 5024   1.907  14.599   8.348  0.0198  0.0164 -0.1974
  315loPI    C1 5025  11.169   4.951  10.034 -0.2431  0.0834  0.0790
  315loPI    C2 5026  10.861   4.940  10.289 -0.1869  0.0318  0.1453
  315loPI    C3 5027  11.216   4.791  10.398 -0.1313  0.1140  0.0785
  315loPI   PO4 5028  11.117   4.830   9.784  0.1633 -0.2697 -0.0011
  315loPI   GL1 5029  11.010   4.948   9.381 -0.1537  0.0511  0.0499
  315loPI   GL2 5030  11.011   5.220   9.112  0.0065 -0.2032 -0.1891
  315loPI   C1A 5031  11.237   4.810   8.952  0.0463 -0.0504 -0.1640
  315loPI   C2A 5032  11.429   4.746   8.520 -0.0903  0.0047 -0.1651
  315loPI   C3A 5033  11.314   4.798   8.154 -0.0987 -0.3651 -0.1482
  315loPI   C4A 5034  11.168   4.723   7.746  0.4355 -0.1746 -0.4750
  315loPI   C5A 5035  10.925   4.903   7.340 -0.3131  0.0402 -0.3516
  315loPI   C6A 5036  11.000   5.293   7.242  0.4781 -0.1898 -0.1514
  315loPI   C1B 5037  11.050   5.191   8.585 -0.0442 -0.1745  0.4557
  315loPI   C2B 5038  11.005   5.157   8.225  0.0935  0.1889  0.1791
  315loPI   C3B 5039  10.687   5.008   7.986 -0.2904  0.2527  0.3508
  315loPI   C4B 5040  10.273   4.831   7.906 -0.0336 -0.1742 -0.2646
  316loPI    C1 5041   4.966   8.681   9.891  0.0852  0.0573 -0.0755
  316loPI    C2 5042   5.296   8.468   9.967 -0.0743 -0.1478  0.0490
  316loPI    C3 5043   5.019   8.519  10.252 -0.1119  0.0943 -0.0286
  316loPI   PO4 5044   4.834   8.754   9.718  0.0104 -0.2565 -0.1219
  316loPI   GL1 5045   4.857   8.736   9.358 -0.4396  0.1032  0.0201
  316loPI   GL2 5046   4.794   8.509   9.172  0.1574  0.1726 -0.2705
  316loPI   C1A 5047   4.780   8.992   8.954 -0.1367 -0.2101 -0.3461
  316loPI   C2A 5048   5.083   8.968   8.551  0.1273  0.2107  0.0288
  316loPI   C3A 5049   5.382   9.120   8.241 -0.1728  0.1492 -0.1556
  316loPI   C4A 5050   5.913   9.202   8.303  0.1312  0.0416  0.1505
  316loPI   C5A 5051   6.117   9.355   8.618  0.1748 -0.0546 -0.2481
  316loPI   C6A 5052   6.269   9.805   8.647  0.0359 -0.1543  0.1687
  316loPI   C1B 5053   4.613   8.310   8.892 -0.0486  0.0472 -0.3670
  316loPI   C2B 5054   4.247   8.334   8.729 -0.2044  0.1275  0.2659
  316loPI   C3B 5055   4.038   8.703   8.494  0.3128 -0.0036  0.0690
  316loPI   C4B 5056   3.999   8.903   8.133 -0.1836 -0.0932 -0.1404
  317loPI    C1 5057  11.914   5.588   9.558 -0.0294  0.0839  0.1763
  317loPI    C2 5058  12.270   5.738   9.453 -0.0848  0.1047  0.0151
  317loPI    C3 5059  12.195   5.650   9.836  0.2169 -0.2276  0.0034
  317loPI   PO4 5060  11.834   5.443   9.338 -0.2840 -0.2972 -0.0110
  317loPI   GL1 5061  11.774   5.553   8.848  0.1589 -0.0364 -0.0068
  317loPI   GL2 5062  11.549   5.341   8.747  0.0322  0.1192 -0.7008
  317loPI   C1A 5063  11.874   5.519   8.423 -0.0603  0.3229 -0.1375
  317loPI   C2A 5064  11.827   5.412   8.004 -0.4104 -0.0566 -0.2113
  317loPI   C3A 5065  12.001   5.150   7.595  0.1438  0.0318  0.0812
  317loPI   C4A 5066  12.225   4.892   7.441 -0.4656  0.2344  0.2033
  317loPI   C5A 5067  12.202   4.494   7.192  0.1080 -0.0499 -0.0784
  317loPI   C6A 5068  11.891   4.069   7.223 -0.0243  0.1854  0.1166
  317loPI   C1B 5069  11.456   5.242   8.337  0.0272 -0.2262 -0.2901
  317loPI   C2B 5070  11.340   5.172   7.844  0.2555  0.1643  0.0652
  317loPI   C3B 5071  11.485   5.091   7.539 -0.0314 -0.0018 -0.0437
  317loPI   C4B 5072  11.414   4.815   7.257  0.2458  0.1224  0.2013
  318loPI    C1 5073  15.089   5.361   9.900 -0.1632  0.3201 -0.1525
  318loPI    C2 5074  15.118   5.705  10.101 -0.0804  0.2586 -0.0583
  318loPI    C3 5075  14.778   5.611   9.914 -0.1721  0.2980  0.0871
  318loPI   PO4 5076  15.248   5.345   9.760  0.0813  0.0553  0.0108
  318loPI   GL1 5077  15.514   5.140   9.411  0.1729  0.1719 -0.0773
  318loPI   GL2 5078  15.314   5.425   9.297 -0.1355 -0.3986  0.0382
  318loPI   C1A 5079  15.574   4.933   8.991  0.0079 -0.1672  0.1292
  318loPI   C2A 5080  15.254   4.862   8.621  0.0898  0.3279  0.0093
  318loPI   C3A 5081  14.892   4.741   8.337  0.0057 -0.1041 -0.0324
  318loPI   C4A 5082  14.828   4.416   7.873 -0.0696 -0.6417 -0.1010
  318loPI   C5A 5083  14.809   4.077   7.670  0.0462  0.2171 -0.1382
  318loPI   C6A 5084  14.880   3.674   7.591  0.4271  0.0757  0.0124
  318loPI   C1B 5085  15.310   5.317   8.810  0.0177  0.0447  0.1277
  318loPI   C2B 5086  15.230   5.270   8.369 -0.0063 -0.0441 -0.3659
  318loPI   C3B 5087  14.925   5.169   8.123 -0.0330  0.0950  0.1445
  318loPI   C4B 5088  14.820   4.963   7.756  0.0919 -0.1140 -0.1859
  319loPI    C1 5089  16.238  16.551  10.532 -0.2633  0.0374  0.0173
  319loPI    C2 5090  16.379  16.192  10.638 -0.2459 -0.0222 -0.2027
  319loPI    C3 5091  16.278  16.458  10.919 -0.1967 -0.1742 -0.0392
  319loPI   PO4 5092  16.146  16.515  10.346  0.2058 -0.1170  0.2206
  319loPI   GL1 5093  16.008  16.859   9.925 -0.2613 -0.2947 -0.1147
  319loPI   GL2 5094  16.251  16.666   9.794  0.1222 -0.3452  0.0216
  319loPI   C1A 5095  15.741  16.651   9.582 -0.2963 -0.0384 -0.2452
  319loPI   C2A 5096  15.701  16.785   9.141 -0.0136  0.1772  0.0625
  319loPI   C3A 5097  15.859  16.778   8.781 -0.1930  0.2444 -0.2187
  319loPI   C4A 5098  15.918  16.750   8.347  0.0082  0.1253 -0.0181
  319loPI   C5A 5099  16.281  16.669   8.116 -0.2112  0.3169 -0.0669
  319loPI   C6A 5100  16.444  17.009   8.077  0.0678 -0.1400  0.0088
  319loPI   C1B 5101  16.637  16.646   9.509  0.0046  0.0014 -0.2725
  319loPI   C2B 5102  16.786  16.763   9.188  0.0424 -0.2283  0.0647
  319loPI   C3B 5103  16.823  16.941   8.809 -0.4387  0.3448  0.4783
  319loPI   C4B 5104  16.812  16.749   8.398  0.1115 -0.0798  0.2337
  320loPI    C1 5105   9.374   9.563   9.606  0.0682  0.0705  0.1070
  320loPI    C2 5106   9.222   9.655   9.248 -0.1921  0.1643  0.2392
  320loPI    C3 5107   8.988   9.493   9.529  0.0514 -0.0697  0.3109
  320loPI   PO4 5108   9.597   9.402   9.528  0.0591 -0.0884 -0.0543
  320loPI   GL1 5109   9.774   9.155   9.132 -0.0313  0.2211 -0.1738
  320loPI   GL2 5110   9.559   9.419   9.016  0.1369 -0.1308  0.0660
  320loPI   C1A 5111   9.960   9.025   8.757 -0.1158 -0.1301  0.2251
  320loPI   C2A 5112   9.952   9.026   8.386  0.1188 -0.2051  0.0583
  320loPI   C3A 5113   9.913   9.129   8.020  0.3316 -0.1900  0.0946
  320loPI   C4A 5114   9.663   9.025   7.621  0.0639 -0.0612  0.2423
  320loPI   C5A 5115   9.362   8.918   7.347 -0.2393 -0.3208  0.4116
  320loPI   C6A 5116   8.904   8.870   7.343 -0.0719  0.2093 -0.2952
  320loPI   C1B 5117   9.312   9.509   8.673 -0.1351 -0.0780  0.0586
  320loPI   C2B 5118   9.155   9.609   8.303  0.0910 -0.0511 -0.0622
  320loPI   C3B 5119   9.081   9.705   7.857  0.0941  0.0113 -0.3677
  320loPI   C4B 5120   9.296   9.907   7.541  0.1075 -0.2542  0.0294
  321loPI    C1 5121  11.658   2.633  10.372 -0.0868 -0.1522  0.1726
  321loPI    C2 5122  11.820   2.350  10.604 -0.0697 -0.0931  0.2332
  321loPI    C3 5123  11.422   2.390  10.585 -0.0801 -0.2644  0.0533
  321loPI   PO4 5124  11.729   2.555  10.095 -0.0231 -0.0517 -0.0879
  321loPI   GL1 5125  11.677   2.344   9.702 -0.2070 -0.0780 -0.0380
  321loPI   GL2 5126  12.027   2.368   9.667  0.3916 -0.4630  0.1905
  321loPI   C1A 5127  11.535   2.770   9.401  0.0122  0.0921  0.1591
  321loPI   C2A 5128  11.645   2.895   9.076  0.2990  0.1809  0.1837
  321loPI   C3A 5129  11.614   2.771   8.602 -0.2689  0.0243 -0.0394
  321loPI   C4A 5130  11.507   2.850   8.172  0.0248  0.0923  0.0359
  321loPI   C5A 5131  11.556   2.679   7.787 -0.0420  0.0281 -0.2419
  321loPI   C6A 5132  11.549   2.914   7.395 -0.1054 -0.3201  0.0244
  321loPI   C1B 5133  12.012   2.589   9.336 -0.0087  0.0383 -0.1117
  321loPI   C2B 5134  12.210   2.677   9.012 -0.0461  0.0458 -0.0245
  321loPI   C3B 5135  12.151   2.742   8.672 -0.0692  0.3051 -0.3756
  321loPI   C4B 5136  11.981   2.835   8.279 -0.0734  0.3041 -0.3535
  322loPI    C1 5137  18.629  16.276  10.057  0.2256  0.1721  0.2416
  322loPI    C2 5138  18.502  15.904  10.133 -0.1103  0.2286 -0.0161
  322loPI    C3 5139  18.546  16.166  10.433 -0.0312  0.0329  0.1464
  322loPI   PO4 5140  18.931  16.232   9.988  0.1697  0.2721  0.1509
  322loPI   GL1 5141  19.063  16.165   9.543 -0.3286 -0.0144  0.2464
  322loPI   GL2 5142  19.276  15.971   9.714  0.0993  0.1128  0.2040
  322loPI   C1A 5143  18.958  15.978   9.221 -0.2385 -0.0608  0.2590
  322loPI   C2A 5144  18.952  15.997   8.786  0.0385  0.0450  0.2295
  322loPI   C3A 5145  19.083  16.273   8.446  0.0424 -0.0087 -0.0765
  322loPI   C4A 5146  19.164  16.439   8.045  0.1037 -0.3074  0.0696
  322loPI   C5A 5147  19.227  16.744   7.798  0.0546  0.0622  0.1633
  322loPI   C6A 5148  19.108  16.949   7.292 -0.2915  0.2136  0.1386
  322loPI   C1B 5149  19.249  15.634   9.501 -0.0068  0.0719 -0.2107
  322loPI   C2B 5150  19.344  15.514   9.035  0.1881  0.0682  0.2455
  322loPI   C3B 5151  19.242  15.541   8.644 -0.0329 -0.1688  0.2245
  322loPI   C4B 5152  19.164  15.704   8.230 -0.1745  0.1574 -0.0578
  323loPI    C1 5153   1.722   5.896  10.235 -0.1184 -0.4133 -0.0305
  323loPI    C2 5154   1.377   5.971  10.046 -0.0118 -0.0111 -0.0753
  323loPI    C3 5155   1.374   5.795  10.405 -0.2665  0.0276 -0.0568
  323loPI   PO4 5156   1.874   5.801   9.999 -0.1721  0.1800 -0.0431
  323loPI   GL1 5157   2.181   5.674   9.609 -0.0694  0.0180  0.2768
  323loPI   GL2 5158   2.149   5.334   9.468 -0.2040 -0.4012  0.2160
  323loPI   C1A 5159   2.121   5.785   9.088 -0.2693 -0.2351  0.1950
  323loPI   C2A 5160   2.084   5.669   8.546 -0.0371 -0.0508 -0.1122
  323loPI   C3A 5161   2.098   5.519   8.068 -0.3376  0.2409  0.0789
  323loPI   C4A 5162   2.501   5.291   7.934 -0.2034 -0.0263 -0.2636
  323loPI   C5A 5163   2.765   5.249   7.648 -0.0238 -0.2087 -0.0612
  323loPI   C6A 5164   3.125   5.265   7.533 -0.0481 -0.2466  0.3375
  323loPI   C1B 5165   2.158   5.098   9.099  0.0273 -0.0758 -0.1353
  323loPI   C2B 5166   2.116   5.155   8.631  0.0780 -0.0231  0.1071
  323loPI   C3B 5167   2.271   5.039   8.287 -0.1669 -0.1886  0.0211
  323loPI   C4B 5168   2.066   4.987   7.924 -0.2278  0.0884  0.3686
  324loPI    C1 5169  13.254  16.011   9.712 -0.2351 -0.1097  0.2629
  324loPI    C2 5170  13.652  16.033   9.737 -0.2178 -0.2284  0.1047
  324loPI    C3 5171  13.435  15.959  10.065 -0.1169 -0.0679  0.2089
  324loPI   PO4 5172  13.171  15.804   9.603 -0.0082 -0.0632  0.3541
  324loPI   GL1 5173  13.313  15.667   9.139  0.2275 -0.2980 -0.0072
  324loPI   GL2 5174  13.033  15.464   9.058 -0.0051  0.3996  0.3573
  324loPI   C1A 5175  13.336  15.572   8.658 -0.0214  0.1055  0.0958
  324loPI   C2A 5176  13.358  15.685   8.187  0.1573  0.0199  0.0256
  324loPI   C3A 5177  13.058  15.761   7.854 -0.0005  0.1943  0.0632
  324loPI   C4A 5178  12.925  15.660   7.435  0.2680 -0.1759 -0.0284
  324loPI   C5A 5179  12.412  15.895   7.290  0.2663  0.3067 -0.0679
  324loPI   C6A 5180  12.083  15.928   6.915 -0.1485  0.3300  0.1595
  324loPI   C1B 5181  12.805  15.431   8.589  0.2660 -0.1192 -0.3901
  324loPI   C2B 5182  12.922  15.456   8.194  0.0342 -0.0706  0.0669
  324loPI   C3B 5183  13.005  15.278   7.833 -0.2992  0.0784 -0.0052
  324loPI   C4B 5184  13.229  15.127   7.467  0.1481  0.2010  0.1690
  325loPI    C1 5185  11.271   3.277   9.975  0.0137 -0.2041  0.0323
  325loPI    C2 5186  11.463   3.288  10.326 -0.0698 -0.3031  0.0817
  325loPI    C3 5187  11.556   3.008  10.056  0.0165 -0.2075  0.0115
  325loPI   PO4 5188  11.341   3.501   9.830  0.3030 -0.1479  0.0132
  325loPI   GL1 5189  11.539   3.307   9.522  0.0799  0.0491 -0.0755
  325loPI   GL2 5190  11.218   3.165   9.474 -0.2425  0.0012  0.0928
  325loPI   C1A 5191  11.968   3.267   9.352 -0.0507 -0.0210  0.4568
  325loPI   C2A 5192  12.055   3.152   8.935 -0.0379  0.3272  0.0646
  325loPI   C3A 5193  12.159   3.259   8.528 -0.2054  0.2205 -0.0442
  325loPI   C4A 5194  12.424   3.424   8.257  0.0714 -0.0997 -0.2990
  325loPI   C5A 5195  12.574   3.610   7.943  0.0905 -0.3320  0.0125
  325loPI   C6A 5196  12.671   3.858   7.466  0.0628 -0.4673  0.1544
  325loPI   C1B 5197  11.064   2.766   9.277 -0.3041 -0.0419 -0.0404
  325loPI   C2B 5198  11.191   2.616   8.998 -0.1903 -0.1629  0.0287
  325loPI   C3B 5199  11.149   2.568   8.589  0.1257  0.0572  0.1040
  325loPI   C4B 5200  11.008   2.670   8.214  0.4213 -0.0489  0.5384
  326loPI    C1 5201  13.583   1.944  10.448 -0.1285  0.0139  0.2202
  326loPI    C2 5202  13.878   1.734  10.277 -0.1330  0.1725  0.0138
  326loPI    C3 5203  13.954   2.093  10.437 -0.2263  0.2455 -0.1040
  326loPI   PO4 5204  13.358   1.962  10.245 -0.3818 -0.2005  0.0039
  326loPI   GL1 5205  13.122   2.075   9.945 -0.1888 -0.3210  0.0469
  326loPI   GL2 5206  13.337   1.862   9.763  0.2726  0.1087 -0.0742
  326loPI   C1A 5207  13.156   2.425   9.597  0.0151 -0.3267 -0.1546
  326loPI   C2A 5208  13.117   2.711   9.249 -0.1661 -0.0559  0.0281
  326loPI   C3A 5209  13.072   3.027   8.927  0.2258  0.0624  0.1077
  326loPI   C4A 5210  13.094   2.975   8.538  0.1760 -0.2289 -0.1103
  326loPI   C5A 5211  13.133   3.141   8.167  0.1741 -0.1018 -0.0967
  326loPI   C6A 5212  13.001   3.391   7.900  0.0914 -0.4064 -0.0977
  326loPI   C1B 5213  13.465   1.955   9.442 -0.1025 -0.3036 -0.0392
  326loPI   C2B 5214  13.364   1.706   9.080 -0.0185  0.0620 -0.1903
  326loPI   C3B 5215  13.583   1.467   8.733 -0.1852 -0.1164 -0.5214
  326loPI   C4B 5216  13.874   1.168   8.650 -0.0711 -0.0652 -0.1684
  327loPI    C1 5217  17.264  12.471  10.305  0.0211 -0.3441  0.0283
  327loPI    C2 5218  17.514  12.530  10.612  0.2241 -0.1975 -0.1615
  327loPI    C3 5219  17.203  12.281  10.651 -0.0335  0.1818  0.3178
  327loPI   PO4 5220  17.328  12.356  10.095  0.0891  0.1182 -0.1805
  327loPI   GL1 5221  17.268  12.199   9.718 -0.0962 -0.0194 -0.2925
  327loPI   GL2 5222  17.112  11.919   9.754 -0.2883 -0.5333 -0.1092
  327loPI   C1A 5223  17.390  12.285   9.280 -0.1706  0.1564  0.0749
  327loPI   C2A 5224  17.348  12.414   8.783  0.2211 -0.2342 -0.0010
  327loPI   C3A 5225  17.281  12.425   8.312  0.0975 -0.1306  0.2026
  327loPI   C4A 5226  17.297  12.136   8.095  0.1591  0.2862 -0.0476
  327loPI   C5A 5227  17.052  11.765   7.931 -0.2165 -0.0332  0.1113
  327loPI   C6A 5228  17.165  11.231   7.968  0.2630 -0.0955 -0.0978
  327loPI   C1B 5229  16.934  12.060   9.339  0.0472 -0.0478 -0.0087
  327loPI   C2B 5230  17.013  11.963   8.856 -0.0398  0.3370 -0.2184
  327loPI   C3B 5231  16.958  12.096   8.493 -0.0730 -0.2997  0.2123
  327loPI   C4B 5232  16.845  12.225   8.122  0.1086 -0.1967 -0.0776
  328loPI    C1 5233  11.349   9.390   9.699  0.0946  0.0462  0.1424
  328loPI    C2 5234  11.723   9.515   9.631  0.0449  0.2013  0.1499
  328loPI    C3 5235  11.526   9.639   9.957  0.0638 -0.0537  0.2611
  328loPI   PO4 5236  11.390   9.146   9.509  0.0206  0.0741 -0.1954
  328loPI   GL1 5237  11.056   9.085   9.200  0.0410  0.1193  0.0490
  328loPI   GL2 5238  11.346   9.106   9.078  0.0222 -0.0519  0.1096
  328loPI   C1A 5239  10.955   8.980   8.759 -0.1006 -0.1217 -0.1522
  328loPI   C2A 5240  10.877   8.757   8.498 -0.4115  0.1418  0.0827
  328loPI   C3A 5241  10.715   8.437   8.221 -0.2124  0.3357 -0.1364
  328loPI   C4A 5242  10.760   8.171   7.927  0.1751  0.0766 -0.2921
  328loPI   C5A 5243  10.830   8.158   7.532 -0.1537 -0.1949 -0.0109
  328loPI   C6A 5244  10.755   8.265   7.183 -0.2426 -0.2345 -0.0096
  328loPI   C1B 5245  11.755   9.038   8.842  0.1812  0.3676 -0.1620
  328loPI   C2B 5246  12.010   9.022   8.693  0.2659  0.0855 -0.3509
  328loPI   C3B 5247  12.180   8.829   8.342 -0.0281  0.0424  0.2147
  328loPI   C4B 5248  12.132   9.015   7.863  0.0025 -0.2957 -0.1368
  329loPI    C1 5249  14.233  12.383  10.121  0.1898 -0.1667  0.0563
  329loPI    C2 5250  14.499  12.553  10.367  0.1644 -0.2059  0.1109
  329loPI    C3 5251  14.171  12.379  10.516  0.0847 -0.1173  0.0405
  329loPI   PO4 5252  14.422  12.539   9.811 -0.2301  0.0528 -0.1277
  329loPI   GL1 5253  14.625  12.431   9.523 -0.1178 -0.1594  0.1767
  329loPI   GL2 5254  14.828  12.253   9.525 -0.0895 -0.0026 -0.0789
  329loPI   C1A 5255  14.594  12.409   9.047 -0.5517  0.2403  0.2893
  329loPI   C2A 5256  14.626  12.515   8.652 -0.1826  0.2788  0.1014
  329loPI   C3A 5257  14.745  12.511   8.182  0.0670  0.0319 -0.0528
  329loPI   C4A 5258  14.814  12.201   7.861  0.4292 -0.1842 -0.0951
  329loPI   C5A 5259  14.923  11.799   7.699  0.2441 -0.0720 -0.2487
  329loPI   C6A 5260  15.146  11.792   7.348  0.1716 -0.0829 -0.2355
  329loPI   C1B 5261  15.092  12.370   9.215 -0.1104 -0.1762  0.2223
  329loPI   C2B 5262  15.137  12.299   8.642  0.5495  0.0958  0.0832
  329loPI   C3B 5263  15.234  12.438   8.215  0.0005 -0.0509 -0.3284
  329loPI   C4B 5264  15.135  12.729   7.918  0.1881  0.4322  0.0708
  330loPI    C1 5265  15.321  16.258  10.190  0.0913  0.0833  0.0692
  330loPI    C2 5266  15.031  16.035  10.353 -0.0079  0.1950  0.0470
  330loPI    C3 5267  15.315  16.194  10.585  0.0875  0.0117  0.0577
  330loPI   PO4 5268  15.422  16.217   9.983  0.1860  0.1087  0.3504
  330loPI   GL1 5269  15.244  16.142   9.602 -0.1084 -0.1326 -0.2307
  330loPI   GL2 5270  15.606  16.181   9.486 -0.0248  0.1983 -0.1956
  330loPI   C1A 5271  15.178  15.890   9.292  0.3287  0.2535 -0.0523
  330loPI   C2A 5272  15.276  15.776   9.034  0.3336 -0.3301  0.3140
  330loPI   C3A 5273  15.291  15.445   8.746 -0.2049 -0.0079 -0.2903
  330loPI   C4A 5274  15.512  15.448   8.364  0.0887  0.0698 -0.2360
  330loPI   C5A 5275  15.405  15.787   8.120 -0.0392  0.1702 -0.3054
  330loPI   C6A 5276  15.137  16.070   7.908 -0.1092 -0.0218 -0.1776
  330loPI   C1B 5277  15.572  16.306   9.121 -0.0974  0.0913 -0.0075
  330loPI   C2B 5278  15.840  16.253   8.726 -0.0613  0.2993  0.0566
  330loPI   C3B 5279  16.070  16.269   8.335 -0.3472  0.2076  0.2746
  330loPI   C4B 5280  16.179  16.113   7.954  0.0263  0.3384 -0.1332
  331loPI    C1 5281  11.667   4.735   9.711 -0.3173  0.5001 -0.1165
  331loPI    C2 5282  11.505   4.488   9.981  0.3585 -0.1803 -0.2969
  331loPI    C3 5283  11.651   4.842  10.096 -0.3756  0.0412  0.0151
  331loPI   PO4 5284  11.711   4.496   9.549 -0.0708 -0.1752 -0.0088
  331loPI   GL1 5285  11.486   4.298   9.235  0.0094 -0.2908 -0.1805
  331loPI   GL2 5286  11.633   4.116   9.212  0.0995 -0.1237 -0.2133
  331loPI   C1A 5287  11.394   4.332   8.805  0.0579 -0.0642  0.0168
  331loPI   C2A 5288  11.366   4.267   8.417 -0.1590  0.3723  0.3210
  331loPI   C3A 5289  11.418   4.320   7.958 -0.0637  0.1551 -0.0507
  331loPI   C4A 5290  11.266   4.353   7.548 -0.2879 -0.3134 -0.0161
  331loPI   C5A 5291  10.865   4.294   7.176 -0.1735 -0.0203 -0.5740
  331loPI   C6A 5292  10.682   4.022   6.870 -0.2252  0.0911  0.0509
  331loPI   C1B 5293  11.732   3.909   8.742  0.1846 -0.2467  0.0615
  331loPI   C2B 5294  11.928   3.756   8.480 -0.1210 -0.0844  0.0955
  331loPI   C3B 5295  12.079   3.659   7.967  0.3612  0.2077 -0.0762
  331loPI   C4B 5296  12.203   3.665   7.510  0.0686 -0.0806  0.2226
  332loPI    C1 5297  10.547   4.152  10.095 -0.0172 -0.1233 -0.0752
  332loPI    C2 5298  10.541   4.428  10.385 -0.0285 -0.0501 -0.1449
  332loPI    C3 5299  10.802   4.125  10.402 -0.0277 -0.0448 -0.0595
  332loPI   PO4 5300  10.294   4.258   9.950 -0.1699  0.1149 -0.1980
  332loPI   GL1 5301  10.045   4.005   9.602 -0.0130 -0.0350  0.3863
  332loPI   GL2 5302   9.938   4.276   9.523 -0.0928  0.1925  0.3259
  332loPI   C1A 5303  10.250   3.845   9.226  0.1274 -0.0256  0.1943
  332loPI   C2A 5304  10.168   3.742   8.730 -0.2628 -0.0647 -0.1714
  332loPI   C3A 5305  10.193   3.769   8.268 -0.2684 -0.2382  0.0214
  332loPI   C4A 5306  10.470   3.794   7.842 -0.2146  0.0395 -0.1346
  332loPI   C5A 5307  10.696   3.901   7.509  0.1703 -0.0128 -0.1079
  332loPI   C6A 5308  11.105   3.922   7.327  0.3733  0.1253 -0.0358
  332loPI   C1B 5309   9.782   4.065   9.047  0.0419  0.1692 -0.0344
  332loPI   C2B 5310   9.727   3.951   8.676 -0.1089 -0.2078  0.0679
  332loPI   C3B 5311   9.464   3.874   8.297  0.0309 -0.1922 -0.3296
  332loPI   C4B 5312   9.270   3.482   8.057 -0.3268  0.1725  0.2134
  333loPI    C1 5313   6.861   2.841  10.815  0.1373  0.0875  0.0174
  333loPI    C2 5314   6.761   2.584  11.105 -0.0977 -0.0176 -0.1541
  333loPI    C3 5315   6.799   2.973  11.188 -0.2196 -0.0390  0.0067
  333loPI   PO4 5316   7.030   2.741  10.650 -0.1113 -0.1603  0.1307
  333loPI   GL1 5317   6.919   2.698  10.077  0.1879  0.1878  0.0143
  333loPI   GL2 5318   6.657   2.864  10.263 -0.1281 -0.3753 -0.2543
  333loPI   C1A 5319   7.104   2.565   9.663  0.0169 -0.1834  0.0468
  333loPI   C2A 5320   7.076   2.647   9.226  0.1202  0.0916  0.0128
  333loPI   C3A 5321   6.957   2.556   8.796  0.1482  0.0779  0.0243
  333loPI   C4A 5322   6.868   2.673   8.373  0.2052 -0.0034 -0.2540
  333loPI   C5A 5323   6.935   2.559   7.871 -0.0851  0.2238 -0.2797
  333loPI   C6A 5324   6.951   2.076   7.845 -0.0993  0.1508 -0.0058
  333loPI   C1B 5325   6.708   3.178   9.971 -0.3345  0.3217 -0.0785
  333loPI   C2B 5326   6.720   3.195   9.547 -0.0219 -0.1471 -0.2045
  333loPI   C3B 5327   6.704   2.905   9.188 -0.0945 -0.1795 -0.0598
  333loPI   C4B 5328   6.713   2.991   8.716 -0.0346 -0.0671 -0.2903
  334loPI    C1 5329   2.322  10.198  10.019 -0.0630 -0.1358 -0.1586
  334loPI    C2 5330   2.062  10.497   9.964 -0.0303 -0.0989 -0.1134
  334loPI    C3 5331   1.995  10.223  10.248  0.0065 -0.0600 -0.0669
  334loPI   PO4 5332   2.553  10.064   9.850  0.1265 -0.0391  0.1902
  334loPI   GL1 5333   2.943  10.111   9.760  0.2406  0.1137 -0.0733
  334loPI   GL2 5334   3.096  10.365   9.588  0.1564 -0.0715 -0.1677
  334loPI   C1A 5335   3.192   9.777   9.524 -0.2558  0.2713  0.0225
  334loPI   C2A 5336   3.248   9.801   9.025  0.0235  0.1656  0.0170
  334loPI   C3A 5337   3.295   9.896   8.670  0.5055 -0.0316  0.0394
  334loPI   C4A 5338   3.471   9.603   8.296  0.0396 -0.1906 -0.0222
  334loPI   C5A 5339   3.926   9.409   8.302 -0.1652  0.1098 -0.0654
  334loPI   C6A 5340   4.135   9.220   8.619 -0.3477 -0.2662  0.3537
  334loPI   C1B 5341   2.847  10.201   9.139 -0.0451  0.1451  0.0992
  334loPI   C2B 5342   2.814  10.185   8.804 -0.0216  0.2648  0.1939
  334loPI   C3B 5343   2.717  10.128   8.330 -0.1181 -0.2236  0.1725
  334loPI   C4B 5344   2.785   9.988   7.871 -0.2113  0.0251  0.2554
  335loPI    C1 5345  12.572  13.517   9.953  0.0158  0.1157  0.3327
  335loPI    C2 5346  12.323  13.807   9.835  0.0230  0.0073  0.0443
  335loPI    C3 5347  12.207  13.546  10.114 -0.1827 -0.0321 -0.0758
  335loPI   PO4 5348  12.638  13.341   9.689  0.0725 -0.0188  0.0170
  335loPI   GL1 5349  12.752  13.177   9.293 -0.1217 -0.0107 -0.1590
  335loPI   GL2 5350  12.500  13.380   9.172 -0.3270  0.2740 -0.4288
  335loPI   C1A 5351  12.909  13.002   8.911  0.0099 -0.1799  0.1471
  335loPI   C2A 5352  13.082  12.901   8.475  0.0086  0.2548  0.3275
  335loPI   C3A 5353  13.341  12.802   8.210  0.0993  0.7708  0.0455
  335loPI   C4A 5354  13.786  12.510   8.115  0.3902  0.0183 -0.0196
  335loPI   C5A 5355  14.123  12.398   7.810  0.1254 -0.0810 -0.1249
  335loPI   C6A 5356  14.042  12.171   7.364 -0.0670  0.0129 -0.0572
  335loPI   C1B 5357  12.817  13.442   8.752 -0.0430  0.0382 -0.2707
  335loPI   C2B 5358  12.799  13.579   8.420  0.0904 -0.0149  0.2420
  335loPI   C3B 5359  12.833  13.719   7.961 -0.2493 -0.1663  0.2392
  335loPI   C4B 5360  12.494  13.942   7.630 -0.0921 -0.1408  0.1065
  336loPI    C1 5361  17.490  16.963  10.566 -0.2754  0.2849 -0.0318
  336loPI    C2 5362  17.608  16.965  10.948 -0.0097  0.1706 -0.1108
  336loPI    C3 5363  17.643  16.632  10.730 -0.2095  0.2202 -0.2213
  336loPI   PO4 5364  17.497  17.188  10.404  0.1592 -0.0579 -0.2036
  336loPI   GL1 5365  17.511  17.090   9.970  0.0966  0.0854  0.0717
  336loPI   GL2 5366  17.155  16.999   9.963  0.0680  0.2758  0.1080
  336loPI   C1A 5367  17.683  16.868   9.690  0.0450  0.1966 -0.2678
  336loPI   C2A 5368  17.723  16.651   9.260  0.0170  0.0323  0.2610
  336loPI   C3A 5369  17.737  16.677   8.793 -0.0281 -0.2342 -0.2931
  336loPI   C4A 5370  17.851  16.537   8.295 -0.5556 -0.2261  0.0272
  336loPI   C5A 5371  17.750  16.193   8.056 -0.0976  0.1918  0.1506
  336loPI   C6A 5372  17.952  15.856   7.688  0.2880  0.2770  0.2600
  336loPI   C1B 5373  17.255  16.684   9.752  0.0431 -0.3735  0.1074
  336loPI   C2B 5374  17.167  16.434   9.334 -0.0509  0.1840 -0.0322
  336loPI   C3B 5375  16.994  16.398   8.878 -0.0001 -0.2606  0.0907
  336loPI   C4B 5376  17.061  16.318   8.526  0.1357  0.1121 -0.2555
  337loPI    C1 5377  13.796   3.202  10.291 -0.0080 -0.0784  0.1087
  337loPI    C2 5378  13.703   3.579  10.385  0.2166 -0.0459  0.2073
  337loPI    C3 5379  13.822   3.325  10.671 -0.0899 -0.2393  0.1673
  337loPI   PO4 5380  13.617   3.126  10.204  0.4165 -0.3369 -0.0473
  337loPI   GL1 5381  13.608   2.845   9.863 -0.0582  0.1740 -0.2442
  337loPI   GL2 5382  13.882   3.022   9.749  0.1164  0.3982 -0.0253
  337loPI   C1A 5383  13.587   2.595   9.443 -0.2764  0.1632 -0.0872
  337loPI   C2A 5384  13.510   2.387   9.149 -0.0903  0.1645  0.1585
  337loPI   C3A 5385  13.308   2.525   8.812 -0.3763 -0.0137  0.1143
  337loPI   C4A 5386  13.169   2.457   8.398  0.2057 -0.1682 -0.0005
  337loPI   C5A 5387  12.869   2.587   8.116  0.2920  0.1232 -0.2774
  337loPI   C6A 5388  12.672   2.503   7.823 -0.0179  0.0362 -0.1935
  337loPI   C1B 5389  13.846   3.195   9.269  0.0890 -0.2774 -0.1382
  337loPI   C2B 5390  13.844   3.392   8.875  0.1847  0.0859  0.3420
  337loPI   C3B 5391  13.843   3.267   8.454 -0.0672 -0.4731  0.1327
  337loPI   C4B 5392  13.646   3.309   8.042 -0.1239  0.1185  0.3688
  338loPI    C1 5393  15.264  10.710  10.273  0.0823  0.0578  0.2286
  338loPI    C2 5394  14.901  10.797  10.418 -0.1476 -0.2475 -0.1435
  338loPI    C3 5395  15.103  10.484  10.561  0.0078 -0.0328  0.1169
  338loPI   PO4 5396  15.226  10.745   9.988 -0.2238  0.2654  0.0581
  338loPI   GL1 5397  15.294  10.961   9.734 -0.1246  0.1762  0.0420
  338loPI   GL2 5398  15.670  11.018   9.593 -0.3454  0.3413 -0.0150
  338loPI   C1A 5399  15.113  10.895   9.295  0.2939  0.2295  0.1359
  338loPI   C2A 5400  15.071  10.642   8.835  0.2514 -0.0161 -0.0437
  338loPI   C3A 5401  15.118  10.709   8.437 -0.4338 -0.1977 -0.0589
  338loPI   C4A 5402  14.829  10.720   8.056 -0.0742 -0.1265  0.1525
  338loPI   C5A 5403  14.567  10.655   7.725  0.1397 -0.0366 -0.2202
  338loPI   C6A 5404  14.296  10.935   7.535  0.4065 -0.0810 -0.1249
  338loPI   C1B 5405  15.556  11.160   9.172  0.0587  0.0368 -0.0509
  338loPI   C2B 5406  15.384  11.117   8.842  0.1245 -0.0326  0.0091
  338loPI   C3B 5407  15.156  11.247   8.515 -0.2521 -0.0057 -0.1137
  338loPI   C4B 5408  14.978  11.508   8.099 -0.0599  0.0923  0.0977
  339POPI    C1 5409   2.363  15.814  10.253  0.1103 -0.0607  0.0672
  339POPI    C2 5410   2.197  15.465  10.356  0.1136 -0.0605  0.0733
  339POPI    C3 5411   2.265  15.745  10.634  0.0033 -0.0094  0.0493
  339POPI   PO4 5412   2.106  15.904  10.046 -0.1593  0.2532  0.0436
  339POPI   GL1 5413   1.997  15.875   9.583  0.1350  0.1503  0.1314
  339POPI   GL2 5414   1.855  16.188   9.575  0.1531 -0.1303  0.1945
  339POPI   C1A 5415   1.993  15.927   9.122 -0.2034 -0.0270 -0.1190
  339POPI   D2A 5416   2.066  15.928   8.669 -0.2023  0.0513 -0.0451
  339POPI   C3A 5417   1.834  15.749   8.330 -0.1928 -0.2773 -0.0733
  339POPI   C4A 5418   1.972  15.586   8.099 -0.1777 -0.0587  0.5040
  339POPI   C1B 5419   1.728  16.330   9.257 -0.0899  0.2118  0.0464
  339POPI   C2B 5420   1.749  16.364   8.812 -0.2724  0.1902 -0.3127
  339POPI   C3B 5421   1.874  16.342   8.401  0.2600  0.3530  0.0705
  339POPI   C4B 5422   2.271  16.068   8.237  0.1057  0.0023  0.0325
  340POPI    C1 5423  17.095   5.927   9.953  0.1140  0.0496 -0.1343
  340POPI    C2 5424  17.309   6.148  10.208 -0.0341 -0.0569  0.0845
  340POPI    C3 5425  17.253   5.758  10.279  0.0619 -0.1248 -0.1983
  340POPI   PO4 5426  16.860   6.076   9.948  0.2104  0.0510 -0.0449
  340POPI   GL1 5427  16.665   6.261   9.590  0.2165  0.0701 -0.1628
  340POPI   GL2 5428  16.930   6.432   9.528 -0.3018 -0.1596 -0.0346
  340POPI   C1A 5429  16.490   6.767   9.637 -0.0820 -0.0849  0.3230
  340POPI   D2A 5430  16.577   7.265   9.539  0.0860 -0.2398 -0.0218
  340POPI   C3A 5431  16.498   7.460   9.231 -0.1231  0.1582  0.2255
  340POPI   C4A 5432  16.525   7.433   8.840 -0.0905  0.0542 -0.1586
  340POPI   C1B 5433  16.764   6.377   9.115 -0.1980 -0.2123  0.1163
  340POPI   C2B 5434  16.711   6.032   8.766 -0.0717  0.1547 -0.2284
  340POPI   C3B 5435  16.529   5.911   8.444  0.2253 -0.1680 -0.1326
  340POPI   C4B 5436  16.229   6.097   8.196 -0.2685 -0.3296 -0.0361
  341POPI    C1 5437  11.584  11.808   9.744 -0.0824 -0.0935  0.0133
  341POPI    C2 5438  11.263  11.598   9.631  0.0715 -0.2557 -0.1314
  341POPI    C3 5439  11.402  11.567  10.005 -0.2510  0.0386  0.0190
  341POPI   PO4 5440  11.614  11.984   9.494 -0.1606 -0.0729 -0.0597
  341POPI   GL1 5441  11.784  12.011   9.163  0.2156 -0.0390  0.1089
  341POPI   GL2 5442  11.582  11.990   8.886  0.3572 -0.3294 -0.0731
  341POPI   C1A 5443  11.969  11.763   8.849 -0.2582  0.3010  0.1026
  341POPI   D2A 5444  12.173  11.465   8.583  0.2054 -0.1346 -0.0502
  341POPI   C3A 5445  12.271  11.511   8.152  0.1672 -0.2023 -0.2382
  341POPI   C4A 5446  12.469  11.704   7.679 -0.0752  0.0906 -0.1054
  341POPI   C1B 5447  11.443  12.008   8.450 -0.1234 -0.1452  0.3124
  341POPI   C2B 5448  11.512  11.922   7.939  0.2179 -0.1187 -0.0158
  341POPI   C3B 5449  11.332  11.741   7.694  0.1277  0.0410  0.0839
  341POPI   C4B 5450  11.133  11.487   7.315  0.1947 -0.1600 -0.0856
  342POPI    C1 5451   2.304   0.257  10.928  0.0068 -0.1860  0.0018
  342POPI    C2 5452   1.933   0.223  11.073 -0.0187  0.3636  0.0854
  342POPI    C3 5453   2.214   0.415  11.284  0.2873  0.0513 -0.0284
  342POPI   PO4 5454   2.350   0.354  10.706  0.1724  0.1539 -0.3946
  342POPI   GL1 5455   2.572   0.357  10.257  0.0915  0.1675 -0.0984
  342POPI   GL2 5456   2.321   0.584  10.150 -0.4053  0.0748  0.0560
  342POPI   C1A 5457   2.555   0.009   9.961  0.3313 -0.1071  0.1377
  342POPI   D2A 5458   2.383  -0.169   9.470  0.2969 -0.1348 -0.0508
  342POPI   C3A 5459   2.349   0.124   9.165  0.0237 -0.0261 -0.3978
  342POPI   C4A 5460   2.311   0.316   8.764  0.0624  0.1464  0.0682
  342POPI   C1B 5461   2.445   0.725   9.703  0.1562 -0.0395 -0.0624
  342POPI   C2B 5462   2.485   0.670   9.211 -0.1272  0.0700  0.5387
  342POPI   C3B 5463   2.316   0.927   8.762 -0.1212  0.1530 -0.2607
  342POPI   C4B 5464   2.246   1.148   8.460  0.1559 -0.0586 -0.2394
  343POPI    C1 5465   6.452   4.080  10.534 -0.0109 -0.1665  0.1478
  343POPI    C2 5466   6.300   4.054  10.903 -0.1465 -0.0349  0.1022
  343POPI    C3 5467   6.351   4.412  10.732  0.2198 -0.0759  0.1169
  343POPI   PO4 5468   6.583   3.804  10.516  0.0294 -0.2571 -0.2390
  343POPI   GL1 5469   6.405   3.467  10.154  0.1321 -0.2887 -0.1966
  343POPI   GL2 5470   6.195   3.111  10.027 -0.1264 -0.3926  0.1167
  343POPI   C1A 5471   6.402   3.591   9.744 -0.1129 -0.1328 -0.0189
  343POPI   D2A 5472   6.425   3.758   9.228  0.0247  0.0685 -0.4592
  343POPI   C3A 5473   6.239   3.745   8.899  0.4490  0.2621  0.0612
  343POPI   C4A 5474   6.273   3.604   8.476  0.0653 -0.2981  0.1361
  343POPI   C1B 5475   6.236   3.169   9.492  0.0936 -0.2038 -0.0428
  343POPI   C2B 5476   6.305   3.242   9.072  0.0504 -0.0898  0.0259
  343POPI   C3B 5477   6.247   3.111   8.602 -0.0772  0.3509  0.1117
  343POPI   C4B 5478   5.948   2.792   8.285 -0.0338  0.0337  0.3365
  344POPI    C1 5479   5.039   0.940  11.036  0.2896 -0.0375  0.0993
  344POPI    C2 5480   5.211   1.085  11.367  0.3557  0.1178 -0.0022
  344POPI    C3 5481   5.438   0.952  11.066  0.2960  0.0519 -0.0183
  344POPI   PO4 5482   4.967   1.114  10.933  0.1855 -0.1597 -0.3221
  344POPI   GL1 5483   4.959   1.005  10.397  0.1020 -0.0866  0.0250
  344POPI   GL2 5484   4.672   0.750  10.303 -0.1633 -0.0215  0.1634
  344POPI   C1A 5485   5.164   0.803  10.119  0.0672 -0.0864 -0.1457
  344POPI   D2A 5486   5.295   0.693   9.658  0.1549  0.3368 -0.1007
  344POPI   C3A 5487   5.007   0.562   9.370  0.0939 -0.1427  0.3649
  344POPI   C4A 5488   4.931   0.606   8.928 -0.0331 -0.2553  0.3030
  344POPI   C1B 5489   4.783   0.627   9.882 -0.1558  0.0412 -0.1044
  344POPI   C2B 5490   4.542   0.610   9.438 -0.2470 -0.1814 -0.0660
  344POPI   C3B 5491   4.343   0.499   9.192  0.1201  0.0749 -0.1267
  344POPI   C4B 5492   4.407   0.467   8.768  0.0085  0.1159  0.2307
  345POPI    C1 5493  17.974   6.689   9.942 -0.0372  0.1057 -0.1540
  345POPI    C2 5494  17.916   6.748  10.333  0.2412 -0.0966 -0.0794
  345POPI    C3 5495  17.642   6.551  10.118  0.0519  0.0809 -0.0042
  345POPI   PO4 5496  18.245   6.825   9.946 -0.1581  0.1410  0.0718
  345POPI   GL1 5497  18.214   7.078   9.664  0.0725  0.2918  0.4441
  345POPI   GL2 5498  18.464   6.986   9.373 -0.1671 -0.2972 -0.0094
  345POPI   C1A 5499  18.255   7.448   9.349 -0.0568  0.0932 -0.0949
  345POPI   D2A 5500  18.283   7.814   9.417  0.3190  0.0592  0.0285
  345POPI   C3A 5501  18.051   7.871   9.114 -0.0874  0.2438  0.3581
  345POPI   C4A 5502  18.058   7.726   8.733 -0.0144 -0.3772 -0.2454
  345POPI   C1B 5503  18.503   7.142   9.068 -0.0380  0.2332  0.0638
  345POPI   C2B 5504  18.483   7.400   8.721 -0.2492 -0.1346  0.0587
  345POPI   C3B 5505  18.604   7.598   8.296  0.2496  0.0466 -0.1067
  345POPI   C4B 5506  18.745   7.584   7.855 -0.0997  0.5371  0.0432
  346POPI    C1 5507  15.372   2.141  10.293 -0.1240  0.2095 -0.1021
  346POPI    C2 5508  15.026   2.075  10.483 -0.0470  0.0181 -0.0258
  346POPI    C3 5509  15.317   2.282  10.663 -0.0791  0.0816 -0.0464
  346POPI   PO4 5510  15.318   2.247   9.982 -0.1537  0.0429 -0.2395
  346POPI   GL1 5511  15.566   2.393   9.662  0.0136 -0.3327 -0.0510
  346POPI   GL2 5512  15.775   2.679   9.634  0.0902 -0.1946  0.3616
  346POPI   C1A 5513  15.747   2.285   9.314 -0.0004 -0.0149  0.1758
  346POPI   D2A 5514  15.801   2.473   8.812  0.0290 -0.3663 -0.0996
  346POPI   C3A 5515  15.513   2.460   8.423  0.1018  0.1316 -0.4335
  346POPI   C4A 5516  15.552   2.306   8.045  0.0750 -0.1255 -0.1242
  346POPI   C1B 5517  15.496   2.769   9.320  0.0157  0.2176 -0.0530
  346POPI   C2B 5518  15.021   2.830   9.048  0.0786  0.0975  0.3140
  346POPI   C3B 5519  14.873   2.782   8.683 -0.2044  0.0220  0.0885
  346POPI   C4B 5520  15.041   2.406   8.447 -0.2705 -0.1216  0.2394
  347POPI    C1 5521  11.331   1.100  10.414  0.0303 -0.1913  0.1608
  347POPI    C2 5522  11.118   0.794  10.558  0.0295 -0.2425  0.0520
  347POPI    C3 5523  11.472   0.885  10.720  0.0430 -0.3193  0.0656
  347POPI   PO4 5524  11.063   1.169  10.248 -0.1090 -0.1071 -0.5041
  347POPI   GL1 5525  11.042   1.170   9.816 -0.0032 -0.0671 -0.3450
  347POPI   GL2 5526  10.792   0.867   9.674 -0.3875 -0.2985 -0.1129
  347POPI   C1A 5527  11.121   1.479   9.437  0.2492 -0.0032  0.0793
  347POPI   D2A 5528  10.862   1.825   9.256  0.0325  0.1255  0.2621
  347POPI   C3A 5529  11.068   2.163   9.087 -0.2668 -0.3942  0.4273
  347POPI   C4A 5530  11.370   2.215   8.813 -0.0878 -0.1648 -0.0909
  347POPI   C1B 5531  10.888   0.984   9.238 -0.4456 -0.2515 -0.1241
  347POPI   C2B 5532  10.851   1.342   8.942 -0.0523 -0.1793 -0.2623
  347POPI   C3B 5533  10.855   1.826   8.697  0.3057  0.0153  0.0843
  347POPI   C4B 5534  10.989   2.144   8.508  0.2005  0.1914 -0.1291
  348POPI    C1 5535  11.305   8.714   9.773  0.2067  0.3373  0.0776
  348POPI    C2 5536  11.687   8.789   9.864  0.2908 -0.0667  0.0772
  348POPI    C3 5537  11.395   8.997  10.040  0.4987  0.0271  0.3173
  348POPI   PO4 5538  11.335   8.574   9.520  0.1567 -0.1958 -0.2421
  348POPI   GL1 5539  11.309   8.377   9.196 -0.1230  0.2683 -0.2005
  348POPI   GL2 5540  11.230   8.659   9.017  0.1452  0.0458 -0.0286
  348POPI   C1A 5541  11.677   8.442   8.882  0.0244  0.1209  0.2289
  348POPI   D2A 5542  11.853   8.454   8.488 -0.1690  0.0948 -0.0577
  348POPI   C3A 5543  11.661   8.344   8.115 -0.0973 -0.0011 -0.0625
  348POPI   C4A 5544  11.805   8.356   7.704  0.4591  0.1875  0.1114
  348POPI   C1B 5545  11.455   8.737   8.555 -0.1691 -0.1399 -0.0361
  348POPI   C2B 5546  11.265   8.989   8.225  0.0566 -0.0285  0.1056
  348POPI   C3B 5547  11.027   8.710   7.915  0.1773 -0.1479 -0.2916
  348POPI   C4B 5548  11.416   8.664   7.725  0.0736  0.0544  0.0211
  349POPI    C1 5549  14.981  15.277  10.185  0.3795  0.0882  0.1224
  349POPI    C2 5550  15.138  15.514  10.466 -0.1962  0.0101  0.5287
  349POPI    C3 5551  15.099  15.121  10.534  0.0163 -0.0765  0.1770
  349POPI   PO4 5552  14.801  15.439  10.052  0.3231 -0.1472 -0.2365
  349POPI   GL1 5553  14.744  15.822   9.807  0.0520 -0.2008  0.1044
  349POPI   GL2 5554  14.509  15.662   9.587 -0.2236  0.0874 -0.0698
  349POPI   C1A 5555  14.931  15.501   9.438  0.2191 -0.3950  0.1738
  349POPI   D2A 5556  15.271  15.270   9.274 -0.0522  0.0434  0.0661
  349POPI   C3A 5557  15.705  15.303   9.226  0.0544  0.0570  0.1849
  349POPI   C4A 5558  15.837  15.083   8.794  0.1704 -0.2523 -0.2119
  349POPI   C1B 5559  14.595  16.055   9.404 -0.0007  0.1818 -0.2374
  349POPI   C2B 5560  14.800  16.192   9.042  0.0429 -0.0736  0.1014
  349POPI   C3B 5561  15.049  16.155   8.769 -0.0251 -0.0090 -0.1145
  349POPI   C4B 5562  15.413  15.967   8.610  0.0033 -0.1212 -0.0720
  350POPI    C1 5563  12.275   6.240   9.641  0.2187  0.2520 -0.0163
  350POPI    C2 5564  12.023   6.501   9.810  0.0903  0.0657  0.0846
  350POPI    C3 5565  11.926   6.114   9.791  0.2014  0.0499 -0.2212
  350POPI   PO4 5566  12.269   6.229   9.278  0.0905 -0.0626  0.3442
  350POPI   GL1 5567  12.441   6.500   9.028  0.3936  0.0735  0.0272
  350POPI   GL2 5568  12.745   6.351   8.950  0.1039 -0.2242  0.3803
  350POPI   C1A 5569  12.313   6.435   8.624  0.1446 -0.0347  0.0571
  350POPI   D2A 5570  12.336   6.550   8.145 -0.1049  0.1382  0.1393
  350POPI   C3A 5571  12.055   6.482   7.828 -0.1419  0.3347  0.2257
  350POPI   C4A 5572  11.847   6.240   7.515 -0.0089  0.0160  0.1168
  350POPI   C1B 5573  12.759   6.436   8.440 -0.0592  0.0459  0.4456
  350POPI   C2B 5574  12.801   6.680   8.037  0.0624  0.0335  0.2199
  350POPI   C3B 5575  12.617   6.890   7.643  0.1086 -0.2047  0.1474
  350POPI   C4B 5576  12.855   7.173   7.395  0.0801  0.0272  0.2303
  351POPI    C1 5577   2.790  17.881  10.641  0.1384 -0.1393  0.1703
  351POPI    C2 5578   2.506  17.738  10.883  0.3015  0.1091  0.5187
  351POPI    C3 5579   2.524  18.130  10.806  0.2243  0.0287  0.0580
  351POPI   PO4 5580   2.761  17.712  10.405  0.1321  0.1112 -0.2031
  351POPI   GL1 5581   2.611  17.848   9.953  0.1089  0.2513  0.1394
  351POPI   GL2 5582   2.941  17.962   9.879 -0.1072  0.2467  0.0409
  351POPI   C1A 5583   2.415  18.075   9.599  0.1469 -0.0818  0.3742
  351POPI   D2A 5584   2.380  18.126   9.262  0.3581 -0.1465  0.1852
  351POPI   C3A 5585   2.498  18.395   8.966 -0.4913 -0.0048 -0.0022
  351POPI   C4A 5586   2.508  18.452   8.473  0.3371  0.1670 -0.0057
  351POPI   C1B 5587   2.815  18.306   9.728  0.0457 -0.1300  0.0174
  351POPI   C2B 5588   2.868  18.597   9.365  0.2923 -0.3266 -0.0434
  351POPI   C3B 5589   2.769  18.756   8.868 -0.1675  0.3092 -0.0276
  351POPI   C4B 5590   2.876  18.826   8.511 -0.0497  0.2949  0.3083
  352POPI    C1 5591  10.026  18.455   9.980  0.1335  0.0374  0.1071
  352POPI    C2 5592  10.142  18.479  10.362  0.1254  0.2579  0.0970
  352POPI    C3 5593  10.104  18.812  10.144  0.1046  0.1348 -0.0891
  352POPI   PO4 5594   9.761  18.346   9.872  0.0366 -0.1885 -0.3159
  352POPI   GL1 5595   9.505  18.162   9.547 -0.4134  0.2373  0.2972
  352POPI   GL2 5596   9.858  18.038   9.497 -0.1333  0.1673  0.0322
  352POPI   C1A 5597   9.613  18.418   9.161 -0.0858 -0.1083  0.4390
  352POPI   D2A 5598   9.812  18.600   8.799 -0.0227 -0.0409 -0.0510
  352POPI   C3A 5599   9.562  18.382   8.436 -0.2410  0.3077  0.3105
  352POPI   C4A 5600   9.407  18.279   7.963 -0.0977  0.4843  0.2068
  352POPI   C1B 5601   9.994  18.079   9.090 -0.0119  0.2091  0.0649
  352POPI   C2B 5602   9.975  18.118   8.628 -0.1636  0.1899  0.1322
  352POPI   C3B 5603  10.245  18.255   8.300 -0.2156 -0.1041 -0.2296
  352POPI   C4B 5604  10.472  18.091   7.869 -0.1363  0.1737  0.0660
  353POPI    C1 5605   4.093   8.223  10.319  0.0678  0.1421  0.1432
  353POPI    C2 5606   3.835   8.392  10.574  0.0345  0.0594  0.1646
  353POPI    C3 5607   4.033   8.061  10.680  0.0711  0.0633  0.1086
  353POPI   PO4 5608   3.907   8.150  10.082 -0.0805  0.0780  0.1296
  353POPI   GL1 5609   4.022   8.356   9.804 -0.0815 -0.0107 -0.0142
  353POPI   GL2 5610   3.742   8.235   9.634  0.1157  0.0075  0.1875
  353POPI   C1A 5611   4.136   8.244   9.316 -0.1884  0.0635  0.0375
  353POPI   D2A 5612   3.919   8.078   8.986 -0.3326  0.0965 -0.0031
  353POPI   C3A 5613   3.825   8.260   8.569 -0.2066 -0.0584  0.4835
  353POPI   C4A 5614   3.442   8.425   8.300 -0.0620  0.0016 -0.4002
  353POPI   C1B 5615   3.537   8.280   9.289  0.0746  0.0214  0.2688
  353POPI   C2B 5616   3.297   8.086   8.988  0.0050 -0.0995 -0.3388
  353POPI   C3B 5617   3.398   7.998   8.553  0.0527  0.0477  0.0889
  353POPI   C4B 5618   3.336   7.874   8.114  0.1680 -0.2112  0.1895
  354POPI    C1 5619  18.325  17.969  10.283  0.0746 -0.0690  0.1620
  354POPI    C2 5620  18.053  17.744  10.470 -0.0056 -0.1318 -0.0282
  354POPI    C3 5621  18.421  17.601  10.406  0.0151 -0.1186  0.0610
  354POPI   PO4 5622  18.128  18.042  10.121  0.1276  0.0938 -0.0344
  354POPI   GL1 5623  18.110  18.009   9.654 -0.2180  0.0344 -0.1868
  354POPI   GL2 5624  17.916  18.282   9.638  0.0253  0.2586 -0.0605
  354POPI   C1A 5625  17.807  17.864   9.349 -0.0698  0.2718 -0.3972
  354POPI   D2A 5626  17.614  17.550   9.063 -0.4296 -0.3906  0.0204
  354POPI   C3A 5627  17.794  17.600   8.616 -0.1292  0.5118  0.0537
  354POPI   C4A 5628  17.878  17.655   8.228 -0.0500  0.0759 -0.0968
  354POPI   C1B 5629  17.785  18.316   9.253  0.1580  0.1786  0.0809
  354POPI   C2B 5630  17.629  18.424   8.805 -0.1356 -0.1307 -0.2608
  354POPI   C3B 5631  17.302  18.403   8.496 -0.1625 -0.1664 -0.0491
  354POPI   C4B 5632  17.458  18.426   7.980  0.1384  0.3477 -0.2057
  355POPI    C1 5633  12.803   0.327  10.246 -0.1437  0.1652  0.0966
  355POPI    C2 5634  12.786   0.501  10.605  0.0173 -0.0536  0.2126
  355POPI    C3 5635  12.698   0.113  10.567  0.1130 -0.0586  0.0351
  355POPI   PO4 5636  12.689   0.439  10.012 -0.0329 -0.0029  0.0852
  355POPI   GL1 5637  12.697   0.474   9.579 -0.3362  0.0631 -0.3342
  355POPI   GL2 5638  12.396   0.409   9.553  0.0121 -0.2908  0.1499
  355POPI   C1A 5639  12.609   0.484   9.116 -0.2038 -0.1782 -0.0093
  355POPI   D2A 5640  12.466   0.675   8.769  0.3191  0.4322  0.0658
  355POPI   C3A 5641  12.164   0.581   8.501 -0.1621  0.2062  0.0078
  355POPI   C4A 5642  12.112   0.424   8.060  0.0306  0.2747  0.0421
  355POPI   C1B 5643  12.114   0.441   9.122  0.1688  0.1991 -0.0585
  355POPI   C2B 5644  11.762   0.641   8.732  0.0304  0.0859  0.0895
  355POPI   C3B 5645  11.401   0.705   8.456  0.0605 -0.1918  0.1400
  355POPI   C4B 5646  11.260   0.867   8.202 -0.1327 -0.0264  0.1560
  356POPI    C1 5647  10.276  15.453   9.807  0.1788  0.0924 -0.1672
  356POPI    C2 5648  10.023  15.256  10.045  0.0594  0.1194 -0.2707
  356POPI    C3 5649  10.416  15.238  10.114  0.0234  0.1614 -0.0463
  356POPI   PO4 5650  10.118  15.462   9.574  0.1509 -0.0887  0.2970
  356POPI   GL1 5651   9.841  15.646   9.367 -0.1468  0.1039 -0.0891
  356POPI   GL2 5652   9.738  15.289   9.228 -0.2708  0.0034 -0.0707
  356POPI   C1A 5653   9.910  15.721   8.901 -0.1274 -0.0364 -0.0190
  356POPI   D2A 5654   9.909  15.788   8.539  0.1916  0.3524 -0.1501
  356POPI   C3A 5655  10.032  15.886   8.034 -0.0665  0.2546 -0.3263
  356POPI   C4A 5656  10.118  16.104   7.612 -0.2383  0.3168 -0.0893
  356POPI   C1B 5657   9.711  15.288   8.735 -0.0805  0.3384 -0.1082
  356POPI   C2B 5658   9.682  15.469   8.295  0.1737 -0.2123  0.1072
  356POPI   C3B 5659   9.527  15.781   8.012 -0.0473 -0.1506  0.1463
  356POPI   C4B 5660   9.624  16.103   7.763 -0.1751  0.1364 -0.0103
  357POPI    C1 5661   9.925  10.627   9.749  0.0378 -0.0324 -0.0194
  357POPI    C2 5662   9.997  10.319   9.504  0.0524 -0.0527  0.0102
  357POPI    C3 5663   9.975  10.260   9.899  0.1565  0.0012  0.0247
  357POPI   PO4 5664   9.716  10.826   9.551 -0.2313 -0.1805  0.1719
  357POPI   GL1 5665   9.652  10.516   9.228 -0.2452  0.0993 -0.1663
  357POPI   GL2 5666   9.785  10.316   8.991 -0.0148 -0.0425 -0.0647
  357POPI   C1A 5667   9.647  10.739   8.832  0.0826 -0.4449  0.0219
  357POPI   D2A 5668   9.671  10.807   8.383  0.0605 -0.4612 -0.3060
  357POPI   C3A 5669   9.744  10.697   7.945  0.0552  0.2203  0.0768
  357POPI   C4A 5670   9.822  10.767   7.533  0.0174 -0.1375  0.1690
  357POPI   C1B 5671   9.952  10.361   8.594  0.3156  0.2365 -0.2172
  357POPI   C2B 5672  10.021  10.311   8.095  0.1310  0.2534 -0.1286
  357POPI   C3B 5673  10.101  10.211   7.654 -0.3598  0.0007  0.0721
  357POPI   C4B 5674  10.053  10.394   7.235 -0.0666 -0.0029  0.0627
  358POPI    C1 5675   3.058   8.454  10.147 -0.1203 -0.1915 -0.0461
  358POPI    C2 5676   3.286   8.160   9.999  0.0523 -0.0930  0.0210
  358POPI    C3 5677   3.305   8.251  10.388 -0.1327 -0.1105  0.0352
  358POPI   PO4 5678   3.132   8.608  10.003  0.0155  0.0550  0.1305
  358POPI   GL1 5679   3.327   8.590   9.619  0.2886 -0.0017 -0.4033
  358POPI   GL2 5680   3.017   8.458   9.523  0.0703 -0.1097  0.0936
  358POPI   C1A 5681   3.354   8.742   9.221  0.3093 -0.4105  0.0581
  358POPI   D2A 5682   3.536   9.015   8.932 -0.0291  0.0367 -0.0804
  358POPI   C3A 5683   3.569   9.014   8.505  0.0797 -0.0211 -0.1427
  358POPI   C4A 5684   3.504   9.093   8.147 -0.1575 -0.0662  0.0814
  358POPI   C1B 5685   2.883   8.837   9.343  0.1939  0.0136 -0.1505
  358POPI   C2B 5686   3.009   8.944   8.875  0.0793 -0.1327 -0.1454
  358POPI   C3B 5687   3.048   8.749   8.468 -0.1315 -0.1589  0.1446
  358POPI   C4B 5688   3.092   8.783   7.980  0.1529  0.2094  0.2312
  359POPI    C1 5689   2.401  11.697  10.588 -0.2189  0.0301 -0.0658
  359POPI    C2 5690   2.419  12.061  10.753  0.0246 -0.0153  0.0124
  359POPI    C3 5691   2.203  11.773  10.926  0.0561  0.0149  0.1023
  359POPI   PO4 5692   2.327  11.718  10.261  0.3279  0.1795  0.1609
  359POPI   GL1 5693   2.129  11.492   9.884  0.0421  0.0494 -0.2667
  359POPI   GL2 5694   2.124  11.157   9.944 -0.0264 -0.1490 -0.3920
  359POPI   C1A 5695   2.017  11.461   9.514  0.2018 -0.2748 -0.2567
  359POPI   D2A 5696   2.067  11.314   9.129  0.5839 -0.0332 -0.1590
  359POPI   C3A 5697   2.099  11.323   8.619  0.1611  0.0753 -0.0350
  359POPI   C4A 5698   2.137  11.077   8.243  0.1144 -0.1064  0.0524
  359POPI   C1B 5699   1.958  11.011   9.601 -0.0496  0.3709 -0.3306
  359POPI   C2B 5700   2.182  10.809   9.212 -0.2114 -0.0529  0.1069
  359POPI   C3B 5701   2.274  10.853   8.793 -0.5405 -0.1149 -0.0982
  359POPI   C4B 5702   2.607  11.035   8.537 -0.1150  0.1788  0.0217
  360POPI    C1 5703  18.330  10.957  10.242  0.0101 -0.0633  0.0317
  360POPI    C2 5704  18.430  10.609  10.411  0.0408 -0.0164  0.1107
  360POPI    C3 5705  18.674  10.779  10.143  0.0060 -0.0759  0.0407
  360POPI   PO4 5706  18.136  10.926  10.023 -0.0762  0.0643  0.1970
  360POPI   GL1 5707  18.326  11.108   9.761  0.1125  0.1372 -0.0229
  360POPI   GL2 5708  18.619  10.856   9.655  0.2426 -0.1815 -0.1194
  360POPI   C1A 5709  18.263  10.940   9.298  0.1810  0.2047 -0.0172
  360POPI   D2A 5710  18.115  11.104   8.794 -0.2428  0.2275 -0.3232
  360POPI   C3A 5711  18.341  11.257   8.333 -0.1655 -0.1018 -0.3131
  360POPI   C4A 5712  18.498  11.066   7.962 -0.1054  0.3553 -0.2160
  360POPI   C1B 5713  18.678  10.628   9.232 -0.0109 -0.1246 -0.4712
  360POPI   C2B 5714  18.581  10.608   8.803 -0.0185 -0.0791 -0.0396
  360POPI   C3B 5715  18.421  10.766   8.455  0.1070  0.1906  0.0618
  360POPI   C4B 5716  17.983  10.843   8.353  0.0849  0.3317 -0.2152
  361POPI    C1 5717   4.765   4.337  10.523  0.1702 -0.2790  0.2942
  361POPI    C2 5718   5.071   4.360  10.780  0.2085 -0.1523  0.2383
  361POPI    C3 5719   4.696   4.335  10.917  0.2349 -0.1762  0.3064
  361POPI   PO4 5720   4.853   4.328  10.311  0.1668 -0.3829  0.3939
  361POPI   GL1 5721   4.689   4.225   9.953  0.0669  0.3397 -0.1413
  361POPI   GL2 5722   4.628   3.881  10.157  0.1109  0.0926 -0.0880
  361POPI   C1A 5723   4.718   4.457   9.577  0.1746  0.0171  0.3049
  361POPI   D2A 5724   4.606   4.703   9.248 -0.0549 -0.0119 -0.2215
  361POPI   C3A 5725   4.868   4.905   8.868 -0.0796  0.1111 -0.1563
  361POPI   C4A 5726   5.102   4.930   8.537  0.1433  0.0476  0.0126
  361POPI   C1B 5727   4.406   3.575   9.778 -0.1202  0.0743 -0.0682
  361POPI   C2B 5728   4.467   3.411   9.398  0.0989  0.3903 -0.0874
  361POPI   C3B 5729   4.337   3.320   8.915 -0.3132  0.1239  0.0181
  361POPI   C4B 5730   4.409   3.128   8.454  0.0231  0.0384  0.0481
  362POPI    C1 5731  17.579  10.541  10.116  0.1319  0.1325 -0.0704
  362POPI    C2 5732  17.906  10.600  10.339  0.1014  0.0045  0.0084
  362POPI    C3 5733  17.570  10.462  10.507  0.0297  0.0617 -0.0867
  362POPI   PO4 5734  17.736  10.485   9.855 -0.0164  0.1925 -0.0526
  362POPI   GL1 5735  17.718  10.327   9.493 -0.2544 -0.1134 -0.1660
  362POPI   GL2 5736  18.077  10.442   9.443 -0.4516  0.0573  0.2585
  362POPI   C1A 5737  17.799  10.617   9.107  0.3257  0.1382 -0.1885
  362POPI   D2A 5738  18.082  10.640   8.872 -0.0308  0.1618  0.3079
  362POPI   C3A 5739  18.229  10.297   8.580  0.0911  0.0162 -0.0952
  362POPI   C4A 5740  18.668  10.339   8.329 -0.0253 -0.2406 -0.1825
  362POPI   C1B 5741  18.185  10.159   9.100  0.2218 -0.0375  0.0516
  362POPI   C2B 5742  18.238   9.743   8.905  0.0714  0.1068 -0.3072
  362POPI   C3B 5743  17.999   9.653   8.555 -0.3893 -0.1947 -0.1615
  362POPI   C4B 5744  17.875   9.527   8.036  0.0913 -0.0780 -0.1233
  363POPI    C1 5745   5.480   6.048   9.932 -0.0128  0.0521  0.1263
  363POPI    C2 5746   5.546   6.308  10.228 -0.0932  0.0442  0.1514
  363POPI    C3 5747   5.839   6.065  10.107 -0.1346 -0.1346  0.4017
  363POPI   PO4 5748   5.289   6.175   9.799 -0.0405  0.2230  0.0512
  363POPI   GL1 5749   5.111   6.107   9.389 -0.0647 -0.0196  0.1347
  363POPI   GL2 5750   5.478   5.964   9.409 -0.4302 -0.1465 -0.4220
  363POPI   C1A 5751   5.082   6.016   8.930 -0.1302 -0.1405 -0.4448
  363POPI   D2A 5752   4.872   5.900   8.547  0.0495 -0.2667 -0.1254
  363POPI   C3A 5753   5.124   5.741   8.195 -0.0074  0.3041  0.3404
  363POPI   C4A 5754   5.527   5.751   7.867  0.2200 -0.1780 -0.1312
  363POPI   C1B 5755   5.546   6.021   8.980  0.2355  0.4308  0.1520
  363POPI   C2B 5756   5.480   6.167   8.463 -0.0682  0.0487  0.0502
  363POPI   C3B 5757   5.638   6.222   7.975  0.1979 -0.2943 -0.0137
  363POPI   C4B 5758   5.871   6.452   7.759  0.2408  0.4905  0.1673
  364POPI    C1 5759  13.854  13.656  10.377  0.1401 -0.0355  0.2367
  364POPI    C2 5760  13.908  13.295  10.540  0.0999 -0.1228  0.0593
  364POPI    C3 5761  13.560  13.488  10.590 -0.0110 -0.2666 -0.1455
  364POPI   PO4 5762  13.895  13.640  10.170  0.0675 -0.3385 -0.1224
  364POPI   GL1 5763  14.096  13.737   9.799  0.0971  0.3534 -0.1511
  364POPI   GL2 5764  13.875  13.898   9.588  0.2380  0.2713  0.1462
  364POPI   C1A 5765  14.315  13.692   9.417  0.1965  0.3131  0.0483
  364POPI   D2A 5766  14.449  13.581   8.998  0.1288  0.2290 -0.1811
  364POPI   C3A 5767  14.411  13.659   8.724  0.0907  0.2373  0.1121
  364POPI   C4A 5768  14.366  13.657   8.258 -0.2119  0.1599  0.1056
  364POPI   C1B 5769  13.903  13.987   9.250  0.0161  0.1330  0.0451
  364POPI   C2B 5770  14.023  14.050   8.978  0.0801 -0.1313  0.0453
  364POPI   C3B 5771  14.051  13.989   8.520  0.1982  0.1321  0.0636
  364POPI   C4B 5772  14.094  14.099   8.087  0.0369  0.3181  0.1807
  365POPI    C1 5773  10.446   2.638  10.192  0.1133  0.2485 -0.0451
  365POPI    C2 5774  10.450   2.710  10.585 -0.2909 -0.0894  0.0280
  365POPI    C3 5775  10.516   2.340  10.449  0.0162  0.0578 -0.2372
  365POPI   PO4 5776  10.280   2.723  10.064 -0.0611 -0.1132 -0.0987
  365POPI   GL1 5777  10.005   2.679   9.812  0.2274 -0.0130  0.2632
  365POPI   GL2 5778   9.978   2.949   9.701  0.1874 -0.2055 -0.0800
  365POPI   C1A 5779   9.649   2.663   9.428 -0.0291 -0.1268  0.0787
  365POPI   D2A 5780   9.514   2.604   9.032  0.2803  0.0696  0.4436
  365POPI   C3A 5781   9.667   2.441   8.729 -0.0222 -0.0930 -0.0102
  365POPI   C4A 5782   9.571   2.446   8.374  0.1507 -0.2701 -0.3252
  365POPI   C1B 5783   9.961   2.968   9.232  0.1183  0.0403  0.0449
  365POPI   C2B 5784   9.737   2.927   8.851 -0.3349 -0.3527  0.0608
  365POPI   C3B 5785   9.479   2.935   8.447  0.1146  0.3636  0.0174
  365POPI   C4B 5786   9.485   2.733   7.979 -0.0257 -0.2341  0.0312
  366POPI    C1 5787  15.921  11.271  10.094 -0.0637  0.0427  0.2110
  366POPI    C2 5788  15.528  11.207  10.128 -0.0353 -0.0919  0.2978
  366POPI    C3 5789  15.727  11.390  10.423 -0.0468  0.0512  0.2180
  366POPI   PO4 5790  16.035  11.039   9.921  0.1584 -0.1129 -0.2972
  366POPI   GL1 5791  16.103  10.829   9.590  0.2502  0.0619 -0.2995
  366POPI   GL2 5792  16.175  10.601   9.541 -0.1866 -0.0108 -0.4437
  366POPI   C1A 5793  16.012  10.981   9.180  0.1719  0.1216  0.0345
  366POPI   D2A 5794  15.992  11.078   8.728  0.1065  0.0264 -0.3899
  366POPI   C3A 5795  15.627  11.058   8.426 -0.2681  0.0041  0.3839
  366POPI   C4A 5796  15.258  10.985   8.037  0.2753 -0.1740 -0.1526
  366POPI   C1B 5797  16.246  10.262   9.358 -0.0572 -0.1302  0.0266
  366POPI   C2B 5798  16.200  10.154   8.973  0.1210 -0.1806 -0.1081
  366POPI   C3B 5799  16.162  10.249   8.552  0.2501  0.0391 -0.0286
  366POPI   C4B 5800  16.339  10.116   8.088  0.0560  0.1468  0.0587
  367POPI    C1 5801  14.959   0.825  10.101 -0.0021 -0.0067  0.0072
  367POPI    C2 5802  15.159   0.527  10.278  0.1487  0.0870 -0.0041
  367POPI    C3 5803  15.269   0.907  10.341 -0.1506  0.1508  0.1480
  367POPI   PO4 5804  14.888   0.769   9.920 -0.0779 -0.3498  0.0001
  367POPI   GL1 5805  14.970   0.967   9.491 -0.0179  0.2055 -0.3165
  367POPI   GL2 5806  14.721   0.790   9.454 -0.1519 -0.0839 -0.2966
  367POPI   C1A 5807  14.649   1.196   9.179 -0.0612  0.0886 -0.0392
  367POPI   D2A 5808  14.670   1.424   8.850 -0.1414 -0.1791  0.1162
  367POPI   C3A 5809  14.874   1.490   8.496 -0.0012 -0.2162 -0.0783
  367POPI   C4A 5810  14.939   1.666   8.068 -0.0330 -0.1975 -0.0548
  367POPI   C1B 5811  14.721   0.518   9.128 -0.2171 -0.3706 -0.1405
  367POPI   C2B 5812  14.643   0.391   8.766  0.2206 -0.2431  0.0542
  367POPI   C3B 5813  14.571   0.455   8.410  0.0419 -0.1223 -0.2587
  367POPI   C4B 5814  14.674   0.471   7.946  0.2271  0.4000 -0.3387
  368POPI    C1 5815  13.479  10.862  10.121 -0.0306 -0.1605 -0.0320
  368POPI    C2 5816  13.552  11.140  10.400  0.0223 -0.0114 -0.1926
  368POPI    C3 5817  13.208  11.146  10.195 -0.0276 -0.1359 -0.1137
  368POPI   PO4 5818  13.656  10.851   9.952  0.1151  0.0948  0.0147
  368POPI   GL1 5819  13.774  10.565   9.588 -0.2867 -0.0662 -0.1038
  368POPI   GL2 5820  13.405  10.658   9.533 -0.0086  0.1178 -0.1211
  368POPI   C1A 5821  13.863  10.174   9.345  0.1755  0.0992 -0.2773
  368POPI   D2A 5822  13.891  10.074   9.007 -0.1413 -0.1247  0.0964
  368POPI   C3A 5823  13.985   9.620   8.984  0.3948 -0.2602 -0.1375
  368POPI   C4A 5824  14.256   9.407   9.269 -0.2231 -0.2391  0.0285
  368POPI   C1B 5825  13.417  11.030   9.229  0.1466 -0.0785 -0.0467
  368POPI   C2B 5826  13.807  11.026   9.045 -0.2900  0.1071  0.8545
  368POPI   C3B 5827  14.209  10.837   8.827 -0.2189 -0.0183  0.0345
  368POPI   C4B 5828  14.235  10.387   8.728 -0.2235  0.1752  0.0192
  369POPI    C1 5829   9.277   5.194   9.941 -0.3172  0.2408 -0.1751
  369POPI    C2 5830   9.559   5.197   9.657 -0.2620  0.0148 -0.1245
  369POPI    C3 5831   9.316   4.881   9.694 -0.0777 -0.0870  0.2640
  369POPI   PO4 5832   9.143   5.540   9.823  0.1832 -0.0429 -0.1998
  369POPI   GL1 5833   9.110   5.468   9.395  0.4354  0.0732 -0.0895
  369POPI   GL2 5834   9.191   5.795   9.310 -0.0086 -0.2961 -0.1805
  369POPI   C1A 5835   8.814   5.450   9.184 -0.1718 -0.1406  0.3611
  369POPI   D2A 5836   8.462   5.177   9.269  0.1107  0.2710  0.0747
  369POPI   C3A 5837   8.390   4.959   8.814  0.1425 -0.0827  0.3852
  369POPI   C4A 5838   8.557   4.802   8.507  0.0780  0.0767  0.4587
  369POPI   C1B 5839   9.164   5.887   9.017 -0.2387  0.1007  0.0398
  369POPI   C2B 5840   8.962   5.580   8.723  0.3206 -0.1438 -0.1717
  369POPI   C3B 5841   8.792   5.219   8.378 -0.0263 -0.4404 -0.1308
  369POPI   C4B 5842   8.688   5.034   8.030  0.0140 -0.1398 -0.0876
  370POPI    C1 5843   2.719   1.175  10.856  0.0607 -0.0726  0.0282
  370POPI    C2 5844   2.326   1.251  10.855  0.0584 -0.0806 -0.1952
  370POPI    C3 5845   2.524   1.226  11.201 -0.0600  0.3244 -0.0930
  370POPI   PO4 5846   2.773   1.307  10.662  0.1841 -0.4529  0.0497
  370POPI   GL1 5847   2.876   1.223  10.189  0.0748 -0.0214  0.3494
  370POPI   GL2 5848   2.859   0.917   9.950 -0.0888 -0.2859 -0.2291
  370POPI   C1A 5849   2.691   1.271   9.713 -0.1869 -0.0641 -0.0275
  370POPI   D2A 5850   2.797   1.497   9.272 -0.0879 -0.2353 -0.1786
  370POPI   C3A 5851   3.051   1.854   9.324 -0.0569  0.2335 -0.1543
  370POPI   C4A 5852   3.087   2.095   8.922  0.1054  0.0053 -0.2617
  370POPI   C1B 5853   2.902   0.904   9.434  0.0549  0.0940  0.0850
  370POPI   C2B 5854   2.814   0.948   8.957  0.0480 -0.0429 -0.2248
  370POPI   C3B 5855   2.676   1.307   8.769  0.1476  0.0379 -0.0521
  370POPI   C4B 5856   2.952   1.661   8.749 -0.1349  0.0483 -0.0303
  371POPI    C1 5857   2.072   1.734  10.799  0.0998  0.0373  0.0045
  371POPI    C2 5858   1.935   1.965  11.096  0.3885  0.2888 -0.0531
  371POPI    C3 5859   2.104   1.612  11.179  0.0010  0.1197  0.0402
  371POPI   PO4 5860   1.983   1.932  10.475 -0.2223  0.0318 -0.1609
  371POPI   GL1 5861   1.870   2.252  10.241 -0.3303  0.0509  0.1187
  371POPI   GL2 5862   1.632   2.286  10.149 -0.0057  0.0921  0.1123
  371POPI   C1A 5863   2.022   2.043   9.816  0.1074  0.2666  0.0748
  371POPI   D2A 5864   2.265   1.569   9.763  0.1628 -0.3145 -0.2297
  371POPI   C3A 5865   2.288   1.474   9.374 -0.1194  0.3135  0.4116
  371POPI   C4A 5866   2.437   1.157   9.228 -0.0217  0.2990  0.1300
  371POPI   C1B 5867   1.503   2.036   9.767  0.0085 -0.1159  0.0177
  371POPI   C2B 5868   1.543   2.113   9.290  0.2423 -0.2938 -0.0514
  371POPI   C3B 5869   1.391   2.412   8.990 -0.0089  0.2829  0.0594
  371POPI   C4B 5870   1.055   2.685   9.041  0.1994  0.2912 -0.0796
  372POPI    C1 5871   3.244  17.787  10.363 -0.0508 -0.0980 -0.0741
  372POPI    C2 5872   3.410  18.088  10.157 -0.0088  0.1317  0.2864
  372POPI    C3 5873   3.172  18.166  10.469 -0.0979 -0.2103  0.3086
  372POPI   PO4 5874   3.209  17.562  10.163 -0.2726 -0.0286 -0.0335
  372POPI   GL1 5875   3.197  17.427   9.785  0.1976  0.0521 -0.0426
  372POPI   GL2 5876   3.469  17.270   9.631 -0.1170 -0.3589  0.1449
  372POPI   C1A 5877   3.189  17.729   9.512 -0.1962  0.3299  0.0200
  372POPI   D2A 5878   2.823  17.978   9.346 -0.0536  0.0150 -0.1400
  372POPI   C3A 5879   2.722  17.899   8.959  0.2042  0.0075 -0.0411
  372POPI   C4A 5880   2.815  17.784   8.631 -0.2230 -0.3949  0.0030
  372POPI   C1B 5881   3.758  17.080   9.264 -0.0044 -0.1317  0.1493
  372POPI   C2B 5882   3.549  17.138   8.808  0.0261  0.3259 -0.3672
  372POPI   C3B 5883   3.508  17.177   8.399  0.0080 -0.1270 -0.2573
  372POPI   C4B 5884   3.777  17.320   8.006  0.0143  0.0763 -0.3585
  373POPI    C1 5885   1.068  14.744  10.352  0.0859 -0.0309 -0.0069
  373POPI    C2 5886   1.313  14.432  10.404  0.1291  0.0190  0.0919
  373POPI    C3 5887   0.957  14.439  10.586 -0.0737 -0.1893 -0.2845
  373POPI   PO4 5888   1.091  14.682  10.040 -0.1268 -0.1518 -0.3212
  373POPI   GL1 5889   0.911  14.508   9.706 -0.1107  0.3337  0.1765
  373POPI   GL2 5890   0.708  14.641   9.453  0.1983  0.2996  0.1118
  373POPI   C1A 5891   1.148  14.360   9.360 -0.0308  0.0694 -0.1553
  373POPI   D2A 5892   1.469  14.138   9.085  0.0920 -0.1434 -0.1011
  373POPI   C3A 5893   1.357  14.359   8.809 -0.0749 -0.1090 -0.1315
  373POPI   C4A 5894   1.466  14.312   8.318 -0.2020  0.1074 -0.0967
  373POPI   C1B 5895   0.788  14.486   9.010 -0.0300 -0.0256 -0.0025
  373POPI   C2B 5896   0.883  14.553   8.510  0.1210 -0.0221 -0.1455
  373POPI   C3B 5897   0.801  14.318   8.019 -0.0037  0.0364  0.0499
  373POPI   C4B 5898   0.815  13.947   7.637 -0.1955 -0.0861 -0.2448
  374POPI    C1 5899  14.524   7.224  10.159  0.0063  0.0072 -0.0412
  374POPI    C2 5900  14.660   6.922  10.383 -0.1304 -0.0801 -0.0750
  374POPI    C3 5901  14.796   7.293  10.444  0.0761 -0.1560 -0.0676
  374POPI   PO4 5902  14.563   7.137   9.914 -0.2267 -0.1384 -0.2588
  374POPI   GL1 5903  14.736   7.017   9.627  0.2061  0.0744  0.4852
  374POPI   GL2 5904  14.853   6.706   9.475 -0.0255 -0.0752 -0.0126
  374POPI   C1A 5905  14.924   7.119   9.239  0.3550  0.0631 -0.0993
  374POPI   D2A 5906  15.004   7.066   8.831  0.0502  0.2492 -0.3055
  374POPI   C3A 5907  14.978   7.281   8.479  0.3747  0.2017  0.0568
  374POPI   C4A 5908  15.174   7.639   8.317  0.3355  0.3297 -0.2252
  374POPI   C1B 5909  14.745   6.680   8.985  0.0761  0.0095  0.1000
  374POPI   C2B 5910  14.904   6.699   8.486  0.0853 -0.1408  0.1727
  374POPI   C3B 5911  14.961   6.741   8.087 -0.1963  0.1294 -0.1391
  374POPI   C4B 5912  14.870   6.663   7.624  0.0489 -0.4293 -0.1126
  375POPI    C1 5913   1.229   2.855  10.270 -0.1237  0.0331  0.0951
  375POPI    C2 5914   1.471   2.592  10.449 -0.0995  0.1193  0.1899
  375POPI    C3 5915   1.442   2.966  10.590 -0.3147  0.0994  0.2011
  375POPI   PO4 5916   1.368   2.819  10.039  0.3328  0.1125 -0.0098
  375POPI   GL1 5917   1.455   2.618   9.755 -0.0249 -0.0110 -0.0732
  375POPI   GL2 5918   1.739   2.527   9.722  0.2408 -0.4799  0.1992
  375POPI   C1A 5919   1.442   2.706   9.366  0.1815  0.2551 -0.1324
  375POPI   D2A 5920   1.490   2.846   8.846 -0.0807 -0.1245  0.0423
  375POPI   C3A 5921   1.561   3.054   8.492 -0.1118  0.0540 -0.0512
  375POPI   C4A 5922   1.906   3.009   8.086  0.2262  0.0739 -0.0368
  375POPI   C1B 5923   1.968   2.389   9.467  0.1238  0.1740 -0.1944
  375POPI   C2B 5924   2.264   2.289   9.173 -0.0093  0.1393  0.0299
  375POPI   C3B 5925   2.675   2.392   8.906 -0.0451 -0.0652 -0.0726
  375POPI   C4B 5926   2.869   2.253   8.533  0.0316 -0.2135 -0.1540
  376POPI    C1 5927   8.769  18.427  10.332  0.0880 -0.1027 -0.1119
  376POPI    C2 5928   8.521  18.295  10.616  0.1596 -0.0362 -0.0180
  376POPI    C3 5929   8.880  18.442  10.716  0.0866  0.2179 -0.1208
  376POPI   PO4 5930   8.715  18.266  10.148  0.2375  0.1311  0.0415
  376POPI   GL1 5931   8.749  18.266   9.685  0.0031 -0.2065 -0.0976
  376POPI   GL2 5932   9.023  18.052   9.649 -0.1546  0.1511  0.3998
  376POPI   C1A 5933   8.687  18.489   9.092 -0.0128  0.2416  0.2526
  376POPI   D2A 5934   8.520  18.524   8.629  0.0825 -0.3299 -0.0142
  376POPI   C3A 5935   8.670  18.515   8.176  0.0739 -0.0401 -0.3366
  376POPI   C4A 5936   8.519  18.576   7.708  0.0832  0.3371 -0.2662
  376POPI   C1B 5937   9.162  18.148   9.185  0.1088 -0.0913 -0.2527
  376POPI   C2B 5938   9.471  18.093   8.829 -0.5237  0.2785  0.2275
  376POPI   C3B 5939   9.576  17.790   8.427 -0.1075 -0.3054 -0.1594
  376POPI   C4B 5940   9.801  17.933   8.163  0.0538  0.0326  0.2182
  377POPI    C1 5941  15.272  12.275  10.291  0.0245 -0.1454  0.0113
  377POPI    C2 5942  15.218  12.138  10.663 -0.2268 -0.0670  0.0057
  377POPI    C3 5943  14.965  12.408  10.511  0.0971  0.1920 -0.0854
  377POPI   PO4 5944  15.261  12.044  10.110 -0.2267  0.2356 -0.1667
  377POPI   GL1 5945  15.225  11.851   9.750  0.1336  0.4578 -0.1055
  377POPI   GL2 5946  15.406  11.464   9.705 -0.0649  0.4182  0.0555
  377POPI   C1A 5947  15.015  11.849   9.360 -0.1248 -0.1531 -0.0690
  377POPI   D2A 5948  14.877  11.960   8.961  0.1831 -0.0444  0.2301
  377POPI   C3A 5949  14.667  12.036   8.544  0.2553 -0.1901  0.2559
  377POPI   C4A 5950  14.496  11.900   8.118  0.1634 -0.1650 -0.1473
  377POPI   C1B 5951  15.126  11.376   9.373  0.4067  0.2340  0.2544
  377POPI   C2B 5952  14.909  11.403   9.019 -0.0657  0.2402 -0.1505
  377POPI   C3B 5953  14.745  11.559   8.633  0.0703  0.2312  0.1507
  377POPI   C4B 5954  14.578  11.349   8.270  0.1218 -0.0571  0.2485
  378POPI    C1 5955  12.736  16.390   9.798 -0.2045 -0.1459  0.0245
  378POPI    C2 5956  13.085  16.575   9.863 -0.2553  0.0443 -0.2318
  378POPI    C3 5957  12.919  16.354  10.152  0.0102  0.0626 -0.0627
  378POPI   PO4 5958  12.663  16.608   9.686 -0.0485  0.2492 -0.1136
  378POPI   GL1 5959  12.727  16.743   9.314  0.1098  0.3359 -0.1982
  378POPI   GL2 5960  12.919  16.917   9.197  0.1721 -0.0050  0.1100
  378POPI   C1A 5961  12.821  16.437   8.957 -0.0186  0.1455  0.0352
  378POPI   D2A 5962  12.845  16.563   8.643  0.0969  0.1726 -0.1856
  378POPI   C3A 5963  12.985  16.628   8.264  0.0801  0.1005 -0.1814
  378POPI   C4A 5964  13.132  16.902   7.958  0.2604  0.1563  0.4118
  378POPI   C1B 5965  12.994  17.036   8.729  0.1741  0.3124  0.2192
  378POPI   C2B 5966  13.083  17.255   8.322  0.3136  0.0247 -0.4205
  378POPI   C3B 5967  12.952  17.456   8.022 -0.1004 -0.1266  0.0676
  378POPI   C4B 5968  12.950  17.819   7.690  0.2169  0.1046 -0.0840
  379POPI    C1 5969   1.395  17.672  10.528 -0.2864  0.1153  0.0064
  379POPI    C2 5970   1.330  18.031  10.366 -0.3981 -0.0524 -0.3289
  379POPI    C3 5971   1.021  17.806  10.484 -0.3204  0.0420  0.0680
  379POPI   PO4 5972   1.597  17.500  10.460  0.2204  0.1439 -0.0228
  379POPI   GL1 5973   1.958  17.638  10.268  0.0485 -0.0185  0.1110
  379POPI   GL2 5974   1.781  17.420   9.955 -0.1506  0.2653 -0.0513
  379POPI   C1A 5975   2.057  17.901   9.924  0.2026  0.2158  0.1738
  379POPI   D2A 5976   1.944  18.058   9.478  0.0044  0.0269 -0.0252
  379POPI   C3A 5977   1.930  17.977   9.046  0.0622  0.1364  0.0726
  379POPI   C4A 5978   2.256  17.956   8.734 -0.1043  0.0395 -0.4503
  379POPI   C1B 5979   1.836  17.558   9.538 -0.2056  0.3363 -0.2886
  379POPI   C2B 5980   1.799  17.503   9.000 -0.1053 -0.0327  0.3399
  379POPI   C3B 5981   1.991  17.416   8.575 -0.0293  0.3116  0.0403
  379POPI   C4B 5982   2.145  17.365   8.182  0.0970  0.2818  0.1017
  380POPI    C1 5983  13.650   1.230  10.105 -0.1200  0.0270  0.1018
  380POPI    C2 5984  13.531   0.884   9.944  0.3587 -0.0230 -0.1614
  380POPI    C3 5985  13.866   0.899  10.162  0.3350  0.2724 -0.1412
  380POPI   PO4 5986  13.606   1.508   9.948  0.0426  0.2018  0.1172
  380POPI   GL1 5987  13.401   1.344   9.674  0.1524  0.1860 -0.1098
  380POPI   GL2 5988  13.537   1.081   9.515 -0.3209 -0.1710 -0.0054
  380POPI   C1A 5989  13.196   1.255   9.204 -0.3749 -0.0637 -0.2938
  380POPI   D2A 5990  13.074   1.272   8.701 -0.0432 -0.1576  0.2097
  380POPI   C3A 5991  13.192   1.649   8.458 -0.1311 -0.2001  0.0969
  380POPI   C4A 5992  13.505   1.864   8.249 -0.1038  0.1464  0.0205
  380POPI   C1B 5993  13.648   1.127   9.132  0.1913 -0.0189  0.2760
  380POPI   C2B 5994  13.438   0.979   8.666 -0.1003 -0.0304 -0.1801
  380POPI   C3B 5995  13.459   1.290   8.294  0.4327 -0.0772  0.1597
  380POPI   C4B 5996  13.388   1.397   7.939 -0.1637 -0.0304 -0.0422
  381POPI    C1 5997   6.875  10.025  10.136  0.2615 -0.2314 -0.3113
  381POPI    C2 5998   6.729   9.693  10.306  0.1871 -0.0897 -0.0939
  381POPI    C3 5999   7.073   9.850  10.437  0.1455  0.0029 -0.0944
  381POPI   PO4 6000   6.874  10.015   9.917 -0.1871  0.0801  0.0378
  381POPI   GL1 6001   6.614  10.039   9.379 -0.2523  0.0744  0.0525
  381POPI   GL2 6002   6.927  10.146   9.469  0.2123  0.0772  0.0461
  381POPI   C1A 6003   6.512  10.197   8.889  0.0100 -0.1921  0.1252
  381POPI   D2A 6004   6.617  10.127   8.413 -0.0178  0.0714 -0.0581
  381POPI   C3A 6005   6.319   9.969   8.115 -0.0225 -0.1486 -0.1346
  381POPI   C4A 6006   5.946   9.933   7.915 -0.3221 -0.0619 -0.0427
  381POPI   C1B 6007   6.971   9.914   9.044 -0.0568  0.4860  0.1448
  381POPI   C2B 6008   6.769   9.770   8.706 -0.4439  0.2668  0.1964
  381POPI   C3B 6009   6.970   9.802   8.347  0.0194 -0.0184  0.0821
  381POPI   C4B 6010   6.967   9.819   7.911 -0.2120  0.0875 -0.1171
  382POPI    C1 6011   7.885   6.905   9.954 -0.2308 -0.0434  0.0129
  382POPI    C2 6012   8.015   7.200  10.190  0.0819 -0.0602 -0.1324
  382POPI    C3 6013   7.650   7.045  10.245  0.1107  0.0047  0.2710
  382POPI   PO4 6014   7.899   6.953   9.732 -0.2826 -0.3128 -0.0918
  382POPI   GL1 6015   7.762   6.846   9.432 -0.1186 -0.2666 -0.0888
  382POPI   GL2 6016   7.463   6.840   9.320  0.2043  0.0436  0.1785
  382POPI   C1A 6017   8.083   6.828   9.181 -0.4006 -0.0760  0.0674
  382POPI   D2A 6018   8.282   7.044   8.860 -0.3357  0.1889  0.1953
  382POPI   C3A 6019   8.194   6.834   8.428 -0.0286 -0.0618 -0.0543
  382POPI   C4A 6020   8.002   6.667   8.136 -0.0030 -0.0078 -0.1436
  382POPI   C1B 6021   7.614   7.065   9.027 -0.1801 -0.2748  0.0452
  382POPI   C2B 6022   7.699   7.045   8.537  0.1757 -0.0479  0.0714
  382POPI   C3B 6023   7.832   7.153   8.221  0.1432  0.2918 -0.0713
  382POPI   C4B 6024   7.958   7.098   7.883 -0.3349  0.0358  0.1703
  383POPI    C1 6025  14.374   2.223  10.137  0.4162  0.2045 -0.2447
  383POPI    C2 6026  14.668   1.956  10.186  0.0222 -0.1694  0.1807
  383POPI    C3 6027  14.532   2.165  10.499 -0.0191  0.1660 -0.0546
  383POPI   PO4 6028  14.220   2.018   9.992  0.0715  0.2621  0.2188
  383POPI   GL1 6029  14.249   1.635   9.701 -0.1121  0.3486  0.1668
  383POPI   GL2 6030  13.983   1.705   9.605 -0.4736 -0.0150 -0.0221
  383POPI   C1A 6031  14.460   1.604   9.322  0.0321 -0.2928 -0.0416
  383POPI   D2A 6032  14.531   1.878   9.068  0.2978  0.2269  0.0648
  383POPI   C3A 6033  14.379   1.796   8.686 -0.0488 -0.2001  0.0652
  383POPI   C4A 6034  14.452   1.669   8.181 -0.1325 -0.1580 -0.2837
  383POPI   C1B 6035  13.840   1.522   9.324  0.1095  0.0908 -0.4566
  383POPI   C2B 6036  14.054   1.450   8.961 -0.0823 -0.1212 -0.1578
  383POPI   C3B 6037  14.324   1.337   8.538 -0.0325  0.0385 -0.0260
  383POPI   C4B 6038  14.339   1.222   8.035 -0.0085 -0.0458 -0.1282
  384POPI    C1 6039   3.111  15.890  10.437 -0.1613  0.0666  0.0772
  384POPI    C2 6040   2.745  15.824  10.585 -0.0207 -0.1529  0.3361
  384POPI    C3 6041   3.050  15.900  10.832  0.0621  0.2871  0.1082
  384POPI   PO4 6042   3.168  15.767  10.228  0.0663  0.0680 -0.0332
  384POPI   GL1 6043   2.909  15.655   9.857 -0.2860  0.1493  0.0297
  384POPI   GL2 6044   2.514  15.716   9.768 -0.0033 -0.0586  0.2073
  384POPI   C1A 6045   2.992  15.495   9.454 -0.0204  0.0369 -0.1390
  384POPI   D2A 6046   3.084  15.655   9.023  0.0737 -0.0488  0.2090
  384POPI   C3A 6047   2.830  15.357   8.623  0.3607  0.2479 -0.0839
  384POPI   C4A 6048   2.789  15.066   8.309 -0.1619  0.0538 -0.1374
  384POPI   C1B 6049   2.481  15.738   9.314  0.1483 -0.2276  0.0143
  384POPI   C2B 6050   2.618  15.746   8.842 -0.0312  0.0203  0.1169
  384POPI   C3B 6051   2.637  15.838   8.403 -0.1112  0.5294 -0.1348
  384POPI   C4B 6052   2.487  15.727   7.934 -0.2267  0.0698 -0.1010
  385POPI    C1 6053   2.931   9.183  10.367  0.2616 -0.1632 -0.1196
  385POPI    C2 6054   2.805   8.999  10.035 -0.2994  0.3346 -0.1998
  385POPI    C3 6055   2.702   8.857  10.394  0.0256 -0.0099 -0.2365
  385POPI   PO4 6056   3.193   9.166  10.264  0.1086  0.1206 -0.0812
  385POPI   GL1 6057   3.365   9.031   9.837  0.0127 -0.2545 -0.1761
  385POPI   GL2 6058   3.698   8.930   9.680  0.1415  0.0558 -0.0417
  385POPI   C1A 6059   3.320   9.285   9.479  0.1021 -0.2366 -0.0468
  385POPI   D2A 6060   3.034   9.344   9.148  0.0247 -0.0894 -0.2530
  385POPI   C3A 6061   3.173   9.433   8.721 -0.0992  0.0051 -0.1538
  385POPI   C4A 6062   3.102   9.251   8.417 -0.0573 -0.1902  0.3990
  385POPI   C1B 6063   3.869   8.694   9.304 -0.1334  0.0757 -0.1097
  385POPI   C2B 6064   3.787   8.594   8.875 -0.0708  0.0275 -0.2228
  385POPI   C3B 6065   3.356   8.493   8.783 -0.0745  0.3480 -0.0169
  385POPI   C4B 6066   2.881   8.368   9.031 -0.1506 -0.0167  0.2595
  386POPI    C1 6067  12.007   7.100   9.987  0.3257  0.2335  0.0683
  386POPI    C2 6068  11.717   7.374  10.017  0.0555 -0.0326 -0.0585
  386POPI    C3 6069  11.789   7.124  10.322  0.3003  0.1733  0.0563
  386POPI   PO4 6070  11.987   7.032   9.669  0.4840  0.2268  0.2848
  386POPI   GL1 6071  11.801   6.932   9.281 -0.2609 -0.0218  0.0571
  386POPI   GL2 6072  11.924   6.631   9.206 -0.0520  0.1844 -0.1456
  386POPI   C1A 6073  11.988   7.044   8.872 -0.0654 -0.3403 -0.0675
  386POPI   D2A 6074  12.343   6.977   8.624  0.0295 -0.1640 -0.0111
  386POPI   C3A 6075  12.371   7.035   8.260 -0.1392 -0.1193  0.0900
  386POPI   C4A 6076  12.248   7.044   7.880 -0.2121  0.5690 -0.0339
  386POPI   C1B 6077  11.863   6.513   8.755 -0.1185  0.3223  0.2732
  386POPI   C2B 6078  11.920   6.702   8.344 -0.0051  0.0691  0.1280
  386POPI   C3B 6079  11.724   6.867   7.941 -0.1497  0.1530 -0.2040
  386POPI   C4B 6080  11.389   7.209   7.823  0.0571 -0.0049  0.0812
  387POPI    C1 6081   6.784   8.685  10.238  0.1405  0.1535 -0.0506
  387POPI    C2 6082   7.006   8.361  10.314  0.0047  0.1050  0.1489
  387POPI    C3 6083   7.112   8.717  10.464  0.1282  0.1464 -0.0318
  387POPI   PO4 6084   6.703   8.680   9.939 -0.2251 -0.0469  0.1294
  387POPI   GL1 6085   6.376   8.765   9.536 -0.2534 -0.1593 -0.3253
  387POPI   GL2 6086   6.304   8.403   9.647  0.3129 -0.3120  0.1321
  387POPI   C1A 6087   6.477   8.518   9.206  0.0465  0.0366 -0.1900
  387POPI   D2A 6088   6.671   8.594   8.797  0.2788  0.2074  0.0234
  387POPI   C3A 6089   6.947   8.363   8.540  0.2659 -0.2118 -0.1761
  387POPI   C4A 6090   7.102   8.209   8.219 -0.0405 -0.2365  0.0879
  387POPI   C1B 6091   6.484   7.988   9.495 -0.1013  0.2144  0.0832
  387POPI   C2B 6092   6.600   8.022   9.096  0.1579  0.2420  0.0233
  387POPI   C3B 6093   6.582   8.045   8.689  0.2357  0.2104 -0.2263
  387POPI   C4B 6094   6.603   7.980   8.301 -0.1540  0.3089 -0.2786
  388POPI    C1 6095   8.987  12.385  10.382 -0.1762  0.0019  0.0463
  388POPI    C2 6096   9.381  12.414  10.322 -0.1878  0.0358 -0.0149
  388POPI    C3 6097   9.192  12.687  10.546 -0.2081  0.1293 -0.1445
  388POPI   PO4 6098   8.827  12.362   9.981  0.3491  0.2626  0.3964
  388POPI   GL1 6099   8.783  12.612   9.608 -0.2147 -0.0873  0.1238
  388POPI   GL2 6100   8.838  12.331   9.406 -0.0353 -0.0101  0.0632
  388POPI   C1A 6101   8.869  12.777   9.177 -0.1987  0.1597  0.0674
  388POPI   D2A 6102   8.717  12.878   8.747 -0.0747 -0.0591  0.1408
  388POPI   C3A 6103   8.476  13.158   8.595  0.0638  0.2390  0.0483
  388POPI   C4A 6104   8.226  13.062   8.157 -0.1968  0.0348 -0.0189
  388POPI   C1B 6105   9.034  12.313   8.991 -0.4770  0.0710  0.3249
  388POPI   C2B 6106   9.072  12.326   8.633 -0.4008 -0.0209 -0.0510
  388POPI   C3B 6107   9.093  12.234   8.226  0.5531  0.1277  0.3508
  388POPI   C4B 6108   9.159  12.356   7.789 -0.3224  0.0636 -0.3051
  389POPI    C1 6109  18.594  17.073  10.109 -0.0840  0.0149  0.0961
  389POPI    C2 6110  18.746  16.724   9.986 -0.0578  0.0613 -0.0041
  389POPI    C3 6111  18.446  16.729  10.250 -0.0237 -0.0357  0.0371
  389POPI   PO4 6112  18.563  17.235   9.910  0.1595 -0.0692 -0.0459
  389POPI   GL1 6113  18.467  17.410   9.506  0.0368  0.1162 -0.0399
  389POPI   GL2 6114  18.788  17.422   9.494 -0.1379  0.0702 -0.1572
  389POPI   C1A 6115  18.263  17.666   9.287  0.1244  0.0065 -0.1543
  389POPI   D2A 6116  18.277  17.669   8.839 -0.1509 -0.0941 -0.1832
  389POPI   C3A 6117  18.248  17.484   8.508  0.0586 -0.0068 -0.1563
  389POPI   C4A 6118  18.366  17.497   8.100 -0.0413  0.0834 -0.1387
  389POPI   C1B 6119  19.096  17.312   9.302 -0.0753  0.3472  0.2030
  389POPI   C2B 6120  19.108  17.331   8.926  0.0863  0.1979  0.4727
  389POPI   C3B 6121  19.208  17.533   8.549  0.0867  0.0143  0.1169
  389POPI   C4B 6122  19.343  17.506   8.108  0.0179 -0.2429  0.0344
  390POPI    C1 6123   7.561  16.454  10.269 -0.0763 -0.2621 -0.1951
  390POPI    C2 6124   7.800  16.171  10.419  0.2761  0.1253 -0.0058
  390POPI    C3 6125   7.519  16.338  10.649 -0.0095 -0.1453 -0.1515
  390POPI   PO4 6126   7.763  16.468  10.029  0.0176 -0.0073 -0.2482
  390POPI   GL1 6127   8.017  16.194   9.799 -0.0041  0.1897 -0.4007
  390POPI   GL2 6128   7.844  16.046   9.575  0.1174 -0.3871 -0.0243
  390POPI   C1A 6129   8.186  16.443   9.451 -0.0667 -0.0566  0.1438
  390POPI   D2A 6130   8.049  16.735   9.439 -0.0237 -0.0895 -0.0411
  390POPI   C3A 6131   7.882  16.822   9.074 -0.2873  0.4354  0.4865
  390POPI   C4A 6132   7.914  16.660   8.687 -0.2550  0.0236  0.0816
  390POPI   C1B 6133   7.782  16.186   9.166 -0.0498 -0.1380 -0.1737
  390POPI   C2B 6134   7.838  16.121   8.775  0.1174  0.0843  0.0191
  390POPI   C3B 6135   7.881  16.140   8.315 -0.0337 -0.2687  0.2018
  390POPI   C4B 6136   7.737  16.128   7.827 -0.0048  0.1479 -0.0430
  391POPI    C1 6137  15.621  10.373  10.229  0.0498  0.1047  0.0150
  391POPI    C2 6138  15.775  10.587   9.927  0.0245  0.2715  0.1192
  391POPI    C3 6139  15.792  10.727  10.301  0.1851 -0.0002  0.2165
  391POPI   PO4 6140  15.344  10.260  10.045  0.1885  0.1713  0.2308
  391POPI   GL1 6141  15.125  10.194   9.755  0.1494  0.0576 -0.3115
  391POPI   GL2 6142  15.000  10.403   9.630 -0.1113 -0.0847 -0.1194
  391POPI   C1A 6143  15.285   9.862   9.490 -0.2331 -0.2180  0.0877
  391POPI   D2A 6144  15.625   9.635   9.281  0.0176  0.2485  0.0406
  391POPI   C3A 6145  16.015   9.694   9.043  0.1654  0.2705  0.1796
  391POPI   C4A 6146  16.016   9.737   8.595 -0.1553 -0.1164  0.0083
  391POPI   C1B 6147  15.202  10.328   9.196  0.1643 -0.1199  0.0429
  391POPI   C2B 6148  15.153  10.138   8.815 -0.0680 -0.0228 -0.0514
  391POPI   C3B 6149  15.184  10.165   8.321 -0.1186 -0.1301 -0.0825
  391POPI   C4B 6150  15.362  10.406   7.996  0.1828 -0.1349 -0.0873
  392POPI    C1 6151   8.418   2.245  10.938  0.0813  0.0224 -0.0903
  392POPI    C2 6152   8.711   2.013  11.081  0.1018  0.0917 -0.0193
  392POPI    C3 6153   8.330   1.940  11.181  0.1327  0.2555  0.2269
  392POPI   PO4 6154   8.479   2.366  10.668 -0.1692 -0.3122 -0.0201
  392POPI   GL1 6155   8.423   2.530  10.229  0.2249 -0.0278 -0.5674
  392POPI   GL2 6156   8.722   2.688  10.162 -0.0737  0.0074 -0.0767
  392POPI   C1A 6157   8.483   2.337   9.806  0.1635 -0.2087 -0.1165
  392POPI   D2A 6158   8.322   2.377   9.472 -0.0352  0.0691 -0.0926
  392POPI   C3A 6159   8.155   2.324   9.014 -0.4303 -0.2547  0.1932
  392POPI   C4A 6160   7.838   2.264   8.709 -0.0110  0.2055 -0.2655
  392POPI   C1B 6161   8.688   2.776   9.713 -0.0106 -0.2483 -0.0404
  392POPI   C2B 6162   8.822   3.062   9.359  0.2866 -0.1838 -0.0870
  392POPI   C3B 6163   8.738   3.122   8.904  0.1260  0.1729 -0.0301
  392POPI   C4B 6164   8.324   3.222   8.627 -0.1126  0.2017 -0.1122
  393POPI    C1 6165  14.623   3.266   9.976  0.0317 -0.1197  0.1165
  393POPI    C2 6166  14.330   3.190  10.237 -0.0401 -0.2475 -0.0000
  393POPI    C3 6167  14.686   3.318  10.367 -0.1887  0.0406  0.1323
  393POPI   PO4 6168  14.557   3.480   9.807 -0.2121  0.0341 -0.1838
  393POPI   GL1 6169  14.262   3.582   9.475  0.2523 -0.1420 -0.1848
  393POPI   GL2 6170  14.413   3.659   9.244  0.0987 -0.0799 -0.2858
  393POPI   C1A 6171  13.923   3.696   9.223 -0.1091 -0.6447 -0.1963
  393POPI   D2A 6172  14.107   3.960   8.838 -0.1056  0.0242  0.1150
  393POPI   C3A 6173  14.307   4.384   8.984 -0.1797 -0.1171 -0.3386
  393POPI   C4A 6174  14.552   4.669   8.700  0.1358 -0.1171  0.1148
  393POPI   C1B 6175  14.317   3.516   8.842  0.1295  0.0062  0.0451
  393POPI   C2B 6176  14.261   3.573   8.468 -0.2135  0.0760 -0.1551
  393POPI   C3B 6177  14.211   3.336   8.190 -0.0598 -0.2333  0.0895
  393POPI   C4B 6178  14.109   3.093   7.916 -0.0644 -0.0544 -0.3094
  394POPI    C1 6179   1.554   3.936  10.436  0.1501 -0.1154  0.2633
  394POPI    C2 6180   1.235   3.905  10.675  0.1129  0.0002  0.2295
  394POPI    C3 6181   1.448   4.244  10.669 -0.1528  0.1672 -0.2312
  394POPI   PO4 6182   1.571   3.774  10.135 -0.2538 -0.0484 -0.2824
  394POPI   GL1 6183   1.597   3.966   9.747 -0.1519  0.1202 -0.2165
  394POPI   GL2 6184   1.720   3.686   9.628 -0.0521  0.0803  0.0806
  394POPI   C1A 6185   1.886   4.092   9.461  0.3606  0.0725 -0.0466
  394POPI   D2A 6186   2.046   3.982   9.019  0.0642 -0.0139 -0.2895
  394POPI   C3A 6187   1.857   3.711   8.739  0.1544  0.0208  0.1297
  394POPI   C4A 6188   1.845   3.494   8.345  0.0139  0.0609 -0.2478
  394POPI   C1B 6189   1.781   3.409   9.314 -0.3074  0.2796  0.1999
  394POPI   C2B 6190   1.814   3.208   8.933 -0.1523  0.1307  0.0775
  394POPI   C3B 6191   1.993   2.955   8.636  0.1335 -0.0671 -0.2009
  394POPI   C4B 6192   2.306   2.895   8.410 -0.0615 -0.0449 -0.0434
  395POPI    C1 6193  10.272  16.355   9.577 -0.0002  0.1404 -0.1963
  395POPI    C2 6194  10.149  16.332   9.956  0.0512  0.2165 -0.1747
  395POPI    C3 6195  10.032  16.056   9.691  0.1345  0.0797 -0.0700
  395POPI   PO4 6196  10.515  16.304   9.523  0.3346  0.2050 -0.1137
  395POPI   GL1 6197  10.681  16.172   9.164 -0.1542  0.0767 -0.0668
  395POPI   GL2 6198  10.592  15.973   8.956  0.2264  0.0897 -0.1139
  395POPI   C1A 6199  10.684  16.500   8.888  0.1584 -0.1084 -0.1868
  395POPI   D2A 6200  10.936  16.663   8.608 -0.2912 -0.0429 -0.0704
  395POPI   C3A 6201  10.769  16.502   8.245  0.0614 -0.0860 -0.1367
  395POPI   C4A 6202  10.528  16.432   7.875 -0.0701  0.2296 -0.1319
  395POPI   C1B 6203  10.478  15.968   8.608 -0.4054 -0.1510 -0.1107
  395POPI   C2B 6204  10.514  15.974   8.141 -0.2359 -0.0688 -0.0661
  395POPI   C3B 6205  10.607  15.827   7.814  0.0802  0.1651  0.2298
  395POPI   C4B 6206  10.919  15.888   7.501 -0.0382 -0.0456 -0.1599
  396POPI    C1 6207  16.866  14.039  10.351 -0.0302 -0.1596 -0.0266
  396POPI    C2 6208  17.220  13.924  10.204  0.1056  0.1544  0.0475
  396POPI    C3 6209  17.067  13.739  10.524  0.1780 -0.0160 -0.0154
  396POPI   PO4 6210  16.872  14.267  10.155  0.1439 -0.0128  0.0649
  396POPI   GL1 6211  16.813  14.244   9.712 -0.0822 -0.2888  0.0535
  396POPI   GL2 6212  16.815  14.029   9.547 -0.1335 -0.0054  0.1985
  396POPI   C1A 6213  16.419  14.265   9.477  0.2955  0.2569 -0.2483
  396POPI   D2A 6214  16.313  14.525   9.243 -0.2758  0.0626 -0.1139
  396POPI   C3A 6215  16.456  14.307   8.944  0.1122 -0.2883 -0.0109
  396POPI   C4A 6216  16.398  14.331   8.520  0.0696 -0.6061  0.2215
  396POPI   C1B 6217  16.805  13.917   9.212  0.0749 -0.8188  0.3807
  396POPI   C2B 6218  16.882  13.980   8.858  0.3413  0.0639  0.1501
  396POPI   C3B 6219  16.860  14.111   8.475  0.0984 -0.0528 -0.0432
  396POPI   C4B 6220  16.674  14.141   8.002 -0.2865 -0.1151 -0.2662
  397POPI    C1 6221   6.077  11.046  10.216 -0.0969 -0.3341 -0.0954
  397POPI    C2 6222   6.165  11.063  10.606  0.0943  0.2283 -0.1535
  397POPI    C3 6223   5.826  10.889  10.485 -0.0286  0.1606  0.2719
  397POPI   PO4 6224   6.101  11.332  10.028  0.0795  0.0512 -0.1366
  397POPI   GL1 6225   6.244  11.615   9.705 -0.1534 -0.1555  0.3021
  397POPI   GL2 6226   6.110  11.908   9.680 -0.1981 -0.2340 -0.0308
  397POPI   C1A 6227   6.399  11.857   9.270  0.0987  0.1182 -0.1004
  397POPI   D2A 6228   6.673  12.162   9.254  0.2936  0.3379  0.1411
  397POPI   C3A 6229   6.712  12.392   8.964 -0.3233  0.0592  0.2295
  397POPI   C4A 6230   6.666  12.398   8.619  0.3953 -0.0640 -0.4812
  397POPI   C1B 6231   6.100  12.213   9.381  0.0714  0.0674  0.3638
  397POPI   C2B 6232   6.195  12.206   8.927  0.0962  0.0780 -0.3285
  397POPI   C3B 6233   6.190  12.262   8.459 -0.0584  0.0995 -0.2514
  397POPI   C4B 6234   5.956  12.472   8.127 -0.0629 -0.3410 -0.0251
  398POPI    C1 6235  10.281   7.200  10.064  0.3080 -0.0063 -0.1259
  398POPI    C2 6236   9.953   6.986  10.143  0.2945  0.0643  0.0133
  398POPI    C3 6237  10.188   7.108  10.442  0.3104  0.2303 -0.0660
  398POPI   PO4 6238  10.176   7.396   9.753  0.3278  0.1681 -0.1503
  398POPI   GL1 6239  10.099   7.504   9.353  0.0995 -0.1419 -0.2916
  398POPI   GL2 6240  10.386   7.482   9.180 -0.0235 -0.0453 -0.3843
  398POPI   C1A 6241   9.816   7.559   9.206 -0.0634 -0.0132  0.2079
  398POPI   D2A 6242   9.585   7.277   8.959  0.1014 -0.3366 -0.0439
  398POPI   C3A 6243   9.298   7.392   8.536 -0.0568 -0.1465  0.2483
  398POPI   C4A 6244   9.178   7.435   8.152  0.3415 -0.0526  0.1539
  398POPI   C1B 6245  10.107   7.417   8.827 -0.2005 -0.1532 -0.2397
  398POPI   C2B 6246   9.791   7.310   8.423 -0.0947 -0.0815 -0.0671
  398POPI   C3B 6247   9.510   7.088   8.071  0.0477  0.1001 -0.3169
  398POPI   C4B 6248   9.389   6.712   7.638 -0.0641  0.0101  0.2596
  399POPI    C1 6249  16.309  18.060  10.288  0.2858  0.1191  0.2195
  399POPI    C2 6250  15.972  18.152  10.482  0.1513 -0.1739  0.1292
  399POPI    C3 6251  16.287  18.396  10.503 -0.1634  0.2592 -0.0330
  399POPI   PO4 6252  16.298  17.734  10.328  0.0611 -0.0928  0.0089
  399POPI   GL1 6253  16.390  17.470   9.968  0.1873  0.4022 -0.0110
  399POPI   GL2 6254  16.699  17.317  10.073  0.1434  0.0108  0.0061
  399POPI   C1A 6255  16.463  17.093   9.721  0.1083 -0.0240 -0.1230
  399POPI   D2A 6256  16.224  16.973   9.350 -0.0642  0.0119 -0.1154
  399POPI   C3A 6257  16.304  17.203   8.949 -0.2143  0.2048  0.1217
  399POPI   C4A 6258  16.396  17.029   8.621 -0.2141 -0.1291  0.2072
  399POPI   C1B 6259  16.863  17.309   9.659  0.1259 -0.2941 -0.0706
  399POPI   C2B 6260  16.728  17.282   9.166  0.0027  0.2328 -0.1257
  399POPI   C3B 6261  17.038  17.402   8.883 -0.0869  0.0330 -0.2781
  399POPI   C4B 6262  17.301  17.252   8.569  0.2561 -0.0652  0.4239
  400POPI    C1 6263  12.992   5.875   9.885  0.1197  0.0037 -0.2022
  400POPI    C2 6264  12.639   5.957   9.716 -0.1223  0.0386  0.3040
  400POPI    C3 6265  12.788   5.586   9.698 -0.1795  0.0249  0.0840
  400POPI   PO4 6266  13.123   6.053   9.826 -0.1795  0.1363 -0.1015
  400POPI   GL1 6267  13.262   6.260   9.446 -0.0456  0.3806 -0.0554
  400POPI   GL2 6268  13.103   6.137   9.311 -0.0081 -0.0291  0.0647
  400POPI   C1A 6269  13.516   5.880   9.135  0.1101  0.0659  0.1878
  400POPI   D2A 6270  13.243   5.717   8.935 -0.1078  0.1174  0.0263
  400POPI   C3A 6271  13.128   5.794   8.529  0.1071  0.1489 -0.3651
  400POPI   C4A 6272  13.167   5.859   8.105 -0.0512  0.1368  0.0381
  400POPI   C1B 6273  13.197   6.187   8.804  0.0902  0.0315 -0.0345
  400POPI   C2B 6274  13.316   6.289   8.361  0.0590  0.0643 -0.2981
  400POPI   C3B 6275  13.235   6.362   7.948  0.1470 -0.0668  0.1465
  400POPI   C4B 6276  13.383   6.152   7.622 -0.2148 -0.1236  0.0918
  401POPI    C1 6277  15.875   9.586  10.476  0.1096  0.1633  0.1183
  401POPI    C2 6278  16.092   9.590  10.812  0.0497  0.0971  0.1581
  401POPI    C3 6279  15.813   9.309  10.757  0.1351  0.0406  0.0042
  401POPI   PO4 6280  16.117   9.716  10.285 -0.0520  0.2008 -0.0649
  401POPI   GL1 6281  16.082   9.902   9.955 -0.2382 -0.0053  0.2011
  401POPI   GL2 6282  16.010  10.176   9.946 -0.2704  0.0280 -0.1142
  401POPI   C1A 6283  16.110   9.712   9.535  0.2908  0.4344  0.2174
  401POPI   D2A 6284  15.993   9.311   9.398  0.0134 -0.0138 -0.0846
  401POPI   C3A 6285  15.785   9.200   9.029  0.0057 -0.0034 -0.0487
  401POPI   C4A 6286  15.893   9.242   8.589  0.1943 -0.1504 -0.2951
  401POPI   C1B 6287  15.757  10.161   9.496 -0.1170  0.0952 -0.1499
  401POPI   C2B 6288  15.726  10.066   9.140 -0.0742 -0.3683 -0.2753
  401POPI   C3B 6289  15.680  10.075   8.780 -0.1689 -0.0485  0.2708
  401POPI   C4B 6290  15.661  10.043   8.452 -0.1166  0.1445 -0.0079
  402POPI    C1 6291   7.688   9.505  10.156 -0.0610 -0.1963  0.2060
  402POPI    C2 6292   7.495   9.169  10.258  0.0459 -0.3133  0.0273
  402POPI    C3 6293   7.471   9.492  10.493  0.0855 -0.5002  0.2926
  402POPI   PO4 6294   7.693   9.538   9.815 -0.0884 -0.0484  0.0075
  402POPI   GL1 6295   7.614   9.615   9.349 -0.0367  0.0208  0.1491
  402POPI   GL2 6296   7.887   9.746   9.159 -0.1040  0.1423  0.0337
  402POPI   C1A 6297   7.246   9.517   9.114 -0.3043 -0.0755 -0.0048
  402POPI   D2A 6298   7.128   9.407   8.679 -0.2823 -0.4229 -0.1283
  402POPI   C3A 6299   7.018   9.306   8.261  0.2281  0.2736  0.1007
  402POPI   C4A 6300   6.724   9.218   7.930 -0.0960 -0.0866  0.0931
  402POPI   C1B 6301   7.682   9.543   8.825  0.1473  0.1291 -0.0486
  402POPI   C2B 6302   7.579   9.527   8.397 -0.0790 -0.1384 -0.0560
  402POPI   C3B 6303   7.425   9.594   8.061  0.1285 -0.4701 -0.0659
  402POPI   C4B 6304   7.273   9.415   7.721 -0.1394 -0.0007 -0.1295
  403POPI    C1 6305   5.004   7.510   9.874  0.1659 -0.0323 -0.0487
  403POPI    C2 6306   4.886   7.265   9.582 -0.1279  0.0544 -0.0057
  403POPI    C3 6307   5.241   7.209   9.758 -0.2648 -0.4510  0.1274
  403POPI   PO4 6308   4.847   7.742   9.786 -0.1579 -0.1473 -0.0885
  403POPI   GL1 6309   4.970   7.788   9.453  0.1506  0.0018 -0.1727
  403POPI   GL2 6310   5.317   7.686   9.328  0.2725  0.3230  0.0610
  403POPI   C1A 6311   4.976   8.013   9.035  0.2898 -0.0690  0.0685
  403POPI   D2A 6312   5.245   7.803   8.720  0.0973 -0.1601  0.0365
  403POPI   C3A 6313   5.394   7.762   8.288 -0.3079 -0.0369  0.0301
  403POPI   C4A 6314   5.336   7.771   7.773 -0.0575 -0.3924 -0.2766
  403POPI   C1B 6315   5.527   7.519   8.967  0.2102  0.1858  0.1707
  403POPI   C2B 6316   5.578   7.143   8.724 -0.0266  0.0713  0.0798
  403POPI   C3B 6317   5.361   7.161   8.398  0.2426 -0.3111 -0.1383
  403POPI   C4B 6318   5.415   7.362   8.056 -0.1999 -0.1679 -0.0494
  404POPI    C1 6319  18.283  11.462  10.126  0.2202 -0.0644 -0.0439
  404POPI    C2 6320  18.035  11.306  10.399 -0.1482  0.1109 -0.2710
  404POPI    C3 6321  18.313  11.571  10.510 -0.1800  0.0497 -0.0399
  404POPI   PO4 6322  18.110  11.575   9.980 -0.0328  0.4118  0.1489
  404POPI   GL1 6323  17.958  11.801   9.585 -0.2031  0.3068  0.0912
  404POPI   GL2 6324  17.986  11.398   9.531  0.2394  0.1106  0.0348
  404POPI   C1A 6325  18.090  11.813   9.224 -0.2653  0.0109 -0.3819
  404POPI   D2A 6326  18.148  11.587   8.792  0.0339  0.0513  0.0514
  404POPI   C3A 6327  17.989  11.591   8.402 -0.2795 -0.0548  0.1475
  404POPI   C4A 6328  18.031  11.343   7.909  0.2011 -0.0544  0.3875
  404POPI   C1B 6329  17.893  11.284   9.176 -0.0645 -0.1339  0.2547
  404POPI   C2B 6330  17.709  11.361   8.746  0.0321 -0.0244  0.2246
  404POPI   C3B 6331  17.626  11.241   8.263 -0.0063  0.6047  0.1181
  404POPI   C4B 6332  17.684  10.950   7.904  0.0746 -0.1719  0.0726
  405POPI    C1 6333   8.237   4.362  10.478  0.0163 -0.1057  0.0771
  405POPI    C2 6334   8.575   4.308  10.684  0.1144  0.1561 -0.0112
  405POPI    C3 6335   8.513   4.651  10.488 -0.0694 -0.0085 -0.2463
  405POPI   PO4 6336   8.233   4.129  10.311 -0.1880  0.0271  0.3756
  405POPI   GL1 6337   8.039   3.970   9.925  0.1039 -0.1748  0.0732
  405POPI   GL2 6338   8.315   3.953   9.716  0.1623  0.0062 -0.2199
  405POPI   C1A 6339   7.914   4.417   9.790  0.2988  0.1370 -0.3728
  405POPI   D2A 6340   7.709   4.641   9.446 -0.3410 -0.2593  0.2260
  405POPI   C3A 6341   7.647   4.502   9.036 -0.0177  0.3694  0.0935
  405POPI   C4A 6342   7.658   4.424   8.641  0.2095  0.3231  0.0385
  405POPI   C1B 6343   8.479   3.833   9.272  0.2648 -0.1406  0.1028
  405POPI   C2B 6344   8.233   3.848   8.943  0.2372 -0.3055  0.3609
  405POPI   C3B 6345   7.794   4.033   8.996  0.0274 -0.3108 -0.1111
  405POPI   C4B 6346   7.566   4.033   9.375  0.0585 -0.0735  0.1691
  406POPI    C1 6347   6.341  12.422  10.598 -0.2601  0.1584  0.1177
  406POPI    C2 6348   6.193  12.051  10.581  0.0288  0.0428  0.0621
  406POPI    C3 6349   6.130  12.277  10.905 -0.1970 -0.0321  0.0723
  406POPI   PO4 6350   6.542  12.360  10.437 -0.3092 -0.2731 -0.0631
  406POPI   GL1 6351   6.719  12.533   9.990  0.0790  0.4156  0.1156
  406POPI   GL2 6352   6.728  12.318   9.700 -0.0268  0.2490 -0.0869
  406POPI   C1A 6353   6.835  12.868   9.754 -0.0002 -0.1198  0.2229
  406POPI   D2A 6354   6.733  13.041   9.329 -0.2743 -0.0943  0.2607
  406POPI   C3A 6355   6.948  13.028   9.045  0.1491 -0.4446 -0.0507
  406POPI   C4A 6356   6.778  12.902   8.626 -0.2823  0.6553 -0.0544
  406POPI   C1B 6357   6.995  12.508   9.375 -0.0923  0.0559 -0.3544
  406POPI   C2B 6358   7.277  12.645   9.068 -0.0946  0.1010  0.0142
  406POPI   C3B 6359   7.203  12.622   8.513  0.2553 -0.0813  0.1321
  406POPI   C4B 6360   6.926  12.482   8.213 -0.2666  0.2494 -0.0413
  407POPI    C1 6361  17.111   9.807  10.061  0.1353  0.0092  0.2807
  407POPI    C2 6362  16.863  10.009  10.302 -0.1366  0.2522 -0.1876
  407POPI    C3 6363  17.252  10.102  10.291 -0.1041  0.1808  0.2119
  407POPI   PO4 6364  17.030   9.821   9.862  0.1625 -0.1810  0.1683
  407POPI   GL1 6365  17.110   9.726   9.431 -0.1064 -0.1075  0.0231
  407POPI   GL2 6366  17.063  10.103   9.444 -0.2950  0.1275 -0.2624
  407POPI   C1A 6367  17.172   9.800   8.970 -0.0648  0.0669  0.0946
  407POPI   D2A 6368  17.035  10.019   8.597 -0.0374 -0.1338  0.0333
  407POPI   C3A 6369  17.200  10.440   8.724 -0.1014 -0.0471 -0.0862
  407POPI   C4A 6370  17.356  10.458   9.182  0.0175  0.0944 -0.0701
  407POPI   C1B 6371  16.829  10.236   9.051 -0.1034 -0.0982 -0.3184
  407POPI   C2B 6372  16.672  10.363   8.689  0.0883  0.0923  0.1430
  407POPI   C3B 6373  16.820  10.448   8.411 -0.0354 -0.0212 -0.1250
  407POPI   C4B 6374  17.131  10.340   8.228  0.0346 -0.0292 -0.0511
  408POPI    C1 6375  13.507  13.219  10.169  0.3057 -0.1559 -0.0856
  408POPI    C2 6376  13.687  12.909  10.347  0.0753 -0.1644  0.1383
  408POPI    C3 6377  13.306  12.996  10.433  0.1278  0.1632  0.0534
  408POPI   PO4 6378  13.660  13.184   9.944 -0.2122 -0.1885 -0.0644
  408POPI   GL1 6379  13.624  13.061   9.490  0.1929 -0.3596  0.1499
  408POPI   GL2 6380  13.761  13.349   9.433 -0.1142  0.0360 -0.3233
  408POPI   C1A 6381  13.851  12.815   9.318 -0.0631  0.1215 -0.1183
  408POPI   D2A 6382  14.356  12.777   9.243 -0.0445 -0.0827 -0.0946
  408POPI   C3A 6383  14.396  12.981   8.781 -0.0925  0.0072  0.0440
  408POPI   C4A 6384  14.182  13.268   8.466 -0.2101  0.0628 -0.0709
  408POPI   C1B 6385  13.681  13.527   9.135  0.0991 -0.0487 -0.1731
  408POPI   C2B 6386  13.890  13.617   8.742  0.2808  0.3120  0.1463
  408POPI   C3B 6387  13.864  13.610   8.253  0.1797 -0.0992  0.0254
  408POPI   C4B 6388  13.644  13.398   7.962  0.2959  0.2468 -0.0902
  409POPI    C1 6389  14.012   2.617  10.308  0.0509 -0.0558  0.0388
  409POPI    C2 6390  14.064   2.891  10.595 -0.0572 -0.0209  0.0257
  409POPI    C3 6391  14.172   2.512  10.659  0.2054  0.0477  0.0006
  409POPI   PO4 6392  14.064   2.744  10.094 -0.2890 -0.0568 -0.0726
  409POPI   GL1 6393  14.014   2.522   9.772 -0.0199 -0.0752  0.2158
  409POPI   GL2 6394  14.299   2.375   9.661 -0.1495  0.0509 -0.2288
  409POPI   C1A 6395  14.060   2.668   9.345 -0.3012  0.0653  0.0736
  409POPI   D2A 6396  13.912   2.571   8.915 -0.4132 -0.3840 -0.0308
  409POPI   C3A 6397  13.725   2.356   8.622  0.2254  0.1567 -0.0386
  409POPI   C4A 6398  13.349   2.066   8.687 -0.4371 -0.1890  0.2308
  409POPI   C1B 6399  14.070   2.152   9.370  0.3323  0.1592  0.2146
  409POPI   C2B 6400  13.852   1.934   9.036 -0.2468 -0.1802 -0.1166
  409POPI   C3B 6401  13.889   1.828   8.560 -0.0495  0.0129  0.2146
  409POPI   C4B 6402  13.963   1.528   8.211  0.1027 -0.0789  0.0237
  410POPI    C1 6403   7.760   0.348  10.700 -0.1197  0.3374 -0.0089
  410POPI    C2 6404   7.506   0.104  10.511  0.0349 -0.0958  0.3268
  410POPI    C3 6405   7.539   0.486  10.397 -0.1715 -0.2397 -0.2459
  410POPI   PO4 6406   7.948   0.242  10.666 -0.1386  0.0287 -0.0639
  410POPI   GL1 6407   8.089   0.456  10.319 -0.3182 -0.2186  0.0905
  410POPI   GL2 6408   8.136   0.598  10.175 -0.0397  0.0552 -0.0335
  410POPI   C1A 6409   7.788   0.308   9.927  0.1392 -0.3628  0.1571
  410POPI   D2A 6410   7.452  -0.006   9.638  0.0331 -0.2543 -0.2120
  410POPI   C3A 6411   7.468  -0.157   9.254 -0.2926  0.1628  0.0667
  410POPI   C4A 6412   7.541  -0.077   8.814 -0.1730 -0.1201  0.1906
  410POPI   C1B 6413   7.792   0.859  10.034 -0.0655 -0.2391 -0.3047
  410POPI   C2B 6414   7.407   0.670   9.945  0.3233 -0.2678  0.0883
  410POPI   C3B 6415   6.995   0.861   9.784  0.1115 -0.1517 -0.2354
  410POPI   C4B 6416   6.611   0.863   9.579  0.0048  0.0225 -0.1175
  411POPI    C1 6417   3.903   1.240  10.865  0.2329 -0.0847 -0.5366
  411POPI    C2 6418   4.170   1.536  10.901 -0.1628  0.2100  0.1886
  411POPI    C3 6419   4.261   1.168  11.027 -0.0240  0.2592  0.2331
  411POPI   PO4 6420   3.810   1.316  10.568  0.0077 -0.0569 -0.1980
  411POPI   GL1 6421   3.936   1.081  10.227  0.1147  0.2680 -0.1040
  411POPI   GL2 6422   4.263   1.077  10.298  0.1610 -0.3919  0.0868
  411POPI   C1A 6423   4.017   1.361   9.948 -0.3562 -0.1458 -0.1562
  411POPI   D2A 6424   3.847   1.632   9.652  0.0213  0.0603 -0.2414
  411POPI   C3A 6425   3.860   1.509   9.259  0.2648  0.0119  0.1541
  411POPI   C4A 6426   3.824   1.492   8.748  0.0045  0.3432 -0.2436
  411POPI   C1B 6427   4.616   1.265  10.064  0.2490  0.1380 -0.2472
  411POPI   C2B 6428   4.809   1.144   9.734  0.0065  0.0821 -0.2983
  411POPI   C3B 6429   4.733   1.081   9.309  0.0980 -0.2714 -0.1376
  411POPI   C4B 6430   5.004   1.180   8.931 -0.0625 -0.1878 -0.4098
  412POPI    C1 6431   6.154   1.916  10.577  0.0653  0.2512  0.0665
  412POPI    C2 6432   6.005   2.138  10.874  0.1403  0.0397  0.2653
  412POPI    C3 6433   6.052   1.744  10.923  0.0609 -0.0136 -0.0639
  412POPI   PO4 6434   6.292   2.175  10.494  0.4913 -0.1409 -0.2311
  412POPI   GL1 6435   6.287   2.486  10.147 -0.0705  0.2795  0.0650
  412POPI   GL2 6436   6.152   2.290   9.925 -0.3314  0.0721 -0.1549
  412POPI   C1A 6437   6.557   2.665   9.760  0.1679 -0.2434 -0.3632
  412POPI   D2A 6438   6.466   2.451   9.394  0.2035 -0.0576 -0.0386
  412POPI   C3A 6439   6.436   2.585   8.914 -0.3178 -0.0396  0.0433
  412POPI   C4A 6440   6.386   2.551   8.493  0.1605  0.1949 -0.0086
  412POPI   C1B 6441   6.352   2.012   9.679 -0.2852  0.0319  0.2986
  412POPI   C2B 6442   6.274   1.964   9.274  0.1432 -0.1716  0.0751
  412POPI   C3B 6443   6.294   2.024   8.849 -0.0497 -0.0558 -0.1462
  412POPI   C4B 6444   6.280   1.907   8.416 -0.0760 -0.0403  0.0797
  413POPI    C1 6445  10.783  10.124  10.001 -0.4087  0.2485  0.0683
  413POPI    C2 6446  10.781  10.017  10.387  0.2421  0.1618  0.0575
  413POPI    C3 6447  10.845  10.399  10.285  0.0259  0.1927  0.0338
  413POPI   PO4 6448  11.055   9.826   9.854  0.3151  0.0189  0.1548
  413POPI   GL1 6449  11.371   9.929   9.500 -0.1840 -0.0914 -0.1411
  413POPI   GL2 6450  11.380   9.747   9.309 -0.0946  0.2916  0.0327
  413POPI   C1A 6451  11.378  10.216   9.076 -0.0577  0.2484 -0.0641
  413POPI   D2A 6452  11.311  10.437   8.628  0.0581  0.0459 -0.0492
  413POPI   C3A 6453  10.955  10.399   8.260 -0.2560  0.0106 -0.2054
  413POPI   C4A 6454  10.843  10.491   7.835  0.2453  0.0870 -0.0305
  413POPI   C1B 6455  11.320   9.566   8.872  0.1697 -0.0500  0.0685
  413POPI   C2B 6456  11.387   9.389   8.502 -0.1292 -0.2053  0.0831
  413POPI   C3B 6457  11.766   9.234   8.244 -0.2535 -0.1855 -0.0604
  413POPI   C4B 6458  11.734   8.783   8.080 -0.1934  0.2440 -0.0443
  414POPI    C1 6459  14.784  13.211  10.385 -0.1022  0.2002  0.0026
  414POPI    C2 6460  14.458  13.169  10.614  0.1670 -0.2714  0.3170
  414POPI    C3 6461  14.745  13.427  10.720  0.0270 -0.0602  0.1895
  414POPI   PO4 6462  14.656  13.172  10.167  0.2885 -0.1953 -0.1691
  414POPI   GL1 6463  14.535  13.055   9.768 -0.0223 -0.2439  0.2205
  414POPI   GL2 6464  14.821  12.856   9.600  0.2828 -0.0067  0.1566
  414POPI   C1A 6465  14.196  13.169   9.525  0.4492  0.1333 -0.2867
  414POPI   D2A 6466  14.074  13.271   9.107 -0.2114  0.2038 -0.0110
  414POPI   C3A 6467  13.909  13.086   8.864  0.1806  0.3243 -0.0411
  414POPI   C4A 6468  13.755  13.105   8.461  0.1667 -0.4290 -0.0072
  414POPI   C1B 6469  14.839  12.853   9.200  0.0492 -0.2842 -0.1428
  414POPI   C2B 6470  14.968  12.804   8.827  0.1020 -0.2001 -0.1851
  414POPI   C3B 6471  15.174  12.959   8.466  0.0897  0.2704  0.0928
  414POPI   C4B 6472  15.122  13.218   8.097  0.1844  0.0993 -0.2690
  415POPI    C1 6473  15.846   5.255  10.054  0.0512  0.1636  0.1059
  415POPI    C2 6474  15.809   5.276  10.452  0.0283  0.1150  0.1064
  415POPI    C3 6475  15.486   5.312  10.219  0.0517  0.2167  0.0890
  415POPI   PO4 6476  15.993   4.958   9.941  0.1269  0.1527  0.1688
  415POPI   GL1 6477  15.900   4.784   9.551 -0.1034  0.0255  0.0100
  415POPI   GL2 6478  15.896   4.591   9.268  0.2672 -0.1498  0.0805
  415POPI   C1A 6479  16.046   5.029   9.192  0.0380 -0.3844  0.3979
  415POPI   D2A 6480  16.306   4.934   8.850  0.1202  0.0938 -0.0001
  415POPI   C3A 6481  16.064   4.927   8.562  0.3272 -0.0562 -0.0676
  415POPI   C4A 6482  15.712   4.694   8.587  0.2884  0.5862  0.3333
  415POPI   C1B 6483  16.116   4.381   8.921  0.0979  0.0005  0.2365
  415POPI   C2B 6484  16.185   4.438   8.467 -0.1804  0.3074  0.1010
  415POPI   C3B 6485  16.466   4.541   8.159 -0.1253 -0.0725  0.0382
  415POPI   C4B 6486  16.536   4.768   7.679 -0.0417  0.2078 -0.1845
  416POPI    C1 6487   7.400   5.705  10.244 -0.1019 -0.0048 -0.0012
  416POPI    C2 6488   7.765   5.566  10.333 -0.0700  0.0188 -0.0942
  416POPI    C3 6489   7.658   5.935  10.446 -0.1073 -0.0310  0.0357
  416POPI   PO4 6490   7.230   5.540  10.133 -0.1991  0.1207  0.1097
  416POPI   GL1 6491   7.111   5.701   9.750  0.0112  0.1726  0.3393
  416POPI   GL2 6492   7.302   5.895   9.551 -0.0063 -0.0997 -0.1450
  416POPI   C1A 6493   6.961   5.370   9.447  0.2691  0.0423  0.0004
  416POPI   D2A 6494   6.843   5.446   9.023 -0.0174  0.1585 -0.2017
  416POPI   C3A 6495   6.696   5.097   8.664 -0.0674 -0.1098  0.0259
  416POPI   C4A 6496   6.396   4.976   8.368  0.2777 -0.0646  0.0367
  416POPI   C1B 6497   7.298   5.938   9.160  0.2216  0.1582 -0.2340
  416POPI   C2B 6498   7.390   6.123   8.874  0.4525  0.3193  0.0615
  416POPI   C3B 6499   7.248   6.244   8.489 -0.3280 -0.1294 -0.1545
  416POPI   C4B 6500   7.200   6.116   7.999 -0.2130  0.1117  0.1034
  417POPI    C1 6501  15.995   3.039  10.214  0.0375  0.0796 -0.0653
  417POPI    C2 6502  16.176   3.333  10.415  0.0279 -0.0051  0.0684
  417POPI    C3 6503  16.316   2.959  10.439 -0.0927 -0.0501  0.0772
  417POPI   PO4 6504  15.988   3.040   9.914  0.1506 -0.0845 -0.0501
  417POPI   GL1 6505  15.943   3.307   9.513 -0.3251  0.2082  0.1526
  417POPI   GL2 6506  15.789   3.650   9.570 -0.0679 -0.1556 -0.0094
  417POPI   C1A 6507  15.922   3.341   9.107 -0.0508 -0.0528 -0.1301
  417POPI   D2A 6508  15.835   3.300   8.605  0.0243 -0.1690 -0.0359
  417POPI   C3A 6509  15.774   3.026   8.366 -0.1417 -0.2982 -0.0802
  417POPI   C4A 6510  15.480   2.934   8.060 -0.3565 -0.1185 -0.2570
  417POPI   C1B 6511  15.731   3.770   9.201  0.0452 -0.1399 -0.3961
  417POPI   C2B 6512  15.678   4.024   8.854 -0.2026  0.2806  0.2640
  417POPI   C3B 6513  15.736   4.226   8.455  0.1190  0.2863  0.1362
  417POPI   C4B 6514  15.777   4.445   8.149 -0.1088  0.0816 -0.2217
  418POPI    C1 6515   9.758  15.675   9.906  0.1601 -0.0977  0.1430
  418POPI    C2 6516   9.723  15.669  10.305  0.0857 -0.0360  0.1376
  418POPI    C3 6517  10.066  15.785  10.136  0.0344  0.1831  0.1815
  418POPI   PO4 6518   9.457  15.741   9.723  0.3827 -0.0588  0.0818
  418POPI   GL1 6519   9.288  15.514   9.353 -0.0784  0.1482 -0.0249
  418POPI   GL2 6520   9.102  15.825   9.268  0.0050  0.1775 -0.1377
  418POPI   C1A 6521   9.375  15.566   8.928 -0.0397 -0.1539 -0.0144
  418POPI   D2A 6522   9.402  15.910   8.592 -0.1342  0.1639 -0.2657
  418POPI   C3A 6523   9.717  16.195   8.775 -0.1276  0.0747 -0.1725
  418POPI   C4A 6524  10.143  16.347   8.590  0.1806  0.0454  0.1456
  418POPI   C1B 6525   9.095  16.105   8.949  0.0617 -0.3139 -0.1876
  418POPI   C2B 6526   8.990  16.204   8.572 -0.0568  0.1014 -0.0816
  418POPI   C3B 6527   9.066  16.013   8.219 -0.2716  0.1076  0.1411
  418POPI   C4B 6528   8.992  15.950   7.813  0.0283  0.0659 -0.2003
  419POPI    C1 6529   4.254   5.202  10.293  0.0676 -0.4108 -0.0369
  419POPI    C2 6530   4.472   5.004  10.564  0.1268 -0.0278  0.2019
  419POPI    C3 6531   4.113   5.150  10.664  0.0712 -0.0381  0.0200
  419POPI   PO4 6532   4.373   5.151  10.030  0.0108  0.0111 -0.0758
  419POPI   GL1 6533   4.363   4.820   9.771 -0.0038 -0.0680  0.0017
  419POPI   GL2 6534   4.033   4.677   9.793  0.0701 -0.0468  0.1827
  419POPI   C1A 6535   4.223   5.038   9.388 -0.2489  0.2446  0.0674
  419POPI   D2A 6536   4.143   4.705   9.087  0.0626  0.0137  0.0717
  419POPI   C3A 6537   4.373   4.652   8.739 -0.0846  0.0011  0.0740
  419POPI   C4A 6538   4.305   4.322   8.317 -0.2841  0.0136  0.0650
  419POPI   C1B 6539   4.185   4.397   9.448  0.3213  0.1985 -0.1628
  419POPI   C2B 6540   4.226   4.214   9.116 -0.1130  0.3831  0.2597
  419POPI   C3B 6541   4.245   4.014   8.657 -0.1080  0.2486 -0.0973
  419POPI   C4B 6542   4.152   3.625   8.587 -0.2323  0.0825  0.1726
  420POPI    C1 6543   6.988   0.087  10.708 -0.0930  0.1777  0.1532
  420POPI    C2 6544   7.192   0.178  11.039  0.0958  0.0384  0.0769
  420POPI    C3 6545   7.150   0.450  10.750  0.2878  0.0258  0.0360
  420POPI   PO4 6546   7.138  -0.207  10.524  0.0163 -0.0171 -0.2475
  420POPI   GL1 6547   7.097  -0.327  10.092 -0.1708 -0.0744  0.2446
  420POPI   GL2 6548   6.804  -0.160  10.036  0.2489  0.2734 -0.0340
  420POPI   C1A 6549   6.994  -0.200   9.623  0.0746  0.0714  0.3362
  420POPI   D2A 6550   6.951  -0.330   9.172 -0.1034 -0.0665  0.0295
  420POPI   C3A 6551   6.532  -0.192   9.074 -0.2090 -0.2356  0.1787
  420POPI   C4A 6552   6.207  -0.087   8.801 -0.0518 -0.1559 -0.2246
  420POPI   C1B 6553   6.623   0.088   9.704 -0.0809  0.1756  0.4800
  420POPI   C2B 6554   6.606   0.310   9.325 -0.1331  0.0106 -0.0085
  420POPI   C3B 6555   6.496   0.305   8.821 -0.2539  0.1664 -0.0224
  420POPI   C4B 6556   6.245   0.250   8.396 -0.2639  0.1875 -0.3171
  421POPI    C1 6557   2.928  12.752  10.407 -0.0037 -0.2420 -0.2834
  421POPI    C2 6558   2.941  12.384  10.562 -0.0549  0.0510  0.4556
  421POPI    C3 6559   2.602  12.595  10.578 -0.0660  0.0875 -0.0900
  421POPI   PO4 6560   2.954  12.826  10.151  0.3179 -0.1263  0.1363
  421POPI   GL1 6561   2.937  12.783   9.743  0.2724 -0.2936 -0.1607
  421POPI   GL2 6562   3.306  12.812   9.595 -0.1974 -0.0960 -0.1918
  421POPI   C1A 6563   2.656  12.758   9.420 -0.3478  0.2343 -0.3352
  421POPI   D2A 6564   2.415  12.727   9.210  0.0518 -0.2068  0.0988
  421POPI   C3A 6565   2.262  12.533   8.934  0.2682  0.0731  0.2250
  421POPI   C4A 6566   2.285  12.721   8.539  0.2008 -0.0459  0.1767
  421POPI   C1B 6567   3.387  12.974   9.105  0.0459  0.3585 -0.1632
  421POPI   C2B 6568   3.630  12.891   8.761  0.0093  0.2016 -0.2919
  421POPI   C3B 6569   4.026  12.747   8.533 -0.2303 -0.2231 -0.1535
  421POPI   C4B 6570   4.447  12.589   8.388  0.3409 -0.1833  0.1085
  422POPI    C1 6571   3.994  15.133  10.569  0.2200  0.1668 -0.3133
  422POPI    C2 6572   3.956  15.525  10.641  0.1326  0.0829  0.1203
  422POPI    C3 6573   4.302  15.340  10.717  0.1337  0.0505  0.0372
  422POPI   PO4 6574   3.942  15.064  10.334 -0.0937 -0.0776 -0.1080
  422POPI   GL1 6575   3.889  15.247   9.870 -0.0981  0.1450  0.4005
  422POPI   GL2 6576   4.193  15.133   9.871  0.1804  0.2063  0.0049
  422POPI   C1A 6577   3.668  15.142   9.586 -0.0036  0.3987  0.1214
  422POPI   D2A 6578   3.420  15.431   9.274 -0.1053  0.1320  0.0108
  422POPI   C3A 6579   3.451  15.368   8.768 -0.1317 -0.2410  0.1496
  422POPI   C4A 6580   3.610  15.085   8.571  0.3627 -0.0466  0.0748
  422POPI   C1B 6581   4.452  15.290   9.642  0.0553 -0.1184  0.0150
  422POPI   C2B 6582   4.659  15.220   9.238  0.1157 -0.2127  0.2953
  422POPI   C3B 6583   4.635  15.174   8.825  0.1153  0.2768  0.0726
  422POPI   C4B 6584   4.660  15.237   8.460  0.1049 -0.0189  0.0017
  423DPPI    C1 6585  14.820  14.795  10.284  0.1157 -0.1110  0.1514
  423DPPI    C2 6586  14.595  14.737  10.610 -0.0058 -0.1938  0.0537
  423DPPI    C3 6587  14.490  15.014  10.341  0.0942 -0.1257  0.0843
  423DPPI   PO4 6588  14.907  14.578  10.120  0.2401  0.1978 -0.0702
  423DPPI   GL1 6589  14.951  14.299   9.849  0.2183 -0.4253 -0.1109
  423DPPI   GL2 6590  14.860  14.493   9.607  0.3495  0.2370 -0.2739
  423DPPI   C1A 6591  15.147  14.232   9.364  0.3228 -0.0184  0.2656
  423DPPI   C2A 6592  15.191  14.266   8.900 -0.2457 -0.2081 -0.0915
  423DPPI   C3A 6593  15.166  14.305   8.499 -0.1438  0.1475  0.0764
  423DPPI   C4A 6594  15.146  14.248   8.199 -0.0088  0.0768 -0.0080
  423DPPI   C1B 6595  14.967  14.690   9.219  0.1666  0.2195  0.0647
  423DPPI   C2B 6596  15.036  14.744   8.784  0.2110 -0.0040  0.1928
  423DPPI   C3B 6597  15.333  14.947   8.485  0.1505  0.0878 -0.0074
  423DPPI   C4B 6598  15.515  15.000   8.126 -0.3624 -0.4302  0.2799
  424DPPI    C1 6599  14.826  11.737  10.324  0.2207  0.0793 -0.0126
  424DPPI    C2 6600  14.639  12.052  10.484 -0.1426 -0.0131 -0.2433
  424DPPI    C3 6601  14.819  11.784  10.721 -0.3412  0.0546 -0.0122
  424DPPI   PO4 6602  14.603  11.675  10.064  0.2636 -0.0031  0.0431
  424DPPI   GL1 6603  14.301  11.382   9.802  0.0637  0.0292  0.1049
  424DPPI   GL2 6604  14.116  11.618   9.845 -0.2659  0.2410 -0.1837
  424DPPI   C1A 6605  14.529  11.094   9.517 -0.0860  0.3065 -0.2566
  424DPPI   C2A 6606  14.649  10.973   9.090  0.1385 -0.0473 -0.0949
  424DPPI   C3A 6607  14.653  10.928   8.597  0.1386 -0.0082  0.0287
  424DPPI   C4A 6608  14.459  10.699   8.393 -0.3204  0.0500  0.0129
  424DPPI   C1B 6609  13.867  11.647   9.564  0.3179  0.2464  0.0926
  424DPPI   C2B 6610  13.699  11.501   9.167 -0.1586  0.0857  0.0813
  424DPPI   C3B 6611  13.812  11.519   8.816  0.0262  0.0680  0.2127
  424DPPI   C4B 6612  14.150  11.714   8.523  0.0982 -0.1160  0.0400
  425DPPI    C1 6613   1.064  12.790  10.329  0.2381 -0.0733 -0.0223
  425DPPI    C2 6614   0.676  12.885  10.352  0.2557  0.0887 -0.3353
  425DPPI    C3 6615   0.880  12.795  10.684 -0.0295  0.0780 -0.1595
  425DPPI   PO4 6616   1.094  13.046  10.123  0.1895 -0.2332 -0.1912
  425DPPI   GL1 6617   1.198  13.129   9.760  0.0018  0.1818 -0.0371
  425DPPI   GL2 6618   1.246  13.484   9.697 -0.2028  0.0517 -0.2175
  425DPPI   C1A 6619   1.104  12.921   9.318  0.0848  0.3319  0.1529
  425DPPI   C2A 6620   1.139  13.015   9.011  0.1834  0.1851  0.2016
  425DPPI   C3A 6621   1.004  12.925   8.701  0.1847 -0.1353  0.3621
  425DPPI   C4A 6622   0.941  12.597   8.348  0.1990 -0.0620 -0.0820
  425DPPI   C1B 6623   1.462  13.348   9.329  0.0739 -0.0583 -0.5752
  425DPPI   C2B 6624   1.428  13.388   8.871 -0.0410 -0.3423  0.3167
  425DPPI   C3B 6625   1.355  13.341   8.510 -0.0175  0.2615 -0.1366
  425DPPI   C4B 6626   1.175  13.076   8.259  0.1264  0.1814  0.3956
  426DPPI    C1 6627   1.020   1.546  10.640 -0.1244 -0.1363  0.0112
  426DPPI    C2 6628   1.305   1.350  10.439 -0.1022  0.1011 -0.1934
  426DPPI    C3 6629   1.245   1.274  10.827 -0.1259 -0.3414 -0.2787
  426DPPI   PO4 6630   0.714   1.423  10.429 -0.1737  0.1074  0.0778
  426DPPI   GL1 6631   0.792   1.168  10.094 -0.0321 -0.1812  0.1495
  426DPPI   GL2 6632   1.005   1.346   9.990 -0.0999  0.1611  0.0621
  426DPPI   C1A 6633   0.859   1.137   9.590 -0.1860  0.0577  0.2753
  426DPPI   C2A 6634   0.978   0.971   9.187  0.1274 -0.3133 -0.0228
  426DPPI   C3A 6635   0.960   0.973   8.783 -0.0004 -0.2386 -0.3163
  426DPPI   C4A 6636   0.810   1.159   8.400 -0.1212 -0.0308 -0.1330
  426DPPI   C1B 6637   1.185   1.615   9.634  0.0401 -0.3069  0.3358
  426DPPI   C2B 6638   1.293   1.666   9.174 -0.2229  0.0407 -0.1018
  426DPPI   C3B 6639   1.737   1.571   9.002  0.4901 -0.2405 -0.1016
  426DPPI   C4B 6640   2.163   1.565   8.830  0.0091 -0.1677 -0.1402
  427DPPI    C1 6641   2.441   8.045  10.181  0.0959  0.0077  0.0962
  427DPPI    C2 6642   2.538   8.408  10.318 -0.4151  0.1457  0.1139
  427DPPI    C3 6643   2.386   8.135  10.567 -0.2495 -0.0043  0.0526
  427DPPI   PO4 6644   2.233   8.082   9.869 -0.2406 -0.0634 -0.0544
  427DPPI   GL1 6645   2.012   7.823   9.512 -0.3756 -0.3178  0.0934
  427DPPI   GL2 6646   2.012   7.429   9.609 -0.1372  0.1020 -0.0555
  427DPPI   C1A 6647   1.932   7.867   9.104  0.1681 -0.0676 -0.2754
  427DPPI   C2A 6648   1.919   7.818   8.647 -0.0303 -0.1017 -0.0981
  427DPPI   C3A 6649   1.780   7.682   8.345 -0.0718  0.1916  0.1077
  427DPPI   C4A 6650   1.885   7.481   7.994 -0.1541  0.2369  0.4391
  427DPPI   C1B 6651   1.905   7.385   9.164  0.1805 -0.5772 -0.1641
  427DPPI   C2B 6652   2.193   7.310   8.709  0.1376  0.0469  0.2613
  427DPPI   C3B 6653   2.305   7.472   8.250  0.0642  0.1954 -0.0214
  427DPPI   C4B 6654   2.417   7.280   7.840 -0.0274 -0.1997 -0.0359
  428DPPI    C1 6655   5.136  13.561  10.310  0.1094  0.0127  0.1518
  428DPPI    C2 6656   4.959  13.893  10.176  0.1370  0.0175  0.1273
  428DPPI    C3 6657   5.137  13.892  10.534  0.0802  0.0102  0.1557
  428DPPI   PO4 6658   5.100  13.419  10.170  0.3383  0.1492  0.2083
  428DPPI   GL1 6659   4.991  13.490   9.833  0.0324 -0.3310 -0.0458
  428DPPI   GL2 6660   5.188  13.500   9.706  0.1552  0.1172  0.0021
  428DPPI   C1A 6661   4.790  13.800   9.505 -0.1364  0.2837  0.0562
  428DPPI   C2A 6662   4.747  13.772   9.125 -0.0498 -0.0418 -0.0890
  428DPPI   C3A 6663   4.601  13.695   8.802 -0.0304 -0.0047 -0.0725
  428DPPI   C4A 6664   4.460  13.645   8.408 -0.0944 -0.2192  0.2686
  428DPPI   C1B 6665   5.240  13.622   9.210  0.2016  0.1688  0.3242
  428DPPI   C2B 6666   5.162  13.656   8.785  0.1081  0.3292 -0.2937
  428DPPI   C3B 6667   4.923  13.433   8.525  0.1055 -0.2601 -0.1175
  428DPPI   C4B 6668   4.993  13.072   8.374 -0.2034  0.2763 -0.0574
  429DPPI    C1 6669  17.164   4.212  10.047 -0.2038 -0.1910  0.0533
  429DPPI    C2 6670  17.065   3.825  10.071 -0.1207 -0.2180 -0.0326
  429DPPI    C3 6671  16.859   4.098  10.278 -0.0742 -0.3269  0.1592
  429DPPI   PO4 6672  17.323   4.255   9.776  0.0701  0.0543 -0.2215
  429DPPI   GL1 6673  17.166   4.467   9.291  0.0149 -0.2334 -0.2317
  429DPPI   GL2 6674  17.105   4.751   9.264 -0.0291 -0.1351 -0.0948
  429DPPI   C1A 6675  17.023   4.276   8.989 -0.1692  0.2343  0.0211
  429DPPI   C2A 6676  17.204   4.263   8.626 -0.1218 -0.1186 -0.1164
  429DPPI   C3A 6677  17.345   4.241   8.214  0.0083  0.0750  0.0532
  429DPPI   C4A 6678  17.352   4.632   7.910  0.1216  0.0832 -0.0331
  429DPPI   C1B 6679  17.183   4.741   8.803  0.1319 -0.4798  0.1764
  429DPPI   C2B 6680  17.307   4.767   8.450  0.4952  0.2483  0.1742
  429DPPI   C3B 6681  17.733   4.808   8.196  0.2046  0.1783 -0.1364
  429DPPI   C4B 6682  17.825   4.594   7.811 -0.0502  0.0261  0.0659
  430DPPI    C1 6683   1.206  15.628  10.607  0.1850  0.0915 -0.2171
  430DPPI    C2 6684   0.825  15.750  10.619  0.1826  0.0839 -0.2157
  430DPPI    C3 6685   1.101  15.932  10.845  0.0794 -0.2671  0.2057
  430DPPI   PO4 6686   1.242  15.548  10.296  0.2893 -0.1852 -0.1245
  430DPPI   GL1 6687   1.396  15.732   9.851 -0.0388 -0.3616  0.1929
  430DPPI   GL2 6688   1.035  15.553   9.817 -0.1597 -0.1358  0.3588
  430DPPI   C1A 6689   1.464  15.875   9.470  0.2898  0.1662 -0.0334
  430DPPI   C2A 6690   1.424  15.964   9.038  0.2053  0.2675  0.0858
  430DPPI   C3A 6691   1.322  15.966   8.496  0.0028  0.0476  0.1080
  430DPPI   C4A 6692   1.337  15.830   8.095 -0.0825 -0.0757 -0.1218
  430DPPI   C1B 6693   1.159  15.471   9.456 -0.1666  0.1721 -0.1001
  430DPPI   C2B 6694   1.117  15.472   9.063 -0.1921  0.0158  0.0297
  430DPPI   C3B 6695   1.048  15.355   8.720  0.0039 -0.1085 -0.0883
  430DPPI   C4B 6696   0.942  15.604   8.347 -0.1922  0.1880 -0.4150
  431DPPI    C1 6697   8.804   9.006   9.654  0.0497  0.0272  0.0372
  431DPPI    C2 6698   8.411   8.992   9.725  0.0208  0.0938 -0.1057
  431DPPI    C3 6699   8.651   8.709   9.874 -0.0687  0.1012  0.0557
  431DPPI   PO4 6700   8.758   9.109   9.325 -0.1466  0.0558  0.1181
  431DPPI   GL1 6701   8.315   8.989   9.222 -0.1333  0.2405  0.0081
  431DPPI   GL2 6702   8.497   8.833   8.948 -0.3407 -0.3043 -0.1881
  431DPPI   C1A 6703   8.092   9.157   8.949 -0.0667 -0.0220 -0.1086
  431DPPI   C2A 6704   7.985   9.214   8.505  0.1075  0.0025 -0.0405
  431DPPI   C3A 6705   7.901   9.288   8.105 -0.3431  0.0413 -0.3198
  431DPPI   C4A 6706   7.727   9.158   7.668 -0.2635 -0.1225  0.2513
  431DPPI   C1B 6707   8.447   8.844   8.584  0.0014  0.2273  0.1355
  431DPPI   C2B 6708   8.318   8.916   8.193 -0.0832  0.3020  0.1892
  431DPPI   C3B 6709   8.040   8.901   7.895  0.1201 -0.0075 -0.2089
  431DPPI   C4B 6710   7.933   8.543   7.605  0.2908 -0.1688  0.2327
  432DPPI    C1 6711   2.959  14.217  10.577  0.0542  0.0372  0.0887
  432DPPI    C2 6712   2.950  13.822  10.637  0.0013 -0.0011 -0.1643
  432DPPI    C3 6713   3.168  14.055  10.877 -0.1095 -0.1628  0.0968
  432DPPI   PO4 6714   2.743  14.205  10.405  0.0194 -0.1120  0.0157
  432DPPI   GL1 6715   2.764  14.262  10.021 -0.0546 -0.2395  0.0682
  432DPPI   GL2 6716   2.568  14.192   9.777 -0.3263 -0.1541 -0.0541
  432DPPI   C1A 6717   3.190  14.509   9.730  0.0768  0.2098  0.0916
  432DPPI   C2A 6718   3.520  14.651   9.492  0.0093  0.1401  0.2421
  432DPPI   C3A 6719   3.862  14.332   9.412 -0.1325 -0.1259  0.1013
  432DPPI   C4A 6720   4.156  14.439   9.004  0.0787  0.2058  0.1239
  432DPPI   C1B 6721   2.645  14.050   9.385 -0.0300  0.0338  0.0166
  432DPPI   C2B 6722   2.757  14.141   8.839  0.2117 -0.0439  0.0301
  432DPPI   C3B 6723   2.756  14.003   8.355  0.0994 -0.2136  0.1588
  432DPPI   C4B 6724   2.394  13.801   7.937 -0.0335 -0.2603  0.1807
  433DPPI    C1 6725  10.831  12.559   9.972  0.1299  0.1154  0.0683
  433DPPI    C2 6726  10.575  12.866   9.970 -0.0303 -0.0165  0.1062
  433DPPI    C3 6727  10.608  12.635  10.295  0.3888  0.2059  0.2281
  433DPPI   PO4 6728  10.748  12.419   9.710  0.0835  0.2447 -0.0421
  433DPPI   GL1 6729  10.849  12.383   9.258  0.0131 -0.0333 -0.0038
  433DPPI   GL2 6730  10.585  12.152   9.328  0.3670 -0.1674  0.0313
  433DPPI   C1A 6731  10.995  12.517   8.764 -0.0226 -0.2627  0.1414
  433DPPI   C2A 6732  11.102  12.480   8.315  0.1876 -0.3291 -0.3059
  433DPPI   C3A 6733  11.229  12.583   7.950 -0.1570  0.1801  0.1985
  433DPPI   C4A 6734  11.319  12.260   7.576 -0.0230 -0.2480  0.0241
  433DPPI   C1B 6735  10.630  12.105   8.823 -0.3357  0.0377 -0.1746
  433DPPI   C2B 6736  10.921  11.959   8.458  0.0200 -0.1126  0.1279
  433DPPI   C3B 6737  11.207  11.628   8.195  0.0640 -0.3470 -0.0923
  433DPPI   C4B 6738  11.370  11.220   8.111 -0.2198  0.1639  0.1969
  434DPPI    C1 6739   4.471  15.957  10.292 -0.0046  0.0921  0.1538
  434DPPI    C2 6740   4.469  15.824  10.670 -0.3482 -0.4216 -0.0178
  434DPPI    C3 6741   4.183  16.074  10.544 -0.1263 -0.0994  0.1062
  434DPPI   PO4 6742   4.695  16.089  10.214  0.0674 -0.3386 -0.0409
  434DPPI   GL1 6743   4.669  16.084   9.755 -0.0637  0.3335 -0.1219
  434DPPI   GL2 6744   4.662  16.448   9.724 -0.0051 -0.1293  0.4089
  434DPPI   C1A 6745   4.917  16.303   9.338  0.0689  0.0266  0.0896
  434DPPI   C2A 6746   4.827  16.454   8.958  0.0073  0.1695 -0.1300
  434DPPI   C3A 6747   4.894  16.442   8.504  0.1439  0.1379  0.2069
  434DPPI   C4A 6748   4.972  16.273   8.039  0.2530  0.2980 -0.2544
  434DPPI   C1B 6749   4.468  16.505   9.315 -0.3224 -0.3936  0.1447
  434DPPI   C2B 6750   4.245  16.567   8.893 -0.1003  0.1144  0.2497
  434DPPI   C3B 6751   4.086  16.329   8.582 -0.1902  0.1173 -0.2125
  434DPPI   C4B 6752   4.106  15.961   8.232  0.3280  0.2387 -0.1367
  435DPPI    C1 6753   3.116  18.662  10.703 -0.3880  0.1567 -0.2291
  435DPPI    C2 6754   3.307  19.011  10.663 -0.0669  0.0185  0.0475
  435DPPI    C3 6755   3.205  18.879  11.027 -0.2525 -0.1430 -0.0610
  435DPPI   PO4 6756   2.947  18.684  10.511 -0.0167  0.1992  0.1548
  435DPPI   GL1 6757   3.037  18.961  10.139 -0.1776 -0.0257 -0.4822
  435DPPI   GL2 6758   3.351  18.979  10.035 -0.3651  0.3061  0.0916
  435DPPI   C1A 6759   2.915  19.165   9.861  0.0620  0.1325  0.3187
  435DPPI   C2A 6760   2.855  19.118   9.425 -0.1185  0.2864  0.1334
  435DPPI   C3A 6761   2.946  19.217   8.957 -0.2983  0.0577  0.3193
  435DPPI   C4A 6762   2.671  19.306   8.610  0.1548  0.1350  0.0387
  435DPPI   C1B 6763   3.242  18.825   9.650  0.3505  0.1309  0.3751
  435DPPI   C2B 6764   3.263  18.911   9.203  0.2511 -0.3598  0.2098
  435DPPI   C3B 6765   3.359  19.003   8.862 -0.0016  0.0324  0.0757
  435DPPI   C4B 6766   3.254  19.150   8.420  0.2507  0.1767 -0.1592
  436DPPI    C1 6767  17.523   0.984  10.315  0.1426  0.1001 -0.0542
  436DPPI    C2 6768  17.534   1.363  10.442 -0.2758  0.0966  0.0062
  436DPPI    C3 6769  17.357   1.082  10.665  0.2178 -0.1815  0.0630
  436DPPI   PO4 6770  17.769   0.887  10.238  0.0613  0.0283  0.1203
  436DPPI   GL1 6771  18.053   1.003   9.824 -0.0388  0.1291 -0.2135
  436DPPI   GL2 6772  17.923   0.758   9.822  0.0494  0.1091 -0.0430
  436DPPI   C1A 6773  18.172   0.993   9.471  0.2427 -0.1620  0.3227
  436DPPI   C2A 6774  18.263   0.853   9.068  0.1486  0.0487  0.2688
  436DPPI   C3A 6775  18.294   0.957   8.715 -0.0358 -0.1525  0.0994
  436DPPI   C4A 6776  18.242   0.950   8.248 -0.1009 -0.1827  0.2164
  436DPPI   C1B 6777  17.860   0.576   9.336 -0.1626 -0.4086  0.2615
  436DPPI   C2B 6778  17.937   0.478   8.957  0.0693  0.1807  0.2237
  436DPPI   C3B 6779  17.909   0.678   8.563  0.3443 -0.0708 -0.0173
  436DPPI   C4B 6780  17.886   0.519   8.094 -0.1297 -0.0676  0.0507
  437DPPI    C1 6781  15.944  17.278  10.271 -0.0253  0.2436  0.3508
  437DPPI    C2 6782  15.581  17.221  10.429 -0.0306 -0.1430  0.2107
  437DPPI    C3 6783  15.881  16.973  10.522  0.1680  0.0996  0.2276
  437DPPI   PO4 6784  15.901  17.382  10.057 -0.0312 -0.0961 -0.2334
  437DPPI   GL1 6785  15.975  17.410   9.650  0.0018 -0.0107  0.1725
  437DPPI   GL2 6786  15.783  17.122   9.558 -0.1657 -0.1414  0.1488
  437DPPI   C1A 6787  16.295  17.505   9.362  0.0213  0.0794  0.1170
  437DPPI   C2A 6788  16.262  17.784   8.917 -0.1832 -0.1131 -0.0328
  437DPPI   C3A 6789  16.282  17.943   8.554 -0.0675 -0.2190 -0.2581
  437DPPI   C4A 6790  16.583  17.992   8.164 -0.0592 -0.1009  0.1458
  437DPPI   C1B 6791  15.811  17.306   9.178 -0.1894  0.2341 -0.0908
  437DPPI   C2B 6792  15.912  17.256   8.646 -0.1640  0.1838 -0.1356
  437DPPI   C3B 6793  16.156  17.410   8.391  0.0578  0.2120 -0.3261
  437DPPI   C4B 6794  16.478  17.528   8.123 -0.2227 -0.2136  0.2115
  438DPPI    C1 6795   0.417   5.583   9.939  0.1789 -0.1426  0.4497
  438DPPI    C2 6796   0.057   5.656  10.098  0.0739  0.2102  0.0687
  438DPPI    C3 6797   0.260   5.329  10.205 -0.3105  0.0610  0.3680
  438DPPI   PO4 6798   0.340   5.687   9.673 -0.0504  0.1999  0.0094
  438DPPI   GL1 6799   0.472   5.845   9.324 -0.0350  0.1482 -0.2696
  438DPPI   GL2 6800   0.132   5.996   9.329  0.1876  0.1591  0.2591
  438DPPI   C1A 6801   0.629   5.936   8.909  0.1337 -0.1307 -0.0482
  438DPPI   C2A 6802   0.529   6.144   8.501 -0.2362  0.0987 -0.3254
  438DPPI   C3A 6803   0.629   6.139   8.061 -0.3844  0.1296 -0.1826
  438DPPI   C4A 6804   1.033   5.955   7.896  0.0381 -0.0800  0.0048
  438DPPI   C1B 6805   0.120   6.206   8.910 -0.0217  0.0573 -0.0396
  438DPPI   C2B 6806   0.051   6.415   8.548  0.1150 -0.2716  0.0604
  438DPPI   C3B 6807  -0.280   6.561   8.194  0.3273 -0.3062  0.1919
  438DPPI   C4B 6808  -0.362   6.368   7.744  0.0558  0.0620  0.0593
  439DPPI    C1 6809   6.571  11.274   9.967 -0.0388 -0.0690  0.1144
  439DPPI    C2 6810   6.517  11.636  10.128  0.2386 -0.0206  0.1039
  439DPPI    C3 6811   6.531  11.313  10.363  0.1232 -0.0103  0.1256
  439DPPI   PO4 6812   6.642  11.348   9.695  0.0943 -0.1576 -0.1150
  439DPPI   GL1 6813   6.888  11.389   9.351  0.2591 -0.2179  0.0995
  439DPPI   GL2 6814   6.859  11.623   9.333  0.0785  0.0161  0.0469
  439DPPI   C1A 6815   7.087  11.162   9.019  0.0337 -0.0487  0.1927
  439DPPI   C2A 6816   7.180  11.134   8.502 -0.0267 -0.0396  0.0765
  439DPPI   C3A 6817   7.541  10.980   8.201 -0.3397 -0.0933 -0.0093
  439DPPI   C4A 6818   7.743  11.050   7.850 -0.2612 -0.2284 -0.1133
  439DPPI   C1B 6819   6.824  11.623   8.937  0.0664  0.1748 -0.1818
  439DPPI   C2B 6820   6.638  11.869   8.707 -0.1716 -0.1017  0.4146
  439DPPI   C3B 6821   6.585  12.007   8.312  0.0381  0.1517 -0.0331
  439DPPI   C4B 6822   6.293  12.143   7.978  0.6267 -0.1243 -0.2621
  440DPPI    C1 6823   1.898  13.763  10.375 -0.0888 -0.0078 -0.0301
  440DPPI    C2 6824   1.631  13.586  10.615 -0.2745  0.2463 -0.0443
  440DPPI    C3 6825   1.965  13.744  10.768 -0.2733  0.1886  0.0131
  440DPPI   PO4 6826   1.862  13.677  10.141 -0.3243 -0.2649 -0.2043
  440DPPI   GL1 6827   2.024  13.835   9.755  0.1564  0.0491  0.0692
  440DPPI   GL2 6828   1.931  14.205   9.719  0.0298 -0.1250 -0.1762
  440DPPI   C1A 6829   2.230  13.612   9.378  0.1428  0.1517 -0.2529
  440DPPI   C2A 6830   2.385  13.807   8.908  0.0542  0.2992 -0.0345
  440DPPI   C3A 6831   2.249  13.854   8.516 -0.1376 -0.1824 -0.0275
  440DPPI   C4A 6832   1.941  14.023   8.187 -0.0928 -0.0066 -0.3376
  440DPPI   C1B 6833   2.154  14.091   9.358 -0.1639  0.1496  0.1563
  440DPPI   C2B 6834   2.026  14.148   8.968 -0.0794  0.0639 -0.3072
  440DPPI   C3B 6835   1.743  14.015   8.681 -0.1199  0.2022 -0.0522
  440DPPI   C4B 6836   1.472  13.861   8.632  0.1216 -0.1170  0.3633
  441DPPI    C1 6837  12.440  12.258   9.513 -0.1922  0.0822 -0.2391
  441DPPI    C2 6838  12.378  12.106   9.877 -0.0807  0.4009 -0.0831
  441DPPI    C3 6839  12.135  12.007   9.575 -0.0127 -0.0781  0.0106
  441DPPI   PO4 6840  12.625  12.214   9.438 -0.3192 -0.0805  0.1496
  441DPPI   GL1 6841  12.875  12.359   9.156  0.3593  0.1889 -0.1156
  441DPPI   GL2 6842  12.560  12.623   9.121  0.5682  0.2030 -0.1497
  441DPPI   C1A 6843  12.946  12.435   8.698  0.3325 -0.0537  0.1647
  441DPPI   C2A 6844  12.849  12.569   8.201 -0.1934 -0.1463 -0.0602
  441DPPI   C3A 6845  12.927  12.551   7.865 -0.1606  0.4008  0.0669
  441DPPI   C4A 6846  13.016  12.570   7.442  0.0263  0.0023 -0.0533
  441DPPI   C1B 6847  12.494  12.616   8.694 -0.3723  0.0529 -0.1822
  441DPPI   C2B 6848  12.270  12.464   8.348 -0.1497 -0.0433 -0.0279
  441DPPI   C3B 6849  12.314  12.501   7.924 -0.0786  0.2156 -0.0535
  441DPPI   C4B 6850  12.107  12.598   7.609  0.0566  0.1994  0.0824
  442DPPI    C1 6851   3.145  16.395  10.040 -0.1311  0.0837  0.0599
  442DPPI    C2 6852   3.451  16.599  10.195 -0.1580  0.0058  0.2180
  442DPPI    C3 6853   3.266  16.320  10.413 -0.1196 -0.1905  0.0031
  442DPPI   PO4 6854   3.123  16.466   9.817  0.2744  0.1049  0.0935
  442DPPI   GL1 6855   3.354  16.423   9.498 -0.1202 -0.0899  0.0694
  442DPPI   GL2 6856   3.481  16.536   9.333 -0.0028 -0.2770  0.2306
  442DPPI   C1A 6857   3.522  16.034   9.322 -0.0798  0.1907  0.0202
  442DPPI   C2A 6858   3.619  15.793   8.991 -0.2810 -0.1499  0.1067
  442DPPI   C3A 6859   3.933  15.752   8.702  0.0258 -0.0369  0.2185
  442DPPI   C4A 6860   4.330  15.557   8.680  0.1053  0.0660 -0.1449
  442DPPI   C1B 6861   3.430  16.655   8.941 -0.0774 -0.1544  0.5492
  442DPPI   C2B 6862   3.696  16.684   8.611  0.0697  0.1368  0.1422
  442DPPI   C3B 6863   3.985  16.877   8.594 -0.3466 -0.1188 -0.0321
  442DPPI   C4B 6864   3.980  17.210   8.451  0.0361  0.0190  0.1228
  443DPPI    C1 6865   0.762   4.750   9.782 -0.2346  0.2528  0.2698
  443DPPI    C2 6866   0.769   4.462  10.059 -0.1755  0.1101  0.1209
  443DPPI    C3 6867   0.434   4.533   9.853 -0.1034 -0.0617 -0.0589
  443DPPI   PO4 6868   1.093   4.794   9.674  0.0985 -0.1605  0.4448
  443DPPI   GL1 6869   1.316   5.231   9.555  0.1600  0.0817  0.1002
  443DPPI   GL2 6870   1.150   5.473   9.552 -0.0864  0.0440 -0.1522
  443DPPI   C1A 6871   1.228   5.200   9.149  0.2930  0.1605 -0.0919
  443DPPI   C2A 6872   1.245   5.036   8.779 -0.2200  0.2104  0.0605
  443DPPI   C3A 6873   1.280   5.078   8.319 -0.1063  0.0083 -0.0391
  443DPPI   C4A 6874   1.346   4.928   7.978 -0.2779 -0.0012  0.4630
  443DPPI   C1B 6875   0.977   5.675   9.246  0.1774  0.5074 -0.0373
  443DPPI   C2B 6876   1.131   5.596   8.842 -0.1013 -0.0866 -0.2307
  443DPPI   C3B 6877   1.168   5.572   8.510 -0.2041  0.0735  0.1817
  443DPPI   C4B 6878   1.208   5.510   8.078 -0.1951  0.1202  0.1081
  444DPPI    C1 6879   6.210   2.945  10.494 -0.0098  0.0925  0.0674
  444DPPI    C2 6880   6.047   2.588  10.576  0.0361  0.0840  0.1223
  444DPPI    C3 6881   6.428   2.662  10.674  0.0662  0.1033 -0.0072
  444DPPI   PO4 6882   6.020   3.096  10.488  0.1545 -0.0057  0.3397
  444DPPI   GL1 6883   5.739   3.233  10.194  0.2128  0.1554 -0.1004
  444DPPI   GL2 6884   5.866   3.477  10.136  0.0117  0.1260  0.1393
  444DPPI   C1A 6885   5.633   3.168   9.790  0.0756  0.3357  0.1167
  444DPPI   C2A 6886   5.729   3.090   9.496  0.2886 -0.2092 -0.0123
  444DPPI   C3A 6887   5.609   3.065   9.089 -0.3516 -0.0828  0.0908
  444DPPI   C4A 6888   5.858   2.918   8.748  0.0533 -0.3746  0.0573
  444DPPI   C1B 6889   5.913   3.586   9.725  0.1839 -0.1118  0.0917
  444DPPI   C2B 6890   5.876   3.530   9.235 -0.2486  0.0344  0.1603
  444DPPI   C3B 6891   5.914   3.394   8.794  0.0584  0.1145  0.0846
  444DPPI   C4B 6892   5.828   3.298   8.297  0.2591  0.1456  0.0387
  445DPPI    C1 6893   8.353   0.513  10.713 -0.1120  0.0595  0.0132
  445DPPI    C2 6894   8.471   0.420  11.083 -0.0067  0.0653 -0.0186
  445DPPI    C3 6895   8.670   0.276  10.768  0.0621  0.2693 -0.0699
  445DPPI   PO4 6896   8.407   0.736  10.651 -0.1483  0.0291 -0.0692
  445DPPI   GL1 6897   8.710   0.821  10.366 -0.0799 -0.0306 -0.1521
  445DPPI   GL2 6898   8.612   1.183  10.200 -0.0190 -0.1154  0.0609
  445DPPI   C1A 6899   8.510   0.732   9.892  0.0214  0.0930  0.0157
  445DPPI   C2A 6900   8.435   0.961   9.465 -0.2043  0.1190 -0.3068
  445DPPI   C3A 6901   8.206   1.001   9.152 -0.0720  0.2882  0.0450
  445DPPI   C4A 6902   8.255   0.976   8.740  0.2738  0.3185 -0.1643
  445DPPI   C1B 6903   8.317   1.298   9.827 -0.0663 -0.4068 -0.3044
  445DPPI   C2B 6904   8.016   1.511   9.517  0.0189  0.0655 -0.1683
  445DPPI   C3B 6905   7.748   1.408   9.247  0.3874 -0.0613  0.1796
  445DPPI   C4B 6906   7.802   1.155   8.900 -0.0633 -0.0823 -0.5452
  446DPPI    C1 6907   8.134   9.798   9.724  0.0007  0.3808  0.3143
  446DPPI    C2 6908   8.169   9.547  10.033 -0.1268  0.2523  0.2257
  446DPPI    C3 6909   7.954   9.882  10.071 -0.2084  0.1971  0.2527
  446DPPI   PO4 6910   8.196   9.641   9.537 -0.1350  0.3846  0.0873
  446DPPI   GL1 6911   8.395   9.473   9.160  0.1197  0.0508  0.0107
  446DPPI   GL2 6912   8.728   9.600   9.080  0.2097  0.0877  0.0079
  446DPPI   C1A 6913   8.233   9.635   8.765  0.0613  0.0840 -0.2791
  446DPPI   C2A 6914   8.085   9.722   8.453  0.4157 -0.2754  0.1881
  446DPPI   C3A 6915   7.852   9.797   8.045  0.0402 -0.0391  0.1237
  446DPPI   C4A 6916   7.749   9.632   7.677 -0.0404  0.0902 -0.1377
  446DPPI   C1B 6917   8.971  10.027   8.971  0.0806  0.4423  0.0556
  446DPPI   C2B 6918   9.023  10.025   8.561 -0.1369 -0.1555  0.2796
  446DPPI   C3B 6919   9.006  10.206   8.204  0.1045  0.1344  0.0699
  446DPPI   C4B 6920   9.068  10.289   7.767  0.3925  0.2352 -0.0789
  447DPPI    C1 6921   3.552  11.096  10.092 -0.1736 -0.0219 -0.2377
  447DPPI    C2 6922   3.497  10.725   9.955  0.0252 -0.1186 -0.0601
  447DPPI    C3 6923   3.504  10.794  10.349  0.0675  0.0613 -0.0916
  447DPPI   PO4 6924   3.811  11.168   9.928 -0.2406  0.1949  0.1231
  447DPPI   GL1 6925   4.069  10.966   9.690 -0.3501 -0.2134 -0.0783
  447DPPI   GL2 6926   3.873  10.764   9.564 -0.0174  0.1773 -0.2096
  447DPPI   C1A 6927   4.029  11.005   9.207 -0.0761 -0.1223  0.2817
  447DPPI   C2A 6928   3.968  10.941   8.784 -0.2146 -0.1347 -0.1419
  447DPPI   C3A 6929   3.762  10.956   8.353  0.3025 -0.1009  0.0118
  447DPPI   C4A 6930   3.639  11.089   7.917 -0.3173 -0.0483  0.3994
  447DPPI   C1B 6931   3.565  10.547   9.457 -0.0915 -0.1758  0.1629
  447DPPI   C2B 6932   3.611  10.030   9.493  0.2872 -0.1542 -0.1794
  447DPPI   C3B 6933   3.732   9.604   9.417 -0.0464 -0.2813  0.0488
  447DPPI   C4B 6934   3.805   9.226   9.273  0.1057  0.2920  0.2110
  448DPPI    C1 6935  17.010  16.129  10.444  0.0675  0.0728  0.1652
  448DPPI    C2 6936  17.160  15.765  10.515 -0.2915 -0.0994  0.0624
  448DPPI    C3 6937  16.873  15.913  10.751 -0.0486  0.1801  0.1896
  448DPPI   PO4 6938  16.885  16.125  10.125  0.1907 -0.0252  0.4105
  448DPPI   GL1 6939  16.882  16.160   9.662 -0.0425  0.0555 -0.0333
  448DPPI   GL2 6940  16.702  15.794   9.667  0.2907 -0.0255  0.0074
  448DPPI   C1A 6941  16.688  16.211   9.259  0.1317 -0.2007 -0.0448
  448DPPI   C2A 6942  16.635  16.061   8.819 -0.1014 -0.1350 -0.1599
  448DPPI   C3A 6943  16.857  15.895   8.442  0.0403 -0.1167 -0.3198
  448DPPI   C4A 6944  17.146  15.484   8.326 -0.0595 -0.1306 -0.2206
  448DPPI   C1B 6945  16.583  15.650   9.228  0.0492 -0.0858 -0.2280
  448DPPI   C2B 6946  16.675  15.552   8.830 -0.0136  0.2149  0.0345
  448DPPI   C3B 6947  16.670  15.431   8.360  0.0746  0.1200 -0.0163
  448DPPI   C4B 6948  16.677  15.459   7.950 -0.1357  0.1742 -0.1509
  449DPPI    C1 6949   6.140   6.761  10.137 -0.0120  0.0066 -0.0349
  449DPPI    C2 6950   6.184   6.781  10.534  0.1820 -0.1145 -0.0486
  449DPPI    C3 6951   6.506   6.773  10.298  0.0671  0.2809 -0.2282
  449DPPI   PO4 6952   5.934   6.585  10.127  0.0090  0.1494 -0.3607
  449DPPI   GL1 6953   5.790   6.423   9.703 -0.3121  0.0838  0.0088
  449DPPI   GL2 6954   6.119   6.375   9.686 -0.1522 -0.0456  0.1384
  449DPPI   C1A 6955   5.840   6.248   9.248 -0.1224 -0.1837  0.1244
  449DPPI   C2A 6956   5.967   6.250   8.805 -0.3482 -0.3742 -0.2449
  449DPPI   C3A 6957   5.918   6.394   8.491  0.1395 -0.2151 -0.2136
  449DPPI   C4A 6958   6.078   6.315   8.173 -0.1122 -0.1031  0.0210
  449DPPI   C1B 6959   6.281   6.409   9.292 -0.0243  0.0061  0.0612
  449DPPI   C2B 6960   6.516   6.460   9.014 -0.1946 -0.2142 -0.2088
  449DPPI   C3B 6961   6.422   6.399   8.592  0.3666  0.1053 -0.2306
  449DPPI   C4B 6962   6.597   6.411   8.193  0.0267 -0.0833  0.1784
  450DPPI    C1 6963  17.473   3.822   9.722 -0.0657  0.2980  0.3078
  450DPPI    C2 6964  17.611   3.560   9.991  0.1502  0.0692 -0.0178
  450DPPI    C3 6965  17.580   3.947  10.086  0.1124 -0.0254  0.3704
  450DPPI   PO4 6966  17.263   3.690   9.658  0.1758 -0.1148  0.2152
  450DPPI   GL1 6967  16.951   3.698   9.295 -0.0304 -0.2516  0.0002
  450DPPI   GL2 6968  17.181   3.813   9.168  0.3690  0.1679 -0.6060
  450DPPI   C1A 6969  16.713   3.491   9.093 -0.2826 -0.2077 -0.1322
  450DPPI   C2A 6970  16.656   3.516   8.585  0.0979 -0.0551 -0.0892
  450DPPI   C3A 6971  16.657   3.543   8.192  0.2456  0.1799  0.1745
  450DPPI   C4A 6972  16.573   3.804   7.818  0.1944 -0.0578  0.2471
  450DPPI   C1B 6973  17.121   3.687   8.803 -0.0406 -0.0578  0.2495
  450DPPI   C2B 6974  17.110   3.690   8.324  0.6116  0.0910 -0.3850
  450DPPI   C3B 6975  17.106   3.771   7.863  0.1244 -0.1507 -0.2191
  450DPPI   C4B 6976  17.256   3.763   7.468 -0.0119  0.0044  0.0885
  451DPPI    C1 6977  16.750  10.483  10.321  0.0652 -0.0729 -0.0016
  451DPPI    C2 6978  16.684  10.725  10.632  0.1530 -0.2158  0.1293
  451DPPI    C3 6979  16.576  10.340  10.651 -0.0166 -0.1811 -0.0905
  451DPPI   PO4 6980  16.786  10.663  10.088  0.0742 -0.1115  0.1308
  451DPPI   GL1 6981  16.539  10.960   9.755 -0.0117 -0.0130  0.1032
  451DPPI   GL2 6982  16.865  11.077   9.794 -0.1667 -0.0342 -0.3892
  451DPPI   C1A 6983  16.571  11.241   9.445  0.0983 -0.0527 -0.2614
  451DPPI   C2A 6984  16.610  11.327   8.947  0.1163  0.0964  0.0150
  451DPPI   C3A 6985  16.425  11.328   8.626 -0.0232  0.2990  0.2931
  451DPPI   C4A 6986  16.115  11.195   8.291  0.0272  0.0755  0.0161
  451DPPI   C1B 6987  17.008  11.027   9.362 -0.0060 -0.1468 -0.2848
  451DPPI   C2B 6988  17.004  10.794   9.067 -0.1455  0.1764  0.3608
  451DPPI   C3B 6989  16.858  10.890   8.740 -0.1522  0.2470 -0.0047
  451DPPI   C4B 6990  16.738  11.052   8.432  0.0034 -0.1328 -0.2205
  452DPPI    C1 6991  14.791  17.742   9.975 -0.0957 -0.0269  0.0374
  452DPPI    C2 6992  14.732  17.450  10.242 -0.0051 -0.0256  0.0592
  452DPPI    C3 6993  14.583  17.815  10.309  0.5669  0.1541  0.4295
  452DPPI   PO4 6994  14.887  17.559   9.783  0.0092  0.2140  0.1786
  452DPPI   GL1 6995  14.691  17.334   9.383  0.0902  0.0906  0.0157
  452DPPI   GL2 6996  14.712  17.645   9.326  0.1057 -0.0566 -0.1433
  452DPPI   C1A 6997  14.727  17.255   8.963 -0.3559 -0.0202  0.1116
  452DPPI   C2A 6998  14.793  17.315   8.540  0.0947  0.0099 -0.2028
  452DPPI   C3A 6999  15.083  17.199   8.165 -0.0362  0.1051  0.2741
  452DPPI   C4A 7000  15.283  17.460   7.830  0.1223  0.2409  0.0757
  452DPPI   C1B 7001  14.718  17.784   8.879  0.1459  0.1958 -0.0294
  452DPPI   C2B 7002  14.718  17.780   8.364 -0.2007  0.2497  0.0343
  452DPPI   C3B 7003  14.951  17.795   8.020  0.0681 -0.0678 -0.1919
  452DPPI   C4B 7004  14.777  17.850   7.615  0.0782  0.0212 -0.3784
  453DPPI    C1 7005   9.928  17.804  10.098 -0.0667  0.1062  0.0187
  453DPPI    C2 7006  10.241  17.580  10.204 -0.3628 -0.1108  0.4652
  453DPPI    C3 7007  10.217  17.960  10.326 -0.1941 -0.0406  0.2852
  453DPPI   PO4 7008   9.894  17.665   9.788  0.0810 -0.2068 -0.4571
  453DPPI   GL1 7009   9.528  17.526   9.510  0.1493  0.1589 -0.3974
  453DPPI   GL2 7010   9.194  17.550   9.674  0.0058  0.1997  0.3260
  453DPPI   C1A 7011   9.560  17.629   9.103 -0.1667 -0.2082 -0.3094
  453DPPI   C2A 7012   9.978  17.551   8.860 -0.1985 -0.0579  0.0792
  453DPPI   C3A 7013  10.209  17.713   8.518  0.1055 -0.0280 -0.0044
  453DPPI   C4A 7014  10.571  17.527   8.306  0.0693  0.2445 -0.0809
  453DPPI   C1B 7015   9.090  17.672   9.214 -0.0436  0.8166 -0.0976
  453DPPI   C2B 7016   9.182  17.666   8.763 -0.2289 -0.0942  0.1315
  453DPPI   C3B 7017   9.196  17.543   8.238 -0.2828 -0.5637 -0.1058
  453DPPI   C4B 7018   9.351  17.811   7.940  0.4339 -0.0297 -0.1254
  454DPPI    C1 7019   9.943  14.023   9.843  0.1214  0.1212 -0.1193
  454DPPI    C2 7020  10.326  14.136   9.862  0.0971  0.1543  0.2507
  454DPPI    C3 7021  10.036  14.399   9.943  0.0007  0.0887  0.1223
  454DPPI   PO4 7022   9.909  13.922   9.587  0.0381  0.2141 -0.2881
  454DPPI   GL1 7023   9.890  13.904   9.161 -0.0126  0.0118  0.3025
  454DPPI   GL2 7024   9.596  13.935   9.083  0.1009 -0.3106  0.0597
  454DPPI   C1A 7025   9.958  13.650   8.761  0.0973  0.2502 -0.3604
  454DPPI   C2A 7026   9.991  13.523   8.364 -0.3826 -0.1705  0.5057
  454DPPI   C3A 7027   9.944  13.408   7.922  0.1944 -0.0955  0.2073
  454DPPI   C4A 7028   9.847  13.542   7.420 -0.0646  0.0475  0.1299
  454DPPI   C1B 7029   9.499  14.007   8.586  0.5640 -0.0480 -0.0493
  454DPPI   C2B 7030   9.457  14.162   8.106  0.1059 -0.0262 -0.1339
  454DPPI   C3B 7031   9.332  14.165   7.690 -0.1121 -0.1455  0.0419
  454DPPI   C4B 7032   9.399  14.482   7.360  0.2368 -0.1948 -0.1117
  455DPPI    C1 7033   8.991  17.839  10.165  0.0769 -0.0467  0.2078
  455DPPI    C2 7034   8.896  17.547  10.421 -0.1242 -0.0594  0.1211
  455DPPI    C3 7035   8.904  17.927  10.546 -0.1320 -0.0745  0.1677
  455DPPI   PO4 7036   8.810  17.706   9.986 -0.0480 -0.3920 -0.0465
  455DPPI   GL1 7037   8.689  17.756   9.547  0.3904 -0.1835  0.1271
  455DPPI   GL2 7038   8.726  17.465   9.623  0.0766  0.0156 -0.2329
  455DPPI   C1A 7039   8.677  17.941   9.173  0.1960  0.1761  0.2116
  455DPPI   C2A 7040   8.874  18.150   8.773  0.0949  0.0765  0.1833
  455DPPI   C3A 7041   9.038  18.465   8.605 -0.1113  0.0343 -0.0352
  455DPPI   C4A 7042   9.319  18.777   8.337  0.0820 -0.1664 -0.2586
  455DPPI   C1B 7043   8.568  17.428   9.281 -0.3113  0.4061  0.3760
  455DPPI   C2B 7044   8.628  17.465   8.800  0.0040 -0.0010 -0.3339
  455DPPI   C3B 7045   8.701  17.804   8.507 -0.0495  0.0809 -0.1465
  455DPPI   C4B 7046   9.149  18.050   8.365 -0.2708 -0.0726 -0.0974
  456DPPI    C1 7047   4.577   8.125  10.028  0.2758 -0.0458 -0.1389
  456DPPI    C2 7048   4.479   8.494   9.909 -0.2698 -0.0937  0.1301
  456DPPI    C3 7049   4.553   8.422  10.296  0.0905 -0.2203  0.0416
  456DPPI   PO4 7050   4.444   8.005   9.902  0.1591  0.4200  0.1074
  456DPPI   GL1 7051   4.517   7.973   9.422  0.0014 -0.0513 -0.0371
  456DPPI   GL2 7052   4.468   7.584   9.457  0.0097  0.0399 -0.2281
  456DPPI   C1A 7053   4.410   7.836   8.939  0.0637 -0.0382  0.0082
  456DPPI   C2A 7054   4.707   7.859   8.643  0.3009  0.4546  0.0539
  456DPPI   C3A 7055   4.905   7.672   8.395 -0.2282  0.3575  0.2580
  456DPPI   C4A 7056   4.882   7.537   7.911  0.1949  0.4037  0.2303
  456DPPI   C1B 7057   4.800   7.505   9.092 -0.2133 -0.1183 -0.0460
  456DPPI   C2B 7058   4.946   7.301   8.705  0.1153 -0.0795  0.0735
  456DPPI   C3B 7059   4.828   7.131   8.313  0.1121  0.2793  0.0490
  456DPPI   C4B 7060   5.110   6.948   7.972 -0.0516  0.0430  0.3736
  457DPPI    C1 7061  11.824  13.335   9.835  0.1977 -0.0455 -0.0357
  457DPPI    C2 7062  11.744  12.978   9.997  0.1776 -0.0384 -0.0298
  457DPPI    C3 7063  11.818  13.293  10.233  0.0158  0.0025 -0.0324
  457DPPI   PO4 7064  11.658  13.393   9.625 -0.1154  0.1750  0.3620
  457DPPI   GL1 7065  11.762  13.447   9.168 -0.1714  0.1042  0.4314
  457DPPI   GL2 7066  11.790  13.736   9.000 -0.0949 -0.3095  0.3565
  457DPPI   C1A 7067  11.834  13.374   8.750 -0.3611 -0.3994  0.0398
  457DPPI   C2A 7068  11.872  13.383   8.250 -0.0745 -0.1308  0.1609
  457DPPI   C3A 7069  11.776  13.446   7.822  0.2113 -0.3163 -0.1225
  457DPPI   C4A 7070  12.016  13.712   7.611  0.2026  0.0803 -0.2986
  457DPPI   C1B 7071  11.807  13.851   8.538  0.1977 -0.0296 -0.0351
  457DPPI   C2B 7072  11.782  13.881   8.087  0.2634  0.2283 -0.2571
  457DPPI   C3B 7073  11.592  13.946   7.774  0.2500  0.2230  0.1592
  457DPPI   C4B 7074  11.625  13.954   7.338 -0.1293 -0.2080  0.0907
  458DPPI    C1 7075   0.928  11.589  10.051  0.0514  0.0317 -0.0974
  458DPPI    C2 7076   0.995  11.840  10.355 -0.0586 -0.1182  0.0524
  458DPPI    C3 7077   1.261  11.554  10.269 -0.0836 -0.1507  0.0831
  458DPPI   PO4 7078   0.944  11.743   9.858 -0.3633 -0.0011 -0.0346
  458DPPI   GL1 7079   0.883  11.982   9.451  0.1471 -0.1266 -0.2776
  458DPPI   GL2 7080   0.819  11.641   9.354 -0.3211 -0.2311 -0.1156
  458DPPI   C1A 7081   1.027  12.149   9.176 -0.0470  0.0959  0.1898
  458DPPI   C2A 7082   1.161  12.506   8.947  0.2751 -0.0292 -0.0559
  458DPPI   C3A 7083   1.415  12.674   8.648 -0.3466  0.0397  0.2566
  458DPPI   C4A 7084   1.488  12.571   8.212 -0.0733 -0.0861 -0.1969
  458DPPI   C1B 7085   1.210  11.647   9.124  0.5694  0.1835 -0.0822
  458DPPI   C2B 7086   1.423  11.961   8.866  0.2714 -0.0799 -0.2613
  458DPPI   C3B 7087   1.430  12.071   8.445  0.0091  0.1130  0.1663
  458DPPI   C4B 7088   1.236  12.213   8.027  0.2945  0.2828  0.2212
  459DPPI    C1 7089   0.644  10.895  10.002 -0.0908  0.1350  0.0507
  459DPPI    C2 7090   0.389  10.999  10.292 -0.1067  0.0188  0.0788
  459DPPI    C3 7091   0.767  11.130  10.302 -0.0603 -0.1231  0.2440
  459DPPI   PO4 7092   0.360  10.810   9.764 -0.1551 -0.0994 -0.1336
  459DPPI   GL1 7093   0.322  11.074   9.435 -0.0001  0.1188  0.0224
  459DPPI   GL2 7094   0.686  11.155   9.354  0.1692  0.0477 -0.1589
  459DPPI   C1A 7095   0.407  10.885   9.039 -0.1841 -0.1601  0.3160
  459DPPI   C2A 7096   0.661  10.942   8.604  0.0234  0.0625  0.2852
  459DPPI   C3A 7097   0.665  11.130   8.242  0.0507  0.0868 -0.0670
  459DPPI   C4A 7098   0.773  11.194   7.849 -0.2442 -0.1695 -0.0204
  459DPPI   C1B 7099   0.813  11.252   8.951 -0.0204  0.1415 -0.3638
  459DPPI   C2B 7100   0.803  11.746   8.868  0.0814  0.2291  0.1346
  459DPPI   C3B 7101   0.886  12.128   8.613  0.1690  0.0373 -0.4353
  459DPPI   C4B 7102   0.775  12.077   8.168 -0.1031 -0.3036 -0.1887
  460DPPI    C1 7103   0.684   7.819  10.162  0.0048 -0.0196 -0.0963
  460DPPI    C2 7104   0.641   7.439  10.048  0.1455 -0.0721  0.0226
  460DPPI    C3 7105   0.920   7.536  10.317 -0.0231  0.0852  0.1424
  460DPPI   PO4 7106   0.673   7.942  10.007  0.2177  0.1851 -0.0794
  460DPPI   GL1 7107   0.508   7.955   9.588  0.3346 -0.0500  0.2795
  460DPPI   GL2 7108   0.534   7.679   9.590  0.1687 -0.0489 -0.1536
  460DPPI   C1A 7109   0.509   7.900   9.119  0.2001  0.2237 -0.0467
  460DPPI   C2A 7110   0.462   7.961   8.723 -0.1188 -0.1020  0.0305
  460DPPI   C3A 7111   0.270   7.874   8.249  0.0081  0.1632  0.2559
  460DPPI   C4A 7112   0.123   8.094   7.868  0.1012  0.1533 -0.1989
  460DPPI   C1B 7113   0.818   7.613   9.360  0.1848  0.1336 -0.0363
  460DPPI   C2B 7114   1.015   7.348   9.049 -0.1834  0.2397  0.2923
  460DPPI   C3B 7115   1.170   7.267   8.728  0.1418 -0.1785 -0.4783
  460DPPI   C4B 7116   1.029   7.096   8.335  0.0898  0.1428  0.1042
  461DPPI    C1 7117   3.646  13.629  10.084 -0.4109  0.4720  0.0816
  461DPPI    C2 7118   3.595  13.284  10.279  0.1615  0.2891 -0.0717
  461DPPI    C3 7119   3.632  13.626  10.483 -0.0178  0.2086  0.0984
  461DPPI   PO4 7120   3.514  13.660   9.972  0.0773 -0.0252  0.2849
  461DPPI   GL1 7121   3.622  13.587   9.560 -0.0407 -0.2595  0.0187
  461DPPI   GL2 7122   3.733  13.858   9.433 -0.0094  0.0218  0.1731
  461DPPI   C1A 7123   3.375  13.748   9.159 -0.1693 -0.0976 -0.1393
  461DPPI   C2A 7124   2.943  13.748   9.038 -0.3595  0.0852  0.0845
  461DPPI   C3A 7125   2.737  13.574   8.631 -0.0403  0.1138 -0.2056
  461DPPI   C4A 7126   2.988  13.475   8.251  0.2137 -0.0482 -0.0639
  461DPPI   C1B 7127   3.700  14.103   9.011 -0.1572  0.0172 -0.1282
  461DPPI   C2B 7128   3.519  14.196   8.576  0.3575 -0.1176 -0.1376
  461DPPI   C3B 7129   3.429  13.763   8.209  0.1091  0.1398 -0.0482
  461DPPI   C4B 7130   3.442  13.329   8.383 -0.2456 -0.2409  0.1855
  462DPPI    C1 7131   4.724  18.166  10.454 -0.3837  0.0128 -0.0769
  462DPPI    C2 7132   4.721  18.566  10.470 -0.3406  0.0145 -0.1015
  462DPPI    C3 7133   4.451  18.355  10.677 -0.0769  0.0436  0.2825
  462DPPI   PO4 7134   4.754  18.131  10.167  0.1083  0.0258  0.2131
  462DPPI   GL1 7135   4.619  18.102   9.774  0.3131  0.0834 -0.0500
  462DPPI   GL2 7136   4.976  18.144   9.648  0.0767  0.1815 -0.1364
  462DPPI   C1A 7137   4.432  18.253   9.427  0.2703  0.0548  0.2219
  462DPPI   C2A 7138   4.480  18.338   9.015  0.0703 -0.0382  0.1454
  462DPPI   C3A 7139   4.490  18.463   8.551 -0.3914 -0.0636  0.2796
  462DPPI   C4A 7140   4.638  18.298   8.114 -0.0097  0.3082 -0.1062
  462DPPI   C1B 7141   4.957  18.210   9.306  0.0084 -0.0836 -0.2858
  462DPPI   C2B 7142   4.992  18.369   8.953 -0.1073  0.1175 -0.2084
  462DPPI   C3B 7143   5.247  18.275   8.734 -0.0118 -0.1741 -0.0238
  462DPPI   C4B 7144   5.432  18.435   8.349  0.0864  0.2717  0.3424
  463DPPI    C1 7145  12.702   8.597   9.774 -0.1438 -0.0204 -0.2630
  463DPPI    C2 7146  13.079   8.464   9.772 -0.0590  0.1957  0.1373
  463DPPI    C3 7147  12.992   8.823   9.617 -0.1352  0.0682 -0.1218
  463DPPI   PO4 7148  12.581   8.332   9.625  0.2326 -0.1860  0.0450
  463DPPI   GL1 7149  12.865   8.168   9.292  0.1675  0.1626  0.0213
  463DPPI   GL2 7150  12.551   8.080   9.186  0.1905 -0.0932  0.1740
  463DPPI   C1A 7151  13.101   8.037   8.907 -0.3840  0.0092 -0.1354
  463DPPI   C2A 7152  13.199   7.897   8.513  0.2238 -0.0828 -0.1382
  463DPPI   C3A 7153  13.399   7.690   8.071  0.0111  0.2402 -0.1013
  463DPPI   C4A 7154  13.826   7.584   7.862 -0.0401 -0.0786 -0.3015
  463DPPI   C1B 7155  12.480   7.936   8.783 -0.0462 -0.2219  0.3243
  463DPPI   C2B 7156  12.606   8.005   8.336  0.0851 -0.1821 -0.3349
  463DPPI   C3B 7157  12.698   8.113   7.940  0.1338  0.0589  0.1408
  463DPPI   C4B 7158  12.747   8.496   7.767 -0.0709 -0.0290  0.2912
  464DPPI    C1 7159  10.527  16.669   9.980 -0.2996 -0.0476 -0.2292
  464DPPI    C2 7160  10.285  16.697  10.298 -0.0864  0.3008 -0.0915
  464DPPI    C3 7161  10.681  16.730  10.344  0.0085 -0.3879 -0.2976
  464DPPI   PO4 7162  10.453  16.854   9.777 -0.0019 -0.4129  0.1290
  464DPPI   GL1 7163  10.264  16.973   9.337 -0.0920  0.3897 -0.1909
  464DPPI   GL2 7164  10.463  16.796   9.194 -0.3168 -0.0947 -0.0694
  464DPPI   C1A 7165  10.093  17.046   8.998 -0.2553  0.0947  0.2168
  464DPPI   C2A 7166  10.005  17.227   8.547  0.1385  0.2613  0.0784
  464DPPI   C3A 7167  10.203  17.306   8.110  0.2589  0.0648 -0.0367
  464DPPI   C4A 7168  10.219  17.670   8.009  0.2674 -0.0941 -0.1934
  464DPPI   C1B 7169  10.351  16.808   8.715 -0.2304  0.3359 -0.2687
  464DPPI   C2B 7170  10.305  16.734   8.264 -0.1054  0.2501  0.0015
  464DPPI   C3B 7171  10.090  16.411   8.118 -0.0366 -0.1023  0.0800
  464DPPI   C4B 7172   9.735  16.217   8.283  0.0580 -0.0775 -0.0152
  465DPPI    C1 7173   5.116  14.898  10.441 -0.0051 -0.3407 -0.0709
  465DPPI    C2 7174   5.450  14.754  10.273  0.1822  0.1191 -0.1078
  465DPPI    C3 7175   5.474  15.024  10.567 -0.1591  0.1569 -0.1103
  465DPPI   PO4 7176   4.991  14.946  10.261  0.4054  0.2636 -0.1368
  465DPPI   GL1 7177   5.165  14.817   9.884  0.5616  0.0733 -0.0682
  465DPPI   GL2 7178   5.478  15.087   9.890 -0.1009  0.2279  0.0540
  465DPPI   C1A 7179   5.268  14.391   9.624  0.0029 -0.1816 -0.1542
  465DPPI   C2A 7180   5.214  14.124   9.271 -0.2596  0.2594 -0.0358
  465DPPI   C3A 7181   5.295  14.142   8.833 -0.2209  0.0986 -0.0497
  465DPPI   C4A 7182   5.462  14.099   8.352  0.1466  0.3118  0.0004
  465DPPI   C1B 7183   5.352  14.954   9.442  0.2605 -0.2205 -0.0534
  465DPPI   C2B 7184   5.348  14.600   9.053  0.0103 -0.0220 -0.0847
  465DPPI   C3B 7185   5.556  14.525   8.580 -0.3581 -0.1731  0.0819
  465DPPI   C4B 7186   5.781  14.655   8.299 -0.4686 -0.2011  0.1309
  466DPPI    C1 7187  15.541  14.137  10.484 -0.2825  0.0056  0.0647
  466DPPI    C2 7188  15.715  14.135  10.844  0.0217 -0.0453 -0.0794
  466DPPI    C3 7189  15.331  14.240  10.808  0.0588  0.2103  0.2265
  466DPPI   PO4 7190  15.537  13.867  10.409 -0.3197  0.1215  0.4676
  466DPPI   GL1 7191  15.487  13.677   9.975 -0.0880 -0.2081 -0.3085
  466DPPI   GL2 7192  15.727  13.547   9.767 -0.0642  0.2008 -0.1174
  466DPPI   C1A 7193  15.327  13.779   9.557  0.3441 -0.0648 -0.0493
  466DPPI   C2A 7194  15.392  13.888   9.143  0.2673 -0.5365 -0.1553
  466DPPI   C3A 7195  15.490  13.884   8.680  0.3385 -0.2956  0.1191
  466DPPI   C4A 7196  15.446  13.863   8.247 -0.1449  0.2452 -0.1859
  466DPPI   C1B 7197  15.850  13.630   9.377  0.1300  0.0729  0.1451
  466DPPI   C2B 7198  15.809  13.607   8.961 -0.0625 -0.2821  0.2445
  466DPPI   C3B 7199  15.883  13.651   8.498 -0.4233 -0.1162 -0.0059
  466DPPI   C4B 7200  15.909  13.659   8.123 -0.0233 -0.1654  0.1970
  467DPPI    C1 7201   9.771  12.400   9.561 -0.0324  0.0484 -0.0057
  467DPPI    C2 7202   9.822  12.783   9.459 -0.0501  0.0679  0.0583
  467DPPI    C3 7203   9.624  12.690   9.794 -0.0834  0.0019  0.0203
  467DPPI   PO4 7204   9.912  12.255   9.619  0.1469  0.0706  0.1379
  467DPPI   GL1 7205  10.093  12.003   9.316  0.0288  0.1262 -0.0459
  467DPPI   GL2 7206  10.053  11.679   9.199 -0.0848  0.1491 -0.0635
  467DPPI   C1A 7207  10.195  12.329   8.936 -0.3089  0.0889  0.2728
  467DPPI   C2A 7208  10.422  12.480   8.440  0.2547 -0.3109  0.1336
  467DPPI   C3A 7209  10.650  12.400   8.110 -0.0039  0.0664  0.1699
  467DPPI   C4A 7210  10.818  12.365   7.679 -0.1510  0.2124 -0.0286
  467DPPI   C1B 7211  10.076  11.925   8.746  0.2611 -0.0997 -0.2694
  467DPPI   C2B 7212  10.325  11.951   8.341 -0.0234 -0.1549 -0.0155
  467DPPI   C3B 7213  10.670  11.881   8.080 -0.2055  0.0331 -0.0715
  467DPPI   C4B 7214  11.014  12.059   8.035  0.1680 -0.2288  0.0102
  468DPPI    C1 7215  17.922  15.990  10.242 -0.0127 -0.0095 -0.0155
  468DPPI    C2 7216  18.101  15.848  10.570  0.0287 -0.0129 -0.0396
  468DPPI    C3 7217  17.709  15.790  10.515 -0.0458  0.2722  0.1693
  468DPPI   PO4 7218  18.133  16.277  10.150 -0.0474 -0.2097 -0.0818
  468DPPI   GL1 7219  18.213  16.237   9.722 -0.1333  0.0442  0.1819
  468DPPI   GL2 7220  18.517  15.939   9.577  0.1350  0.0382 -0.0892
  468DPPI   C1A 7221  18.017  16.163   9.385  0.1472  0.1248 -0.3536
  468DPPI   C2A 7222  17.993  16.227   8.910 -0.0209 -0.0131  0.2383
  468DPPI   C3A 7223  18.249  16.283   8.472  0.0491 -0.2011  0.3340
  468DPPI   C4A 7224  18.241  16.490   7.965  0.2253 -0.0381 -0.0105
  468DPPI   C1B 7225  18.455  15.927   9.216 -0.3481 -0.3007 -0.0341
  468DPPI   C2B 7226  18.434  15.909   8.805  0.2619  0.1853 -0.0557
  468DPPI   C3B 7227  18.658  15.932   8.396  0.2523 -0.3602 -0.1270
  468DPPI   C4B 7228  18.627  16.109   7.977 -0.2582  0.3135  0.2184
  469DPPI    C1 7229   4.671   8.955  10.224 -0.0357 -0.0443 -0.1877
  469DPPI    C2 7230   4.618   9.287  10.439 -0.0081 -0.0227 -0.2141
  469DPPI    C3 7231   4.980   9.199  10.294  0.0333 -0.1780 -0.0206
  469DPPI   PO4 7232   4.454   8.977   9.973 -0.0794 -0.1512 -0.0309
  469DPPI   GL1 7233   4.214   8.863   9.634 -0.1102 -0.0452 -0.1140
  469DPPI   GL2 7234   4.395   8.669   9.420 -0.1589 -0.0703  0.0767
  469DPPI   C1A 7235   4.325   9.128   9.227 -0.2684 -0.0389  0.2091
  469DPPI   C2A 7236   4.140   9.551   9.045 -0.0053  0.0113  0.1041
  469DPPI   C3A 7237   4.147   9.745   8.625 -0.0193 -0.2624  0.0741
  469DPPI   C4A 7238   4.120  10.272   8.564  0.1667 -0.1619 -0.0334
  469DPPI   C1B 7239   4.310   8.748   8.946 -0.0686 -0.0025 -0.2241
  469DPPI   C2B 7240   4.515   8.834   8.488 -0.2953 -0.2854  0.1498
  469DPPI   C3B 7241   4.831   8.729   8.159  0.1072 -0.4016  0.1997
  469DPPI   C4B 7242   5.066   9.057   7.828  0.2403  0.1244  0.0201
  470DPPI    C1 7243   0.050   3.204  10.012  0.0322 -0.1427 -0.0129
  470DPPI    C2 7244   0.384   3.126   9.807 -0.0428 -0.2141 -0.1091
  470DPPI    C3 7245   0.343   2.991  10.181  0.1792  0.0890  0.0290
  470DPPI   PO4 7246  -0.123   3.275   9.810 -0.2058 -0.0120 -0.3567
  470DPPI   GL1 7247  -0.312   3.619   9.521  0.3905 -0.1490 -0.0330
  470DPPI   GL2 7248  -0.348   3.465   9.304 -0.0376 -0.0335 -0.1654
  470DPPI   C1A 7249  -0.086   3.863   9.127 -0.0548 -0.1711  0.1403
  470DPPI   C2A 7250  -0.064   3.876   8.672 -0.0028  0.0564 -0.1609
  470DPPI   C3A 7251  -0.111   3.766   8.222  0.0146  0.1814  0.1405
  470DPPI   C4A 7252  -0.286   3.792   7.911  0.0310  0.1354  0.2100
  470DPPI   C1B 7253  -0.630   3.200   9.090  0.5605  0.2060  0.0973
  470DPPI   C2B 7254  -0.597   3.120   8.672 -0.1756 -0.1809 -0.0580
  470DPPI   C3B 7255  -0.668   3.000   8.310 -0.0416 -0.2096 -0.0297
  470DPPI   C4B 7256  -0.902   2.984   7.869  0.1532  0.2747 -0.0756
  471DPPI    C1 7257   3.976  13.913  10.324  0.2320 -0.0843 -0.1319
  471DPPI    C2 7258   4.156  13.786  10.658 -0.1382 -0.0812  0.0742
  471DPPI    C3 7259   4.169  13.562  10.327  0.0950 -0.1601  0.1343
  471DPPI   PO4 7260   4.174  14.186  10.197  0.2906  0.2969  0.1368
  471DPPI   GL1 7261   4.196  14.535   9.994  0.1063 -0.1011 -0.3041
  471DPPI   GL2 7262   3.945  14.731   9.837 -0.3773  0.3217 -0.1061
  471DPPI   C1A 7263   4.371  14.490   9.554  0.2977 -0.0494  0.3041
  471DPPI   C2A 7264   4.198  14.018   9.289  0.3021  0.1609  0.0890
  471DPPI   C3A 7265   4.125  13.881   8.909 -0.1886 -0.1249  0.1418
  471DPPI   C4A 7266   4.035  13.967   8.492 -0.2475  0.1834 -0.0932
  471DPPI   C1B 7267   4.085  14.902   9.450  0.0594 -0.0190 -0.1052
  471DPPI   C2B 7268   4.402  14.836   9.172  0.1237 -0.1084 -0.3803
  471DPPI   C3B 7269   4.465  14.698   8.744  0.0534 -0.0027 -0.0220
  471DPPI   C4B 7270   4.176  14.548   8.381 -0.4262 -0.1167 -0.0242
  472DPPI    C1 7271   1.382   7.405  10.185  0.1940  0.0429 -0.1149
  472DPPI    C2 7272   1.659   7.501  10.457  0.1247  0.1012 -0.0645
  472DPPI    C3 7273   1.390   7.773  10.341 -0.0240 -0.0080  0.0202
  472DPPI   PO4 7274   1.497   7.402   9.891  0.4433  0.1264  0.2223
  472DPPI   GL1 7275   1.548   7.601   9.507 -0.0430  0.0927  0.1962
  472DPPI   GL2 7276   1.401   7.374   9.404  0.0262  0.0839 -0.0299
  472DPPI   C1A 7277   1.488   7.604   9.011 -0.0289  0.0461  0.5011
  472DPPI   C2A 7278   1.295   7.789   8.577  0.4069 -0.0146  0.4910
  472DPPI   C3A 7279   0.966   7.717   8.248  0.0363  0.1291  0.0747
  472DPPI   C4A 7280   0.720   7.912   8.055 -0.1572 -0.0107 -0.0592
  472DPPI   C1B 7281   1.495   7.122   9.102 -0.1012 -0.2647  0.0416
  472DPPI   C2B 7282   1.696   7.250   8.716  0.4201 -0.0320 -0.1369
  472DPPI   C3B 7283   1.958   7.107   8.352  0.0966  0.0566 -0.0136
  472DPPI   C4B 7284   1.982   6.926   7.888 -0.1419  0.1947 -0.1134
  473PYPI    C1 7285   6.908  14.795  10.446  0.0587 -0.0315 -0.1180
  473PYPI    C2 7286   7.177  15.041  10.281  0.1615 -0.0916 -0.0409
  473PYPI    C3 7287   7.191  14.963  10.673 -0.2706  0.2964  0.0605
  473PYPI   PO4 7288   6.853  14.621  10.231  0.2442  0.1512 -0.1477
  473PYPI   GL1 7289   6.765  14.738   9.846  0.0024  0.1464  0.1576
  473PYPI   GL2 7290   6.987  14.741   9.600 -0.2481  0.3117 -0.1247
  473PYPI   C1A 7291   6.551  14.394   9.578 -0.0617 -0.1299  0.0981
  473PYPI   C2A 7292   6.515  14.392   8.999 -0.3818 -0.0474  0.2219
  473PYPI   D3A 7293   6.436  14.295   8.535 -0.1585 -0.0273  0.1589
  473PYPI   C4A 7294   6.366  14.533   8.245 -0.3170 -0.1432  0.0513
  473PYPI   C1B 7295   6.905  14.690   9.155  0.2124 -0.3548 -0.0314
  473PYPI   C2B 7296   7.040  15.082   8.843 -0.0049 -0.0591  0.0730
  473PYPI   C3B 7297   6.922  15.212   8.438  0.5625 -0.1531  0.0427
  473PYPI   C4B 7298   6.571  15.551   8.184  0.1350 -0.0581  0.0331
  474PYPI    C1 7299   7.762   8.033  10.006 -0.0399 -0.0902 -0.0408
  474PYPI    C2 7300   7.437   7.887   9.826 -0.0882 -0.0211 -0.0102
  474PYPI    C3 7301   7.406   8.202  10.070 -0.0085 -0.0559  0.0454
  474PYPI   PO4 7302   7.944   7.994   9.742  0.0666  0.0042 -0.0778
  474PYPI   GL1 7303   7.930   8.215   9.256 -0.0635  0.0059  0.0919
  474PYPI   GL2 7304   8.172   8.257   9.277 -0.2490  0.1334 -0.1280
  474PYPI   C1A 7305   7.661   8.251   8.925  0.0454 -0.0669 -0.1922
  474PYPI   C2A 7306   7.309   8.089   8.878  0.2609  0.1746  0.0532
  474PYPI   D3A 7307   7.057   7.865   8.547 -0.0175 -0.0426 -0.1794
  474PYPI   C4A 7308   7.319   7.714   8.242  0.2167 -0.1233  0.0594
  474PYPI   C1B 7309   8.179   8.048   8.838  0.0347  0.1695 -0.3287
  474PYPI   C2B 7310   8.109   8.067   8.387  0.1557  0.1767  0.0073
  474PYPI   C3B 7311   7.879   8.118   7.999 -0.1083  0.0550  0.0832
  474PYPI   C4B 7312   7.533   8.025   7.878 -0.3460  0.0877 -0.2206
  475PYPI    C1 7313  13.842   0.340  10.028  0.0543  0.1891 -0.1889
  475PYPI    C2 7314  13.917   0.084  10.326  0.0648  0.0311 -0.3261
  475PYPI    C3 7315  14.186   0.364  10.231 -0.0526  0.2555 -0.0134
  475PYPI   PO4 7316  13.595   0.397   9.947  0.1949 -0.4162  0.1710
  475PYPI   GL1 7317  13.528   0.356   9.561 -0.1772 -0.0020  0.0951
  475PYPI   GL2 7318  13.514   0.112   9.434 -0.4710 -0.1414  0.3665
  475PYPI   C1A 7319  13.731   0.622   9.246  0.0081 -0.1836 -0.1436
  475PYPI   C2A 7320  13.756   0.666   8.858  0.0755  0.1685  0.0951
  475PYPI   D3A 7321  13.707   0.684   8.423 -0.6721 -0.0921  0.1044
  475PYPI   C4A 7322  13.327   0.468   8.377  0.0115 -0.1507 -0.0401
  475PYPI   C1B 7323  13.649   0.184   9.064 -0.1787  0.0935 -0.4459
  475PYPI   C2B 7324  13.615   0.210   8.685  0.1036 -0.0908 -0.1243
  475PYPI   C3B 7325  13.657   0.019   8.338 -0.0242  0.3640  0.0633
  475PYPI   C4B 7326  13.697  -0.023   7.949 -0.1087  0.0173 -0.1626
  476PYPI    C1 7327   6.610  16.255  10.290 -0.0644 -0.1062  0.1813
  476PYPI    C2 7328   6.840  16.515  10.489 -0.0438 -0.1017  0.1516
  476PYPI    C3 7329   6.647  16.227  10.687 -0.2197  0.0529  0.2080
  476PYPI   PO4 7330   6.690  16.427   9.961  0.0712 -0.2297 -0.0290
  476PYPI   GL1 7331   6.880  16.345   9.580 -0.0461  0.1866  0.2959
  476PYPI   GL2 7332   6.772  16.185   9.283  0.2862 -0.5043 -0.4164
  476PYPI   C1A 7333   6.923  16.689   9.417  0.1398 -0.0015 -0.0740
  476PYPI   C2A 7334   6.906  16.629   9.057  0.0659  0.2809 -0.1259
  476PYPI   D3A 7335   6.920  16.635   8.549  0.2704 -0.1740 -0.2682
  476PYPI   C4A 7336   7.144  16.898   8.288  0.0163 -0.4439 -0.1530
  476PYPI   C1B 7337   6.582  16.273   8.911  0.0160 -0.1673  0.2664
  476PYPI   C2B 7338   6.487  16.282   8.445 -0.2722  0.0887 -0.1055
  476PYPI   C3B 7339   6.375  16.293   8.040  0.2600  0.1549 -0.1193
  476PYPI   C4B 7340   6.649  16.310   7.676 -0.0873 -0.2748  0.1826
  477PYPI    C1 7341   5.287   7.924   9.865 -0.2057  0.0067  0.1316
  477PYPI    C2 7342   5.634   8.028  10.035 -0.1644 -0.0007  0.0523
  477PYPI    C3 7343   5.297   8.028  10.251 -0.1050 -0.0535  0.1455
  477PYPI   PO4 7344   5.401   8.095   9.614 -0.2098 -0.3775 -0.2740
  477PYPI   GL1 7345   5.811   8.152   9.442  0.3111 -0.2020 -0.4274
  477PYPI   GL2 7346   5.684   8.033   9.178 -0.0854 -0.1730 -0.2430
  477PYPI   C1A 7347   6.105   8.214   9.175  0.5247  0.2941  0.1410
  477PYPI   C2A 7348   6.176   8.280   8.804  0.2392  0.4118 -0.0461
  477PYPI   D3A 7349   6.451   8.423   8.396 -0.0120  0.1529 -0.0581
  477PYPI   C4A 7350   6.280   8.420   8.071 -0.2673 -0.1220  0.2356
  477PYPI   C1B 7351   5.704   7.972   8.739 -0.0125 -0.0286  0.0083
  477PYPI   C2B 7352   5.768   7.539   8.518 -0.1185 -0.0331 -0.0781
  477PYPI   C3B 7353   5.870   7.235   8.186  0.0655  0.3370  0.1995
  477PYPI   C4B 7354   5.952   6.975   7.709  0.0024  0.0547 -0.4322
  478PYPI    C1 7355   8.471   7.934   9.939  0.0969 -0.2056 -0.1845
  478PYPI    C2 7356   8.592   8.193   9.659  0.3391 -0.2956 -0.1654
  478PYPI    C3 7357   8.662   8.269  10.046 -0.2221 -0.0458 -0.1031
  478PYPI   PO4 7358   8.499   7.690   9.801 -0.0689 -0.0091  0.1251
  478PYPI   GL1 7359   8.502   7.767   9.252 -0.0760  0.0434 -0.0218
  478PYPI   GL2 7360   8.131   7.744   9.333 -0.3060  0.1755 -0.0131
  478PYPI   C1A 7361   8.588   7.812   8.816 -0.2221 -0.3079 -0.0937
  478PYPI   C2A 7362   8.590   7.860   8.370 -0.1799 -0.4198  0.4716
  478PYPI   D3A 7363   8.764   7.732   7.923  0.2305  0.2483 -0.1829
  478PYPI   C4A 7364   8.837   8.086   7.670 -0.2667  0.2607 -0.0285
  478PYPI   C1B 7365   8.170   7.496   8.983  0.0248 -0.1769  0.0443
  478PYPI   C2B 7366   8.259   7.480   8.605  0.0901  0.0681  0.1867
  478PYPI   C3B 7367   8.328   7.432   8.149 -0.0731 -0.1616  0.0786
  478PYPI   C4B 7368   8.343   7.469   7.750  0.3103 -0.0281 -0.4205
  479PYPI    C1 7369   1.745   6.458  10.218  0.0840  0.3073  0.0887
  479PYPI    C2 7370   1.352   6.534  10.227  0.0274  0.0283  0.0447
  479PYPI    C3 7371   1.521   6.315  10.516  0.1110 -0.0339 -0.0504
  479PYPI   PO4 7372   1.833   6.366   9.994 -0.0875  0.2711  0.0934
  479PYPI   GL1 7373   1.681   6.302   9.654 -0.0909 -0.1127  0.2499
  479PYPI   GL2 7374   1.887   6.197   9.399  0.0230  0.1961 -0.2598
  479PYPI   C1A 7375   1.327   6.210   9.528  0.0250 -0.0239  0.1116
  479PYPI   C2A 7376   1.125   6.280   9.189 -0.6785 -0.2532  0.3409
  479PYPI   D3A 7377   1.018   6.243   8.781 -0.2496  0.1752  0.2520
  479PYPI   C4A 7378   1.011   5.975   8.376  0.0534  0.1781  0.0377
  479PYPI   C1B 7379   1.666   6.071   9.038 -0.1908 -0.2258 -0.2040
  479PYPI   C2B 7380   1.523   5.968   8.678 -0.0810 -0.1132 -0.2810
  479PYPI   C3B 7381   1.652   5.743   8.290  0.1145 -0.3991  0.0767
  479PYPI   C4B 7382   1.666   5.538   7.847 -0.1021 -0.0472 -0.0020
  480PYPI    C1 7383  10.518   1.214  10.339  0.2208 -0.1568  0.1080
  480PYPI    C2 7384  10.218   0.973  10.228  0.0022  0.1563  0.0061
  480PYPI    C3 7385  10.217   1.142  10.591  0.2443 -0.1295  0.1440
  480PYPI   PO4 7386  10.550   1.295  10.008  0.1257  0.1370 -0.0440
  480PYPI   GL1 7387  10.275   1.261   9.793  0.1004  0.1833  0.0949
  480PYPI   GL2 7388  10.221   1.644   9.845 -0.0875 -0.0840 -0.1626
  480PYPI   C1A 7389  10.311   0.927   9.471  0.1224  0.2345 -0.0147
  480PYPI   C2A 7390  10.467   0.903   9.067  0.1682 -0.0472  0.0287
  480PYPI   D3A 7391  10.657   0.969   8.686  0.0167 -0.2365 -0.0131
  480PYPI   C4A 7392  10.566   1.431   8.461  0.3382  0.0519 -0.1770
  480PYPI   C1B 7393   9.921   1.709   9.444  0.2501 -0.0840  0.3869
  480PYPI   C2B 7394   9.884   1.903   9.085 -0.3096 -0.1793  0.3252
  480PYPI   C3B 7395  10.049   2.124   8.747 -0.1506  0.1748 -0.1144
  480PYPI   C4B 7396  10.057   2.282   8.339  0.2112  0.2490  0.1123
  481PYPI    C1 7397  14.594   6.000  10.182  0.0789  0.0503 -0.1185
  481PYPI    C2 7398  14.564   6.345  10.381  0.0819  0.0102 -0.0484
  481PYPI    C3 7399  14.560   5.998  10.580  0.1770 -0.0267 -0.1099
  481PYPI   PO4 7400  14.772   6.134   9.916 -0.0588 -0.0941  0.3253
  481PYPI   GL1 7401  14.782   5.947   9.546 -0.1754  0.0758  0.2169
  481PYPI   GL2 7402  15.162   5.796   9.558 -0.0095  0.4531 -0.1930
  481PYPI   C1A 7403  14.792   6.162   9.175  0.1914 -0.0519 -0.0467
  481PYPI   C2A 7404  14.565   6.206   8.837 -0.1636 -0.0252 -0.1195
  481PYPI   D3A 7405  14.390   6.536   8.465 -0.5478  0.1980  0.0375
  481PYPI   C4A 7406  14.518   6.491   8.102  0.0101 -0.1548  0.1885
  481PYPI   C1B 7407  15.200   5.887   9.146  0.1981  0.1286  0.1009
  481PYPI   C2B 7408  14.960   5.808   8.904  0.0163 -0.0521  0.1412
  481PYPI   C3B 7409  15.016   5.725   8.505  0.1257  0.0258 -0.0382
  481PYPI   C4B 7410  14.936   5.677   8.091 -0.0643  0.1106  0.0098
  482PYPI    C1 7411  15.779   0.327   9.852 -0.0896  0.0331  0.3238
  482PYPI    C2 7412  15.924   0.698   9.883 -0.3588  0.1614  0.0947
  482PYPI    C3 7413  15.727   0.535  10.190 -0.2348  0.2043  0.1982
  482PYPI   PO4 7414  15.663   0.245   9.649 -0.3737 -0.1679 -0.1126
  482PYPI   GL1 7415  15.546   0.403   9.229  0.1189 -0.1408  0.0030
  482PYPI   GL2 7416  15.221   0.416   9.056  0.3705 -0.2129 -0.2356
  482PYPI   C1A 7417  15.871   0.532   8.852 -0.1122 -0.3917 -0.0136
  482PYPI   C2A 7418  16.014   0.388   8.515 -0.2569 -0.1663 -0.0432
  482PYPI   D3A 7419  16.098   0.303   8.152 -0.1182 -0.3129 -0.0540
  482PYPI   C4A 7420  16.456   0.546   8.096 -0.0635 -0.2387  0.1640
  482PYPI   C1B 7421  15.188   0.564   8.668  0.0891  0.1481  0.3467
  482PYPI   C2B 7422  15.116   0.563   8.237  0.2643 -0.3462 -0.1790
  482PYPI   C3B 7423  15.091   0.691   7.776  0.1685 -0.1037  0.2089
  482PYPI   C4B 7424  15.118   1.004   7.400 -0.1747 -0.0628  0.3163
  483PYPI    C1 7425  10.365   6.500   9.797  0.0957  0.0767 -0.0216
  483PYPI    C2 7426  10.497   6.182  10.000  0.2447  0.2294  0.1243
  483PYPI    C3 7427  10.132   6.328  10.072  0.1673  0.0794  0.0412
  483PYPI   PO4 7428  10.417   6.464   9.579  0.2270 -0.2226  0.2019
  483PYPI   GL1 7429  10.489   6.706   9.322  0.2804  0.1221 -0.0796
  483PYPI   GL2 7430  10.625   6.907   9.072  0.4165 -0.0706  0.0928
  483PYPI   C1A 7431  10.113   6.962   9.157 -0.1898 -0.2126  0.0607
  483PYPI   C2A 7432   9.886   6.927   8.762  0.2588 -0.2601 -0.0559
  483PYPI   D3A 7433   9.737   6.677   8.383 -0.3089 -0.0179 -0.2404
  483PYPI   C4A 7434   9.448   6.517   8.136  0.1969  0.1157 -0.0609
  483PYPI   C1B 7435  10.392   6.983   8.725 -0.1257  0.0939 -0.1444
  483PYPI   C2B 7436  10.210   7.063   8.381 -0.0665 -0.3818  0.0494
  483PYPI   C3B 7437   9.981   7.190   7.957 -0.1943  0.5619 -0.1772
  483PYPI   C4B 7438  10.173   7.318   7.526  0.2038  0.1875 -0.1428
  484PYPI    C1 7439   6.403   5.797  10.643  0.1727  0.0795  0.1909
  484PYPI    C2 7440   6.623   6.047  10.865 -0.1066  0.2965  0.2292
  484PYPI    C3 7441   6.240   5.980  10.959 -0.0446 -0.1266  0.2011
  484PYPI   PO4 7442   6.558   5.898  10.366 -0.1284 -0.0531  0.3392
  484PYPI   GL1 7443   6.630   5.848   9.936  0.0725 -0.0745  0.2269
  484PYPI   GL2 7444   6.246   5.841   9.829  0.1632 -0.3174  0.0763
  484PYPI   C1A 7445   6.543   5.664   9.534 -0.3902  0.4503  0.0415
  484PYPI   C2A 7446   6.350   5.450   9.223  0.5181  0.2068  0.1767
  484PYPI   D3A 7447   6.356   5.465   8.766  0.0785 -0.1851  0.1751
  484PYPI   C4A 7448   6.013   5.104   8.681 -0.1174 -0.0815 -0.1841
  484PYPI   C1B 7449   6.070   5.850   9.457 -0.2590 -0.0172  0.0482
  484PYPI   C2B 7450   6.119   5.872   9.043 -0.1359  0.1142  0.3922
  484PYPI   C3B 7451   6.283   5.919   8.530  0.0828  0.1113 -0.3007
  484PYPI   C4B 7452   6.362   5.882   8.104  0.0639 -0.1402 -0.0869
  485PYPI    C1 7453   0.979  10.431  10.090  0.1907  0.3310  0.1261
  485PYPI    C2 7454   0.805  10.621  10.395 -0.1366 -0.0281  0.1714
  485PYPI    C3 7455   1.025  10.295  10.463 -0.0821 -0.0199  0.0374
  485PYPI   PO4 7456   1.086  10.629   9.937 -0.1576  0.3189  0.1742
  485PYPI   GL1 7457   1.004  10.777   9.446 -0.0001 -0.0926  0.0687
  485PYPI   GL2 7458   1.337  10.706   9.552 -0.1796  0.2738  0.3206
  485PYPI   C1A 7459   1.046  10.782   9.124 -0.0270  0.2551  0.1986
  485PYPI   C2A 7460   1.156  10.995   8.699 -0.1762  0.2246  0.2648
  485PYPI   D3A 7461   1.134  11.391   8.594 -0.1561 -0.0163  0.0068
  485PYPI   C4A 7462   1.044  11.625   8.149  0.1032 -0.0850 -0.1647
  485PYPI   C1B 7463   1.436  10.524   9.191  0.1734  0.2625 -0.0691
  485PYPI   C2B 7464   1.462  10.548   8.761  0.1674 -0.0635  0.1403
  485PYPI   C3B 7465   1.373  10.704   8.328  0.0467  0.1002  0.0292
  485PYPI   C4B 7466   1.208  11.104   8.214 -0.2776  0.2708  0.2040
  486PYPI    C1 7467  17.253  18.275  10.437 -0.2985  0.0015 -0.0363
  486PYPI    C2 7468  17.092  18.640  10.409 -0.0567  0.1004 -0.1632
  486PYPI    C3 7469  17.470  18.596  10.534  0.0644 -0.0683 -0.5722
  486PYPI   PO4 7470  17.161  18.149  10.138 -0.0419 -0.0866 -0.2868
  486PYPI   GL1 7471  17.138  18.061   9.738  0.1553 -0.0452  0.2536
  486PYPI   GL2 7472  17.396  18.232   9.678  0.2864 -0.0163  0.1464
  486PYPI   C1A 7473  16.926  17.782   9.443 -0.1142 -0.3139 -0.1824
  486PYPI   C2A 7474  16.702  17.801   9.069  0.0488  0.1765 -0.0566
  486PYPI   D3A 7475  16.574  17.543   8.629 -0.1165 -0.1004 -0.0940
  486PYPI   C4A 7476  16.808  17.340   8.465 -0.0689 -0.1236 -0.1023
  486PYPI   C1B 7477  17.333  18.074   9.253  0.0514 -0.0048  0.0172
  486PYPI   C2B 7478  17.346  17.915   8.775  0.2117  0.2431 -0.1407
  486PYPI   C3B 7479  17.540  17.976   8.307 -0.2093 -0.1377 -0.2014
  486PYPI   C4B 7480  17.433  17.874   7.879 -0.2226  0.0561 -0.2882
  487PYPI    C1 7481   0.552  14.538  10.292 -0.1374 -0.0194 -0.0455
  487PYPI    C2 7482   0.573  14.779   9.974 -0.0486 -0.0511 -0.0639
  487PYPI    C3 7483   0.518  14.933  10.339  0.1148  0.0061 -0.0623
  487PYPI   PO4 7484   0.458  14.362  10.207 -0.0079 -0.2599  0.0575
  487PYPI   GL1 7485   0.504  14.238   9.875 -0.2445  0.1549 -0.1078
  487PYPI   GL2 7486   0.122  14.200   9.740  0.3229  0.4354 -0.0217
  487PYPI   C1A 7487   0.471  14.204   9.357 -0.2201  0.1685 -0.0643
  487PYPI   C2A 7488   0.443  14.092   8.858 -0.1473  0.2348  0.2871
  487PYPI   D3A 7489   0.536  14.123   8.407 -0.0388 -0.2552  0.3593
  487PYPI   C4A 7490   0.461  14.627   8.264 -0.1354  0.0121 -0.1913
  487PYPI   C1B 7491  -0.034  14.022   9.283  0.0405 -0.0970 -0.0966
  487PYPI   C2B 7492   0.001  13.806   8.856 -0.0673 -0.0655 -0.1233
  487PYPI   C3B 7493  -0.126  13.793   8.391  0.0753 -0.2854  0.0024
  487PYPI   C4B 7494  -0.097  13.474   8.137  0.1000  0.1391  0.1709
  488PYPI    C1 7495   6.453   4.920  10.616 -0.0215  0.1314 -0.0956
  488PYPI    C2 7496   6.621   5.173  10.877  0.0413 -0.0039 -0.0042
  488PYPI    C3 7497   6.661   4.778  10.926 -0.0367 -0.0320 -0.1596
  488PYPI   PO4 7498   6.519   4.956  10.296 -0.1013  0.2752  0.0542
  488PYPI   GL1 7499   6.660   4.550   9.944  0.0577 -0.2310  0.0826
  488PYPI   GL2 7500   6.609   4.185  10.039  0.1469  0.1391  0.0823
  488PYPI   C1A 7501   6.671   4.312   9.580  0.1670  0.0830 -0.1628
  488PYPI   C2A 7502   6.852   3.954   9.385  0.0863  0.2819  0.1913
  488PYPI   D3A 7503   6.985   4.010   8.949  0.0882  0.0404 -0.3847
  488PYPI   C4A 7504   7.313   3.955   8.857 -0.1003  0.0369  0.3387
  488PYPI   C1B 7505   6.818   3.887   9.869  0.2676  0.4258  0.1961
  488PYPI   C2B 7506   7.081   3.566   9.712  0.0139 -0.0213 -0.1749
  488PYPI   C3B 7507   7.042   3.512   9.254  0.3821 -0.0819 -0.0780
  488PYPI   C4B 7508   6.734   3.533   8.895 -0.0149 -0.1868 -0.0374
  489PYPI    C1 7509   3.558   4.911  10.161 -0.2097  0.2528 -0.0333
  489PYPI    C2 7510   3.809   5.217  10.102  0.1383 -0.0677 -0.2675
  489PYPI    C3 7511   3.632   5.169  10.458  0.7301 -0.0621  0.0404
  489PYPI   PO4 7512   3.526   4.864   9.851 -0.3648  0.2292  0.0066
  489PYPI   GL1 7513   3.350   4.651   9.549  0.1185 -0.1394  0.0337
  489PYPI   GL2 7514   3.161   5.003   9.514  0.0821 -0.0860  0.0842
  489PYPI   C1A 7515   3.290   4.589   9.116  0.0681  0.1658 -0.1107
  489PYPI   C2A 7516   3.364   4.506   8.681  0.2187 -0.0063  0.0493
  489PYPI   D3A 7517   3.391   4.203   8.437  0.2168  0.3028 -0.2972
  489PYPI   C4A 7518   3.337   4.106   8.047  0.0853 -0.0534 -0.2513
  489PYPI   C1B 7519   3.114   4.997   9.007 -0.0970 -0.1034 -0.2763
  489PYPI   C2B 7520   3.257   4.997   8.614  0.2479 -0.1023 -0.0642
  489PYPI   C3B 7521   3.336   5.085   8.258  0.1281 -0.0315 -0.2029
  489PYPI   C4B 7522   3.444   5.232   7.885  0.0985  0.0447  0.1084
  490PYPI    C1 7523   4.846  11.789   9.970 -0.0530  0.0364  0.1733
  490PYPI    C2 7524   5.072  12.071  10.141 -0.2335  0.0500  0.3938
  490PYPI    C3 7525   5.237  11.810   9.886 -0.0119  0.1856  0.3957
  490PYPI   PO4 7526   4.561  12.019   9.896 -0.1576  0.0259  0.2441
  490PYPI   GL1 7527   4.370  11.898   9.543 -0.1147  0.1945  0.2576
  490PYPI   GL2 7528   4.693  11.686   9.528 -0.2198  0.2918  0.0401
  490PYPI   C1A 7529   4.304  11.950   9.169  0.2600  0.0739 -0.2848
  490PYPI   C2A 7530   4.478  11.686   8.827  0.1823 -0.3099  0.2043
  490PYPI   D3A 7531   4.586  11.522   8.453  0.3237 -0.2412 -0.0775
  490PYPI   C4A 7532   4.449  11.580   8.107  0.1121 -0.2929 -0.0127
  490PYPI   C1B 7533   4.872  11.546   9.133  0.2855 -0.0671  0.0134
  490PYPI   C2B 7534   4.940  11.351   8.754 -0.1785  0.0602 -0.2366
  490PYPI   C3B 7535   5.061  11.331   8.406  0.0891 -0.0635 -0.1351
  490PYPI   C4B 7536   4.914  11.443   8.073 -0.1121  0.1312 -0.1378
  491PYPI    C1 7537  17.646   8.968  10.287 -0.1063  0.0386 -0.3686
  491PYPI    C2 7538  17.382   9.174  10.506 -0.3090 -0.1628 -0.4199
  491PYPI    C3 7539  17.439   8.784  10.575  0.0526 -0.1003 -0.3411
  491PYPI   PO4 7540  17.484   8.969   9.982 -0.4214 -0.0726 -0.1732
  491PYPI   GL1 7541  16.988   8.817   9.784  0.0145 -0.2434 -0.2425
  491PYPI   GL2 7542  16.770   8.636   9.771  0.0940 -0.2052  0.1187
  491PYPI   C1A 7543  16.725   8.830   9.320  0.1196  0.1138  0.2448
  491PYPI   C2A 7544  16.580   8.846   8.867 -0.2328  0.4248 -0.4265
  491PYPI   D3A 7545  16.609   8.678   8.453  0.1674  0.5546 -0.0814
  491PYPI   C4A 7546  16.908   8.786   8.071 -0.0420 -0.1165  0.2040
  491PYPI   C1B 7547  16.582   8.371   9.614 -0.3698  0.0010 -0.1964
  491PYPI   C2B 7548  16.271   8.446   9.325 -0.1530 -0.0409 -0.0518
  491PYPI   C3B 7549  15.983   8.302   9.031  0.1390  0.2460 -0.1544
  491PYPI   C4B 7550  15.884   8.329   8.594 -0.0126 -0.2969 -0.0442
  492PYPI    C1 7551   5.567   8.882  10.087  0.1119 -0.2164 -0.0859
  492PYPI    C2 7552   5.484   8.838  10.476 -0.1971  0.2830 -0.0865
  492PYPI    C3 7553   5.851   8.949  10.361 -0.0536 -0.0420  0.0463
  492PYPI   PO4 7554   5.333   8.965   9.998  0.0959 -0.2622 -0.1704
  492PYPI   GL1 7555   5.288   8.929   9.544 -0.0135 -0.2995 -0.3349
  492PYPI   GL2 7556   5.522   8.806   9.488  0.0294 -0.0185 -0.0790
  492PYPI   C1A 7557   5.310   8.825   9.023  0.0512  0.3057 -0.4488
  492PYPI   C2A 7558   5.160   8.483   8.802 -0.1889 -0.1363  0.1521
  492PYPI   D3A 7559   5.041   8.215   8.490 -0.0574 -0.1991  0.2412
  492PYPI   C4A 7560   4.644   8.332   8.382  0.1853 -0.2439  0.1885
  492PYPI   C1B 7561   5.848   8.662   9.262  0.0512 -0.1494 -0.1057
  492PYPI   C2B 7562   5.683   8.428   8.861  0.2292 -0.0140  0.0027
  492PYPI   C3B 7563   5.546   8.303   8.371  0.0971  0.1066  0.1772
  492PYPI   C4B 7564   5.741   8.176   7.945 -0.1293 -0.1947 -0.1204
  493PYPI    C1 7565  14.443   8.909   9.869 -0.2759 -0.1795  0.2689
  493PYPI    C2 7566  14.348   9.284   9.768  0.1790 -0.1188  0.0407
  493PYPI    C3 7567  14.318   9.165  10.149  0.0575  0.1560  0.1192
  493PYPI   PO4 7568  14.283   8.729   9.705  0.1214 -0.0771  0.3895
  493PYPI   GL1 7569  14.018   8.832   9.320 -0.1113 -0.0792  0.2566
  493PYPI   GL2 7570  14.023   8.454   9.317 -0.2010  0.3563  0.6409
  493PYPI   C1A 7571  13.957   9.058   8.931 -0.0094  0.2336 -0.1817
  493PYPI   C2A 7572  14.289   9.286   8.739 -0.1842  0.1225  0.0421
  493PYPI   D3A 7573  14.435   9.326   8.362 -0.1341 -0.1330  0.2594
  493PYPI   C4A 7574  14.147   9.569   8.149  0.1254 -0.1032  0.1958
  493PYPI   C1B 7575  14.148   8.467   8.837 -0.0409 -0.1962  0.1065
  493PYPI   C2B 7576  13.969   8.633   8.562 -0.0716  0.0921  0.1270
  493PYPI   C3B 7577  13.999   9.024   8.331 -0.0396  0.1560 -0.1905
  493PYPI   C4B 7578  14.086   9.033   7.902 -0.0441  0.2356  0.0017
  494PYPI    C1 7579   4.235  17.925  10.519 -0.0600 -0.2189 -0.3596
  494PYPI    C2 7580   3.977  17.649  10.651  0.1534 -0.1797  0.1646
  494PYPI    C3 7581   4.281  17.765  10.883  0.1751  0.3664 -0.1201
  494PYPI   PO4 7582   4.242  17.878  10.273 -0.3192 -0.1041  0.4438
  494PYPI   GL1 7583   4.124  17.924   9.876  0.0959  0.0621  0.1647
  494PYPI   GL2 7584   4.239  17.674   9.802 -0.2579  0.0009  0.0565
  494PYPI   C1A 7585   3.732  17.649   9.652  0.1500  0.0634  0.1629
  494PYPI   C2A 7586   3.808  17.544   9.126 -0.0143  0.0459 -0.0762
  494PYPI   D3A 7587   3.772  17.607   8.687  0.0797 -0.1912  0.2219
  494PYPI   C4A 7588   3.892  17.903   8.511 -0.0707  0.1460  0.3793
  494PYPI   C1B 7589   4.203  17.781   9.292  0.0845 -0.2399 -0.2167
  494PYPI   C2B 7590   4.167  17.993   8.987 -0.0588 -0.1111  0.1558
  494PYPI   C3B 7591   4.032  18.315   8.692 -0.4771 -0.0793  0.2120
  494PYPI   C4B 7592   4.162  18.236   8.205 -0.0218  0.0006  0.1332
  495PYPI    C1 7593   9.218   6.459   9.886 -0.1745  0.1344 -0.3242
  495PYPI    C2 7594   9.524   6.214   9.805 -0.1389  0.1350 -0.1931
  495PYPI    C3 7595   9.173   6.064   9.925 -0.0174  0.1623  0.2097
  495PYPI   PO4 7596   9.336   6.690   9.701 -0.2779  0.3150 -0.0894
  495PYPI   GL1 7597   9.000   6.774   9.444  0.1984 -0.1767  0.2248
  495PYPI   GL2 7598   9.027   6.375   9.356 -0.1040  0.0140 -0.0486
  495PYPI   C1A 7599   8.743   6.625   9.031  0.1100 -0.2356 -0.3789
  495PYPI   C2A 7600   8.641   6.662   8.626  0.3014  0.0121 -0.0282
  495PYPI   D3A 7601   8.986   6.467   8.273  0.1796 -0.0648 -0.0076
  495PYPI   C4A 7602   8.936   6.588   7.910 -0.0141  0.1387 -0.1261
  495PYPI   C1B 7603   9.155   6.387   8.885 -0.0247  0.1028 -0.0224
  495PYPI   C2B 7604   9.350   6.248   8.542 -0.0699 -0.3128  0.2089
  495PYPI   C3B 7605   9.239   6.047   8.093 -0.0563 -0.0566  0.0686
  495PYPI   C4B 7606   9.033   5.669   8.170 -0.0788  0.2838  0.2800
  496PYPI    C1 7607  18.640  12.828  10.347 -0.1548  0.1578 -0.1717
  496PYPI    C2 7608  18.363  13.099  10.444 -0.1962 -0.0323  0.2682
  496PYPI    C3 7609  18.498  12.844  10.720  0.3891  0.0265  0.0511
  496PYPI   PO4 7610  18.802  12.975  10.209 -0.0868 -0.2545  0.1704
  496PYPI   GL1 7611  18.611  13.273   9.958 -0.0861 -0.2093 -0.3780
  496PYPI   GL2 7612  18.493  13.417  10.012  0.1337 -0.2524  0.0562
  496PYPI   C1A 7613  18.653  13.279   9.560  0.1275  0.0042 -0.1722
  496PYPI   C2A 7614  18.723  13.311   9.095 -0.0985 -0.1580  0.1743
  496PYPI   D3A 7615  18.618  13.316   8.578 -0.1369 -0.1349 -0.2626
  496PYPI   C4A 7616  18.225  13.212   8.301  0.2275 -0.1768 -0.2591
  496PYPI   C1B 7617  18.490  13.765   9.752 -0.1584  0.2291  0.0789
  496PYPI   C2B 7618  18.451  13.623   9.280  0.3472 -0.0010 -0.2080
  496PYPI   C3B 7619  18.290  13.550   8.902  0.0110  0.1871 -0.0085
  496PYPI   C4B 7620  18.126  13.658   8.462 -0.3259  0.2900  0.0412
  497PYPI    C1 7621  10.007  16.728   9.728  0.0889 -0.1184  0.1280
  497PYPI    C2 7622   9.796  16.728  10.067 -0.0308  0.0762  0.0553
  497PYPI    C3 7623   9.997  17.055   9.957  0.3805 -0.1331  0.1650
  497PYPI   PO4 7624   9.838  16.602   9.487  0.1648  0.4027  0.2618
  497PYPI   GL1 7625   9.784  16.404   9.183 -0.0881  0.0836  0.1422
  497PYPI   GL2 7626  10.096  16.512   9.026  0.3071 -0.1210  0.2945
  497PYPI   C1A 7627   9.380  16.539   8.951  0.2834  0.2360 -0.0572
  497PYPI   C2A 7628   9.296  16.695   8.541  0.0505  0.0842 -0.2712
  497PYPI   D3A 7629   9.257  16.728   8.145  0.1468  0.1001 -0.0167
  497PYPI   C4A 7630   9.061  17.149   8.007 -0.0785 -0.1501 -0.0601
  497PYPI   C1B 7631   9.806  16.734   8.756  0.2259 -0.0058  0.3397
  497PYPI   C2B 7632   9.755  16.727   8.321  0.1475  0.0664 -0.1328
  497PYPI   C3B 7633   9.913  16.944   7.914 -0.0693 -0.4425 -0.0052
  497PYPI   C4B 7634  10.302  16.887   7.763  0.1976 -0.3677  0.1756
  498PYPI    C1 7635  12.799   6.763   9.532 -0.2308 -0.0322 -0.1637
  498PYPI    C2 7636  12.724   6.483   9.808 -0.3043  0.2486  0.1066
  498PYPI    C3 7637  12.696   6.393   9.419  0.0353 -0.2179  0.1810
  498PYPI   PO4 7638  12.910   6.853   9.485  0.1637 -0.0057 -0.0988
  498PYPI   GL1 7639  13.124   6.705   9.166 -0.4849 -0.3343  0.0749
  498PYPI   GL2 7640  13.417   6.812   9.293  0.1007 -0.1812  0.1854
  498PYPI   C1A 7641  13.024   6.810   8.726  0.0045 -0.2549 -0.1521
  498PYPI   C2A 7642  12.821   6.966   8.398  0.1506  0.0591 -0.2218
  498PYPI   D3A 7643  12.845   7.201   7.996 -0.1070 -0.1419 -0.0142
  498PYPI   C4A 7644  13.196   7.280   7.826 -0.1602 -0.1471  0.3477
  498PYPI   C1B 7645  13.592   7.065   8.968 -0.1191 -0.0750 -0.1032
  498PYPI   C2B 7646  13.922   7.190   8.593  0.0100 -0.1217  0.2383
  498PYPI   C3B 7647  13.962   6.952   8.234  0.1260 -0.0655 -0.2824
  498PYPI   C4B 7648  14.197   6.863   7.886 -0.0859  0.0145  0.0394
  499PYPI    C1 7649  12.642   7.701   9.795  0.1922 -0.0703 -0.1259
  499PYPI    C2 7650  12.936   7.967   9.849  0.1969 -0.0776 -0.1148
  499PYPI    C3 7651  12.678   7.890  10.146  0.2712 -0.1771 -0.0757
  499PYPI   PO4 7652  12.582   7.769   9.535 -0.0661 -0.1915  0.0105
  499PYPI   GL1 7653  12.679   7.395   9.196  0.0851  0.2857  0.0462
  499PYPI   GL2 7654  12.820   7.664   9.121  0.1051  0.0484 -0.2286
  499PYPI   C1A 7655  12.294   7.462   8.806  0.2158 -0.1048  0.0603
  499PYPI   C2A 7656  12.437   7.465   8.408 -0.2117 -0.0607  0.1761
  499PYPI   D3A 7657  12.409   7.675   8.068  0.1219 -0.1238  0.0451
  499PYPI   C4A 7658  12.495   7.423   7.731  0.1434 -0.2324  0.1862
  499PYPI   C1B 7659  12.854   7.583   8.616 -0.0903  0.0459  0.0072
  499PYPI   C2B 7660  12.941   7.601   8.193  0.3230  0.2018  0.0656
  499PYPI   C3B 7661  13.017   7.703   7.723 -0.1115  0.1677  0.3060
  499PYPI   C4B 7662  12.953   7.678   7.264  0.3294 -0.0389  0.3821
  500PYPI    C1 7663   1.768  11.666  10.283 -0.0751  0.0402 -0.2131
  500PYPI    C2 7664   1.727  11.288  10.158 -0.1279 -0.0795  0.1538
  500PYPI    C3 7665   1.998  11.378  10.438 -0.1306  0.1526  0.0841
  500PYPI   PO4 7666   1.749  11.810  10.118 -0.2241 -0.0611 -0.0144
  500PYPI   GL1 7667   1.899  11.907   9.717 -0.0145  0.3427  0.0137
  500PYPI   GL2 7668   2.232  12.118   9.888  0.1679 -0.2376 -0.0765
  500PYPI   C1A 7669   1.658  11.905   9.321 -0.0466 -0.0569 -0.2706
  500PYPI   C2A 7670   1.693  11.554   8.956 -0.1060  0.0655  0.1275
  500PYPI   D3A 7671   1.661  11.417   8.548  0.5103  0.0510 -0.1489
  500PYPI   C4A 7672   1.512  11.531   8.273  0.2532  0.1384  0.1755
  500PYPI   C1B 7673   2.517  12.204   9.506  0.0739 -0.0439  0.2957
  500PYPI   C2B 7674   2.615  12.226   9.040 -0.1665 -0.1545  0.3047
  500PYPI   C3B 7675   2.392  12.133   8.588 -0.0305 -0.4542 -0.2418
  500PYPI   C4B 7676   2.411  12.161   8.042  0.1440 -0.1581 -0.3386
  501PYPI    C1 7677  15.718   9.165  10.256 -0.0359  0.1111  0.1401
  501PYPI    C2 7678  15.385   8.948  10.302  0.0096  0.0604  0.2324
  501PYPI    C3 7679  15.390   9.332  10.413 -0.0186  0.0617  0.2295
  501PYPI   PO4 7680  15.924   9.007  10.079  0.0655  0.1235 -0.1817
  501PYPI   GL1 7681  15.825   8.857   9.769  0.1557  0.2310 -0.0494
  501PYPI   GL2 7682  16.191   8.900   9.632 -0.2213 -0.0566  0.2091
  501PYPI   C1A 7683  15.596   8.727   9.478 -0.3950  0.0932  0.1701
  501PYPI   C2A 7684  15.352   8.936   9.198 -0.2421  0.0192 -0.2383
  501PYPI   D3A 7685  15.229   9.339   9.029 -0.1684 -0.0616 -0.2956
  501PYPI   C4A 7686  15.534   9.569   8.776 -0.1481 -0.1104 -0.1421
  501PYPI   C1B 7687  16.239   8.901   9.196 -0.2133  0.3271 -0.1521
  501PYPI   C2B 7688  16.039   8.798   8.782 -0.3899  0.0368  0.1279
  501PYPI   C3B 7689  16.145   8.867   8.342  0.2027  0.0401 -0.3730
  501PYPI   C4B 7690  16.053   9.227   8.081  0.1349 -0.2470 -0.0106
  502PYPI    C1 7691   1.617   9.534   9.988  0.1309 -0.1044 -0.0424
  502PYPI    C2 7692   1.818   9.746  10.261  0.0965  0.0390 -0.1277
  502PYPI    C3 7693   1.725   9.364  10.334  0.2558  0.0201 -0.0195
  502PYPI   PO4 7694   1.627   9.788   9.756 -0.0217  0.2758 -0.1394
  502PYPI   GL1 7695   1.527  10.000   9.440 -0.5084  0.0595 -0.1799
  502PYPI   GL2 7696   1.322   9.773   9.341 -0.3971  0.1164  0.0346
  502PYPI   C1A 7697   1.577  10.103   8.973  0.1505  0.1825  0.2724
  502PYPI   C2A 7698   1.508  10.056   8.589  0.3612 -0.5197  0.0157
  502PYPI   D3A 7699   1.284  10.127   8.295 -0.0253  0.3150 -0.4618
  502PYPI   C4A 7700   1.388  10.116   7.927  0.2408 -0.1793  0.0536
  502PYPI   C1B 7701   1.187   9.769   8.914  0.0077  0.0418  0.1522
  502PYPI   C2B 7702   1.044   9.805   8.561 -0.1131 -0.2877  0.0229
  502PYPI   C3B 7703   0.777   9.726   8.256  0.1740 -0.0525 -0.1577
  502PYPI   C4B 7704   0.892   9.710   7.882  0.1382  0.3221  0.1932
  503PYPI    C1 7705  14.576   4.616  10.230 -0.0669  0.0818  0.0765
  503PYPI    C2 7706  14.176   4.600  10.209 -0.0761  0.3606 -0.0026
  503PYPI    C3 7707  14.356   4.662  10.561 -0.0966  0.1196  0.0517
  503PYPI   PO4 7708  14.581   4.372   9.913  0.1435 -0.2840  0.1305
  503PYPI   GL1 7709  14.619   4.306   9.442  0.2016 -0.0888  0.0118
  503PYPI   GL2 7710  14.825   4.453   9.456 -0.0096 -0.0755  0.0963
  503PYPI   C1A 7711  14.658   4.103   9.162  0.2829 -0.2022  0.2683
  503PYPI   C2A 7712  14.721   3.796   8.825  0.0622  0.0918 -0.3150
  503PYPI   D3A 7713  14.781   3.683   8.446  0.2377 -0.0597  0.1411
  503PYPI   C4A 7714  14.483   3.849   8.089 -0.2019 -0.2695  0.0779
  503PYPI   C1B 7715  14.935   4.549   9.037  0.0344 -0.3425  0.1372
  503PYPI   C2B 7716  14.877   4.247   8.597  0.2745  0.2342  0.1180
  503PYPI   C3B 7717  14.471   4.152   8.501 -0.0082 -0.2455  0.1827
  503PYPI   C4B 7718  14.055   4.098   8.318 -0.1151 -0.1211 -0.0825
  504PYPI    C1 7719  10.756  13.763   9.580 -0.0008 -0.1683  0.2374
  504PYPI    C2 7720  10.427  13.931   9.428  0.0009 -0.1936  0.2058
  504PYPI    C3 7721  10.395  13.623   9.680 -0.0008 -0.1721  0.2318
  504PYPI   PO4 7722  10.932  13.832   9.449  0.1936 -0.2313 -0.1767
  504PYPI   GL1 7723  10.700  13.868   9.015  0.2632 -0.2725 -0.1039
  504PYPI   GL2 7724  10.478  13.735   8.932 -0.0552 -0.3224 -0.3277
  504PYPI   C1A 7725  10.911  13.844   8.686  0.3271  0.0625  0.1539
  504PYPI   C2A 7726  10.849  13.808   8.211  0.2329 -0.0530  0.0180
  504PYPI   D3A 7727  10.562  13.853   7.760  0.2062  0.0237  0.1210
  504PYPI   C4A 7728  10.248  13.733   7.628  0.0238  0.1173 -0.3925
  504PYPI   C1B 7729  10.436  13.694   8.504  0.2466  0.1500 -0.0499
  504PYPI   C2B 7730  10.433  13.514   8.051 -0.2109 -0.0910  0.0177
  504PYPI   C3B 7731  10.317  13.190   7.685 -0.1448  0.2057 -0.1002
  504PYPI   C4B 7732  10.251  12.922   7.423 -0.3603 -0.0895  0.6039
  505PYPI    C1 7733   5.716   1.066  10.372  0.2764  0.2338 -0.1609
  505PYPI    C2 7734   5.780   1.108  10.765  0.2759  0.1911 -0.1561
  505PYPI    C3 7735   5.938   0.798  10.569 -0.0562 -0.0115 -0.1111
  505PYPI   PO4 7736   5.674   1.279  10.274 -0.1756 -0.0570 -0.0374
  505PYPI   GL1 7737   5.342   1.505  10.186 -0.1982  0.0341 -0.0554
  505PYPI   GL2 7738   5.217   1.292  10.102  0.0355  0.1819 -0.1625
  505PYPI   C1A 7739   5.577   1.588   9.765 -0.0207  0.1791 -0.1265
  505PYPI   C2A 7740   5.571   1.557   9.367 -0.2626 -0.1986  0.0980
  505PYPI   D3A 7741   5.461   1.511   8.849  0.0343 -0.3282  0.0153
  505PYPI   C4A 7742   5.826   1.331   8.590 -0.0533  0.1683 -0.0329
  505PYPI   C1B 7743   5.287   1.185   9.757 -0.0083  0.2414 -0.2697
  505PYPI   C2B 7744   5.271   1.099   9.346  0.2174  0.2395 -0.4241
  505PYPI   C3B 7745   5.397   0.616   9.096 -0.0140 -0.1425  0.0090
  505PYPI   C4B 7746   5.490   0.484   8.696  0.0617 -0.0966 -0.1638
  506ERGO   ROH 7747   7.776   9.811   5.747  0.2251  0.0470 -0.0301
  506ERGO    R1 7748   7.806   9.748   6.021  0.0966  0.1847  0.0175
  506ERGO    R2 7749   7.943   9.524   6.108 -0.2135  0.0556  0.1867
  506ERGO    R3 7750   8.084   9.705   6.253  0.0065 -0.0331  0.0878
  506ERGO    R4 7751   8.144   9.448   6.379 -0.1584 -0.0609  0.1137
  506ERGO    R5 7752   8.070   9.627   6.478  0.0371  0.0256  0.1106
  506ERGO    C1 7753   8.394   9.575   6.672  0.0802 -0.2121 -0.0215
  506ERGO    C2 7754   8.734   9.599   6.925 -0.0268 -0.2939 -0.0152
  507ERGO   ROH 7755  11.989   1.520   6.430 -0.2753  0.0452  0.2404
  507ERGO    R1 7756  12.084   1.607   6.682 -0.2508 -0.0033  0.2476
  507ERGO    R2 7757  12.197   1.856   6.720 -0.0627 -0.0881  0.2412
  507ERGO    R3 7758  12.008   1.877   6.914 -0.0804  0.0804  0.2076
  507ERGO    R4 7759  12.259   1.949   7.047  0.0027 -0.3774  0.3148
  507ERGO    R5 7760  12.116   1.798   7.112 -0.2447 -0.2060  0.1882
  507ERGO    C1 7761  12.117   2.024   7.420  0.0240 -0.3877  0.3261
  507ERGO    C2 7762  12.393   2.217   7.503 -0.2594  0.1807 -0.1031
  508ERGO   ROH 7763   2.157  16.577   9.353 -0.2389  0.0259 -0.0819
  508ERGO    R1 7764   2.241  16.400   9.149 -0.0350  0.0669 -0.0344
  508ERGO    R2 7765   2.197  16.451   8.881 -0.0478 -0.0304 -0.0504
  508ERGO    R3 7766   2.466  16.415   8.863 -0.0074  0.2309 -0.0051
  508ERGO    R4 7767   2.371  16.404   8.586  0.0151 -0.1016 -0.0028
  508ERGO    R5 7768   2.493  16.255   8.687  0.1660  0.1077  0.1308
  508ERGO    C1 7769   2.725  16.344   8.397  0.0896  0.1021  0.0674
  508ERGO    C2 7770   2.955  16.174   8.204 -0.0453 -0.2782  0.1277
  509ERGO   ROH 7771   1.866   6.923   9.666  0.0284 -0.1281  0.0238
  509ERGO    R1 7772   1.889   6.973   9.388 -0.1326 -0.0454  0.0230
  509ERGO    R2 7773   2.124   6.935   9.249 -0.1328  0.2606 -0.0757
  509ERGO    R3 7774   1.968   6.779   9.091 -0.0104  0.1037 -0.0418
  509ERGO    R4 7775   2.204   6.840   8.926  0.0105  0.1181  0.0012
  509ERGO    R5 7776   1.995   6.871   8.871  0.0162 -0.0068 -0.0830
  509ERGO    C1 7777   2.103   6.637   8.590  0.2088 -0.1121  0.0778
  509ERGO    C2 7778   2.330   6.535   8.357 -0.2575 -0.2470 -0.0971
  510ERGO   ROH 7779  11.765   7.429   9.257 -0.0019 -0.0975  0.0101
  510ERGO    R1 7780  11.670   7.491   8.998 -0.0382 -0.1166  0.0190
  510ERGO    R2 7781  11.828   7.615   8.807 -0.1199  0.0321  0.0485
  510ERGO    R3 7782  11.757   7.401   8.656  0.0380  0.0087  0.0037
  510ERGO    R4 7783  11.918   7.567   8.477 -0.2510  0.2746 -0.0249
  510ERGO    R5 7784  11.717   7.492   8.438 -0.1927  0.0586  0.0615
  510ERGO    C1 7785  11.903   7.339   8.142 -0.1789  0.3939 -0.1096
  510ERGO    C2 7786  11.956   7.446   7.850 -0.2214 -0.1464  0.1117
  511ERGO   ROH 7787  11.147  13.599   9.078 -0.0368 -0.1486  0.0363
  511ERGO    R1 7788  11.324  13.609   8.857  0.0104 -0.3602  0.0627
  511ERGO    R2 7789  11.316  13.424   8.651 -0.3188 -0.2349 -0.0405
  511ERGO    R3 7790  11.295  13.647   8.496  0.1195 -0.1008  0.0789
  511ERGO    R4 7791  11.323  13.426   8.305 -0.1251 -0.0384 -0.0380
  511ERGO    R5 7792  11.445  13.607   8.314  0.1618 -0.2295  0.1390
  511ERGO    C1 7793  11.308  13.636   7.959  0.3992  0.2017  0.0755
  511ERGO    C2 7794  11.345  13.559   7.605  0.1640 -0.0102  0.1081
  512ERGO   ROH 7795   9.646  17.778   6.311 -0.1963 -0.2479  0.2176
  512ERGO    R1 7796   9.522  17.730   6.561 -0.1156 -0.2522  0.2579
  512ERGO    R2 7797   9.600  17.525   6.729  0.0921 -0.1177  0.3350
  512ERGO    R3 7798   9.624  17.726   6.910 -0.0530 -0.0164  0.2433
  512ERGO    R4 7799   9.646  17.481   7.068  0.1942  0.0754  0.3473
  512ERGO    R5 7800   9.508  17.646   7.104  0.0550 -0.0321  0.2990
  512ERGO    C1 7801   9.695  17.644   7.436  0.1176  0.2830  0.2685
  512ERGO    C2 7802   9.884  17.794   7.637  0.1610  0.0912  0.0572
  513ERGO   ROH 7803  11.235  16.288   9.089 -0.2068  0.0249 -0.0385
  513ERGO    R1 7804  11.203  16.118   8.865 -0.1256  0.0602 -0.0757
  513ERGO    R2 7805  10.966  16.101   8.723 -0.1043 -0.0003 -0.0922
  513ERGO    R3 7806  11.127  16.159   8.511 -0.1155  0.1009 -0.0753
  513ERGO    R4 7807  10.906  16.006   8.396 -0.0443 -0.0066 -0.1022
  513ERGO    R5 7808  11.118  15.963   8.374 -0.0128  0.0999 -0.0912
  513ERGO    C1 7809  11.022  16.005   8.007 -0.0199  0.0847 -0.0922
  513ERGO    C2 7810  11.079  16.272   7.775 -0.0751 -0.1130  0.1234
  514ERGO   ROH 7811  12.870  14.936   9.113 -0.3244  0.0700 -0.0783
  514ERGO    R1 7812  12.938  15.026   8.853 -0.1163  0.2126  0.0235
  514ERGO    R2 7813  13.196  15.096   8.783  0.0019 -0.0453  0.1832
  514ERGO    R3 7814  13.157  14.915   8.584 -0.1530  0.1714  0.0112
  514ERGO    R4 7815  13.306  15.133   8.458  0.0638  0.1449  0.2241
  514ERGO    R5 7816  13.118  15.049   8.389 -0.0103  0.3861  0.1271
  514ERGO    C1 7817  13.334  14.985   8.082 -0.0455  0.4592  0.0863
  514ERGO    C2 7818  13.568  14.858   7.778  0.0781 -0.2734 -0.2632
  515ERGO   ROH 7819   2.294   1.131  10.160 -0.1558  0.3577 -0.0720
  515ERGO    R1 7820   2.145   1.016   9.949  0.0772  0.0404 -0.0734
  515ERGO    R2 7821   1.974   1.164   9.790 -0.2704 -0.3133 -0.0516
  515ERGO    R3 7822   2.121   1.057   9.589 -0.0362  0.0270 -0.0673
  515ERGO    R4 7823   1.883   1.167   9.457 -0.3777 -0.6247 -0.0275
  515ERGO    R5 7824   1.959   0.963   9.440  0.1610 -0.4402 -0.0019
  515ERGO    C1 7825   1.969   1.068   9.073 -0.2203 -0.4866 -0.0283
  515ERGO    C2 7826   1.751   1.140   8.688 -0.2504 -0.3321 -0.1107
  516ERGO   ROH 7827  15.657   9.179   6.403  0.1423  0.1693  0.0087
  516ERGO    R1 7828  15.687   9.158   6.683  0.0813  0.0432  0.0054
  516ERGO    R2 7829  15.591   9.349   6.858  0.0479 -0.0375  0.0666
  516ERGO    R3 7830  15.466   9.136   6.972  0.0212 -0.0846 -0.0471
  516ERGO    R4 7831  15.425   9.356   7.161 -0.0656 -0.1329  0.0082
  516ERGO    R5 7832  15.509   9.160   7.206 -0.0638 -0.1466 -0.0194
  516ERGO    C1 7833  15.211   9.159   7.444 -0.1567 -0.2327 -0.1325
  516ERGO    C2 7834  14.881   8.997   7.525  0.0768  0.5377 -0.0056
  517ERGO   ROH 7835   8.959   4.123   9.454  0.0929  0.0017 -0.0840
  517ERGO    R1 7836   8.861   4.257   9.224  0.1770  0.0276 -0.1050
  517ERGO    R2 7837   8.881   4.150   8.970 -0.0457 -0.1093 -0.0711
  517ERGO    R3 7838   8.613   4.192   8.966  0.0009  0.2237  0.0151
  517ERGO    R4 7839   8.682   4.128   8.688 -0.2470 -0.3405  0.0841
  517ERGO    R5 7840   8.573   4.304   8.758  0.0179 -0.0821 -0.1517
  517ERGO    C1 7841   8.314   4.156   8.521 -0.3203 -0.1625  0.2554
  517ERGO    C2 7842   7.993   3.995   8.519  0.1557  0.0230  0.1641
  518ERGO   ROH 7843   8.173   4.790   6.703  0.1822  0.0477 -0.2578
  518ERGO    R1 7844   7.965   4.807   6.894  0.0564  0.0799 -0.3953
  518ERGO    R2 7845   8.013   4.807   7.166 -0.1437 -0.2816 -0.3518
  518ERGO    R3 7846   7.868   5.037   7.159  0.1351 -0.0946 -0.2126
  518ERGO    R4 7847   7.813   4.923   7.424 -0.2678 -0.3692 -0.4082
  518ERGO    R5 7848   7.665   4.983   7.275 -0.0500 -0.0042 -0.4869
  518ERGO    C1 7849   7.560   5.205   7.566 -0.0785 -0.2447 -0.3104
  518ERGO    C2 7850   7.449   5.315   7.919 -0.0162  0.2774  0.1509
  519ERGO   ROH 7851   9.541  16.930   9.273  0.0796  0.0125 -0.0191
  519ERGO    R1 7852   9.405  16.991   9.032 -0.0196  0.0993  0.0571
  519ERGO    R2 7853   9.422  17.238   8.910  0.0740  0.0900  0.0437
  519ERGO    R3 7854   9.498  17.090   8.695 -0.1444  0.0341  0.0037
  519ERGO    R4 7855   9.512  17.367   8.602  0.0964  0.0253  0.0236
  519ERGO    R5 7856   9.403  17.205   8.507 -0.0954  0.1412  0.0466
  519ERGO    C1 7857   9.635  17.304   8.221 -0.0956 -0.0648 -0.0258
  519ERGO    C2 7858   9.758  17.475   7.971  0.2431 -0.0165  0.1818
  520ERGO   ROH 7859  15.149  17.130   9.535 -0.1312  0.1461 -0.0561
  520ERGO    R1 7860  15.300  17.051   9.309 -0.2177 -0.0692 -0.0376
  520ERGO    R2 7861  15.187  17.013   9.061 -0.2159  0.2803 -0.0786
  520ERGO    R3 7862  15.378  17.189   8.982  0.1897 -0.0849  0.0427
  520ERGO    R4 7863  15.258  17.092   8.732 -0.4294  0.6941 -0.0353
  520ERGO    R5 7864  15.471  17.091   8.783 -0.3298  0.0008 -0.2755
  520ERGO    C1 7865  15.480  17.303   8.466 -0.1730  0.5925  0.1039
  520ERGO    C2 7866  15.588  17.498   8.279  0.2246 -0.0089 -0.0169
  521ERGO   ROH 7867  17.171  15.615   9.711  0.0760  0.2486  0.0688
  521ERGO    R1 7868  17.140  15.598   9.430  0.1077 -0.0420  0.0804
  521ERGO    R2 7869  17.065  15.814   9.275 -0.1823 -0.2748 -0.1149
  521ERGO    R3 7870  17.291  15.752   9.137 -0.0900 -0.0915 -0.0497
  521ERGO    R4 7871  17.111  15.868   8.937 -0.0501 -0.0488 -0.0628
  521ERGO    R5 7872  17.211  15.675   8.924  0.0408  0.0014 -0.1342
  521ERGO    C1 7873  17.350  15.842   8.610  0.1133  0.2548  0.0288
  521ERGO    C2 7874  17.322  16.003   8.217 -0.2383 -0.1202  0.0742
  522ERGO   ROH 7875  16.563  12.550   6.141 -0.0475  0.1196 -0.0352
  522ERGO    R1 7876  16.580  12.666   6.399 -0.0167  0.0526 -0.0067
  522ERGO    R2 7877  16.761  12.866   6.461 -0.0315  0.0604  0.0147
  522ERGO    R3 7878  16.538  12.998   6.543 -0.0348  0.0086  0.0895
  522ERGO    R4 7879  16.742  13.069   6.740 -0.0223 -0.0508  0.0969
  522ERGO    R5 7880  16.545  12.986   6.782 -0.0101 -0.0844  0.0840
  522ERGO    C1 7881  16.522  13.311   6.979 -0.0199 -0.1640  0.2151
  522ERGO    C2 7882  16.444  13.628   7.006 -0.4272 -0.0516 -0.1596
  523ERGO   ROH 7883  16.634  16.544   6.090 -0.1303 -0.1788 -0.1095
  523ERGO    R1 7884  16.610  16.622   6.361  0.1781 -0.2541 -0.0571
  523ERGO    R2 7885  16.381  16.576   6.511  0.1602  0.1337  0.0456
  523ERGO    R3 7886  16.556  16.455   6.680  0.0220 -0.3008 -0.1064
  523ERGO    R4 7887  16.313  16.492   6.839  0.2522  0.3833  0.1301
  523ERGO    R5 7888  16.514  16.558   6.892  0.4963 -0.1315 -0.0793
  523ERGO    C1 7889  16.438  16.331   7.189  0.1762  0.1205  0.0366
  523ERGO    C2 7890  16.502  15.976   7.400 -0.1587  0.4076 -0.2720
  524ERGO   ROH 7891  15.671   7.455   9.609  0.2952 -0.0584 -0.1394
  524ERGO    R1 7892  15.828   7.358   9.395  0.1570 -0.0834 -0.2323
  524ERGO    R2 7893  15.718   7.276   9.155  0.0165  0.0736 -0.2289
  524ERGO    R3 7894  15.894   7.455   9.050  0.0939  0.0016 -0.2198
  524ERGO    R4 7895  15.830   7.274   8.828 -0.0411  0.0911 -0.2477
  524ERGO    R5 7896  16.029   7.325   8.901 -0.0034 -0.0338 -0.2732
  524ERGO    C1 7897  16.060   7.441   8.539 -0.0019  0.0338 -0.2500
  524ERGO    C2 7898  16.187   7.431   8.177 -0.1156  0.2707 -0.0983
  525ERGO   ROH 7899   0.283  12.982   9.777  0.1464 -0.2888  0.1762
  525ERGO    R1 7900   0.366  13.054   9.516  0.0050 -0.1538  0.1672
  525ERGO    R2 7901   0.545  12.903   9.370  0.0304 -0.0047  0.0464
  525ERGO    R3 7902   0.348  12.908   9.183 -0.0437 -0.0487  0.1220
  525ERGO    R4 7903   0.593  12.980   9.037 -0.0907 -0.0906  0.0085
  525ERGO    R5 7904   0.406  13.093   9.041 -0.0899 -0.0832  0.0529
  525ERGO    C1 7905   0.436  13.029   8.666 -0.2309 -0.1821  0.0574
  525ERGO    C2 7906   0.666  13.024   8.304 -0.3027  0.1794  0.0232
  526ERGO   ROH 7907  14.406  14.130   9.562  0.1503 -0.0761  0.1274
  526ERGO    R1 7908  14.418  14.202   9.289  0.0307  0.0257  0.1483
  526ERGO    R2 7909  14.656  14.251   9.158 -0.0225  0.0152  0.0467
  526ERGO    R3 7910  14.562  14.064   8.985 -0.1570  0.1051  0.0216
  526ERGO    R4 7911  14.678  14.272   8.814  0.0315  0.0251  0.0505
  526ERGO    R5 7912  14.476  14.191   8.801 -0.0340  0.1905  0.0223
  526ERGO    C1 7913  14.602  14.109   8.451 -0.0636  0.1152  0.0292
  526ERGO    C2 7914  14.683  14.073   8.089  0.2491 -0.2448 -0.2773
  527ERGO   ROH 7915  12.876  15.992   9.132 -0.2013 -0.0691 -0.2790
  527ERGO    R1 7916  12.991  15.962   8.876 -0.0937 -0.0018 -0.2404
  527ERGO    R2 7917  12.843  15.896   8.653  0.0060 -0.0015 -0.3133
  527ERGO    R3 7918  12.957  16.120   8.550 -0.0056  0.0436 -0.2264
  527ERGO    R4 7919  12.851  15.976   8.317  0.0134  0.1322 -0.2808
  527ERGO    R5 7920  13.056  16.047   8.344  0.0037  0.1329 -0.2500
  527ERGO    C1 7921  12.964  16.233   8.025  0.0067  0.2522 -0.1804
  527ERGO    C2 7922  13.093  16.338   7.681 -0.2010 -0.3646  0.4526
  528ERGO   ROH 7923  12.079   6.071   8.867 -0.1678 -0.1360 -0.0939
  528ERGO    R1 7924  12.000   5.953   8.622 -0.0297 -0.0958 -0.1593
  528ERGO    R2 7925  11.908   6.102   8.408 -0.1624 -0.0799 -0.0953
  528ERGO    R3 7926  12.106   5.972   8.275 -0.0166  0.1829 -0.1424
  528ERGO    R4 7927  11.934   6.082   8.064 -0.1698  0.0221 -0.1017
  528ERGO    R5 7928  11.996   5.874   8.086  0.0820  0.0891 -0.1508
  528ERGO    C1 7929  12.135   5.947   7.738 -0.0373  0.3280 -0.1495
  528ERGO    C2 7930  12.197   5.819   7.419  0.3942  0.0010 -0.0266
  529ERGO   ROH 7931  12.361  17.012   9.114 -0.0200 -0.0074 -0.0476
  529ERGO    R1 7932  12.515  16.996   8.877  0.1116  0.1006  0.0292
  529ERGO    R2 7933  12.431  16.854   8.655  0.3816 -0.0682  0.0333
  529ERGO    R3 7934  12.473  17.091   8.528  0.1616 -0.0553 -0.0204
  529ERGO    R4 7935  12.506  16.888   8.319  0.2934 -0.0727  0.0124
  529ERGO    R5 7936  12.648  17.044   8.371  0.1746  0.0587 -0.0429
  529ERGO    C1 7937  12.589  17.129   8.004  0.0353 -0.0631 -0.0501
  529ERGO    C2 7938  12.730  17.054   7.647 -0.1177  0.0881  0.0277
  530ERGO   ROH 7939   9.481   8.906   8.870 -0.0720  0.2391  0.0152
  530ERGO    R1 7940   9.526   8.987   8.603 -0.0505  0.3567  0.0530
  530ERGO    R2 7941   9.494   8.816   8.388  0.3195  0.3395  0.0004
  530ERGO    R3 7942   9.330   9.013   8.297  0.0656  0.1135 -0.0442
  530ERGO    R4 7943   9.398   8.857   8.059  0.4615  0.2864 -0.0479
  530ERGO    R5 7944   9.421   9.072   8.084  0.1096  0.3185  0.0317
  530ERGO    C1 7945   9.189   9.067   7.782  0.3057  0.0434 -0.1178
  530ERGO    C2 7946   8.936   9.353   7.446  0.0852  0.0210 -0.1794
  531ERGO   ROH 7947   5.224   4.841   6.083 -0.1471 -0.0177 -0.1136
  531ERGO    R1 7948   5.149   4.933   6.340 -0.0310  0.0119 -0.0899
  531ERGO    R2 7949   5.143   4.768   6.561  0.0128  0.0239 -0.0802
  531ERGO    R3 7950   5.305   4.958   6.668  0.0963 -0.0080 -0.1483
  531ERGO    R4 7951   5.234   4.786   6.894 -0.0242  0.1357 -0.0753
  531ERGO    R5 7952   5.211   5.002   6.884  0.0885  0.1436 -0.1814
  531ERGO    C1 7953   5.439   4.975   7.188  0.0327  0.1710 -0.1363
  531ERGO    C2 7954   5.666   5.133   7.497  0.1399  0.0437  0.0189
  532ERGO   ROH 7955   4.334   6.996   9.551 -0.0372  0.0844  0.1497
  532ERGO    R1 7956   4.362   7.011   9.270 -0.1878  0.0133  0.1301
  532ERGO    R2 7957   4.167   7.120   9.107 -0.1169  0.3229  0.2462
  532ERGO    R3 7958   4.372   7.275   9.019  0.0910 -0.0193  0.1033
  532ERGO    R4 7959   4.232   7.191   8.775 -0.2806  0.2740  0.2019
  532ERGO    R5 7960   4.445   7.169   8.817 -0.2734 -0.1144  0.0120
  532ERGO    C1 7961   4.463   7.379   8.500 -0.1807 -0.0757  0.0421
  532ERGO    C2 7962   4.414   7.469   8.259  0.1912 -0.0081  0.1783
  533ERGO   ROH 7963   4.290   9.382   6.262 -0.0573  0.0572 -0.0519
  533ERGO    R1 7964   4.132   9.580   6.388 -0.1096 -0.0163 -0.0023
  533ERGO    R2 7965   3.996   9.534   6.624  0.0717 -0.0476  0.0947
  533ERGO    R3 7966   4.132   9.755   6.707 -0.0235  0.0659 -0.0460
  533ERGO    R4 7967   3.868   9.777   6.834  0.0891 -0.1702  0.2501
  533ERGO    R5 7968   3.966   9.928   6.710 -0.1748 -0.0757  0.1441
  533ERGO    C1 7969   3.921  10.126   7.033  0.0099 -0.1350  0.2085
  533ERGO    C2 7970   3.962  10.336   7.204 -0.4050  0.0680 -0.0911
  534ERGO   ROH 7971  11.943   3.213   6.122 -0.0610 -0.1319  0.0212
  534ERGO    R1 7972  11.889   3.040   6.339  0.0109 -0.2074 -0.0199
  534ERGO    R2 7973  12.088   2.902   6.473  0.0724 -0.1393 -0.0382
  534ERGO    R3 7974  11.980   3.022   6.691 -0.0010 -0.2394 -0.0188
  534ERGO    R4 7975  12.188   2.846   6.799  0.2078 -0.0195 -0.0583
  534ERGO    R5 7976  11.979   2.851   6.859  0.2154 -0.2333 -0.0092
  534ERGO    C1 7977  12.145   2.926   7.194  0.2176 -0.0438 -0.0517
  534ERGO    C2 7978  12.124   3.142   7.542  0.2345 -0.2817  0.2047
  535ERGO   ROH 7979   7.309  16.147   9.461 -0.2629  0.3011  0.1198
  535ERGO    R1 7980   7.252  16.264   9.209 -0.1516  0.1596  0.0271
  535ERGO    R2 7981   7.344  16.158   8.971 -0.1341 -0.0350  0.1204
  535ERGO    R3 7982   7.080  16.164   8.905 -0.1148  0.0292  0.0480
  535ERGO    R4 7983   7.212  16.036   8.676 -0.0365  0.2914 -0.0624
  535ERGO    R5 7984   7.079  16.209   8.670 -0.0429  0.2971  0.0941
  535ERGO    C1 7985   6.887  15.971   8.441  0.0383  0.5418 -0.2370
  535ERGO    C2 7986   6.778  15.979   8.034 -0.3885 -0.0963 -0.0398
  536ERGO   ROH 7987   3.581  18.328   6.356  0.1944 -0.2472 -0.3071
  536ERGO    R1 7988   3.348  18.218   6.473  0.1787 -0.2728 -0.3653
  536ERGO    R2 7989   3.313  17.945   6.506  0.3832 -0.2563 -0.0087
  536ERGO    R3 7990   3.270  18.015   6.766  0.0783  0.0805 -0.1390
  536ERGO    R4 7991   3.087  17.792   6.717  0.4323 -0.2704  0.0361
  536ERGO    R5 7992   3.034  17.988   6.796  0.0828 -0.2120 -0.2968
  536ERGO    C1 7993   2.915  17.767   7.083  0.1747  0.0374 -0.0600
  536ERGO    C2 7994   2.774  17.685   7.223 -0.0649 -0.1157 -0.3007
  537ERGO   ROH 7995  18.354   1.971   9.655  0.3031 -0.1848  0.1170
  537ERGO    R1 7996  18.464   1.821   9.442  0.2319 -0.0912  0.0128
  537ERGO    R2 7997  18.333   1.783   9.203  0.0940 -0.0951  0.0885
  537ERGO    R3 7998  18.562   1.884   9.098 -0.0153  0.0261 -0.0383
  537ERGO    R4 7999  18.449   1.716   8.884  0.1143 -0.2931  0.1363
  537ERGO    R5 8000  18.651   1.703   8.967  0.1400 -0.0190  0.1248
  537ERGO    C1 8001  18.733   1.771   8.600  0.0234 -0.2946  0.0452
  537ERGO    C2 8002  18.752   1.763   8.253 -0.2464 -0.0010 -0.1599
  538ERGO   ROH 8003  16.095  17.522   6.121 -0.1469  0.0676 -0.2174
  538ERGO    R1 8004  16.072  17.689   6.349 -0.1410 -0.2993  0.0615
  538ERGO    R2 8005  16.149  17.606   6.602  0.4263 -0.5190 -0.1608
  538ERGO    R3 8006  16.299  17.833   6.594 -0.0433 -0.1907 -0.0932
  538ERGO    R4 8007  16.262  17.777   6.880  0.0726 -0.3487 -0.1169
  538ERGO    R5 8008  16.217  17.964   6.777 -0.3200 -0.4083 -0.0592
  538ERGO    C1 8009  16.469  18.089   7.035 -0.5741  0.0586 -0.0280
  538ERGO    C2 8010  16.588  18.093   7.308  0.1858 -0.2273  0.0733
  539ERGO   ROH 8011   0.930  17.861   6.384  0.0922  0.0642  0.0533
  539ERGO    R1 8012   0.733  17.794   6.575  0.0155 -0.1326 -0.0921
  539ERGO    R2 8013   0.681  17.533   6.650  0.3190 -0.1791 -0.0318
  539ERGO    R3 8014   0.725  17.629   6.900 -0.0356 -0.0080 -0.0292
  539ERGO    R4 8015   0.545  17.400   6.939  0.4603 -0.4256 -0.0754
  539ERGO    R5 8016   0.514  17.604   7.011 -0.0498 -0.4668 -0.1390
  539ERGO    C1 8017   0.508  17.414   7.342  0.2097 -0.4086 -0.0984
  539ERGO    C2 8018   0.674  17.263   7.622  0.1675 -0.0571 -0.2558
  540ERGO   ROH 8019   9.307  12.843   9.413  0.4370 -0.1161 -0.0434
  540ERGO    R1 8020   9.348  12.932   9.147  0.2766 -0.1072 -0.0662
  540ERGO    R2 8021   9.461  12.771   8.952  0.2522 -0.0679 -0.1148
  540ERGO    R3 8022   9.234  12.833   8.815  0.1608 -0.1646 -0.0096
  540ERGO    R4 8023   9.421  12.737   8.611  0.1897  0.1441 -0.1297
  540ERGO    R5 8024   9.313  12.927   8.609  0.0245  0.0527  0.0349
  540ERGO    C1 8025   9.186  12.777   8.283  0.0675  0.1767 -0.0396
  540ERGO    C2 8026   9.139  12.952   7.975  0.0849 -0.0315 -0.0629
  541ERGO   ROH 8027  16.166   9.359   6.449 -0.1926  0.0411  0.0215
  541ERGO    R1 8028  16.220   9.377   6.726 -0.0146 -0.1207 -0.0015
  541ERGO    R2 8029  16.033   9.465   6.909  0.2037  0.0799  0.1276
  541ERGO    R3 8030  16.089   9.229   7.032 -0.0512 -0.0395  0.0228
  541ERGO    R4 8031  15.915   9.371   7.220  0.2233  0.1374  0.1531
  541ERGO    R5 8032  16.111   9.286   7.263  0.1360 -0.1407  0.0333
  541ERGO    C1 8033  15.899   9.095   7.516 -0.0046  0.0587  0.0696
  541ERGO    C2 8034  15.798   8.961   7.796 -0.0363 -0.2055 -0.3001
  542ERGO   ROH 8035  16.077  11.326   9.540 -0.0417  0.1541  0.2350
  542ERGO    R1 8036  16.001  11.510   9.339 -0.0333  0.0752  0.1594
  542ERGO    R2 8037  16.132  11.528   9.097  0.0641  0.0725  0.2125
  542ERGO    R3 8038  15.882  11.493   8.996  0.1209 -0.0555  0.1110
  542ERGO    R4 8039  16.035  11.615   8.777  0.1475  0.0256  0.1734
  542ERGO    R5 8040  15.846  11.687   8.859  0.0762 -0.0718  0.0987
  542ERGO    C1 8041  15.743  11.633   8.496  0.2497 -0.1219  0.0553
  542ERGO    C2 8042  15.559  11.505   8.250 -0.0699 -0.2097  0.2268
  543ERGO   ROH 8043   7.347   5.031   9.550 -0.1415  0.0292  0.0200
  543ERGO    R1 8044   7.254   4.884   9.327 -0.1023  0.0629 -0.0191
  543ERGO    R2 8045   7.158   5.006   9.099  0.0399  0.0985 -0.0624
  543ERGO    R3 8046   7.344   4.850   8.976  0.0349  0.0280  0.0195
  543ERGO    R4 8047   7.174   4.947   8.758  0.1483  0.0624 -0.0514
  543ERGO    R5 8048   7.224   4.739   8.802  0.0654  0.0515 -0.0150
  543ERGO    C1 8049   7.358   4.767   8.446  0.2067 -0.0247  0.0318
  543ERGO    C2 8050   7.508   4.722   8.231 -0.2215  0.1036 -0.0582
  544ERGO   ROH 8051  13.221  13.842   6.221 -0.0504 -0.2197  0.1170
  544ERGO    R1 8052  13.366  13.854   6.464  0.0036 -0.0654  0.0779
  544ERGO    R2 8053  13.257  13.953   6.697  0.0003 -0.0722  0.0775
  544ERGO    R3 8054  13.335  13.713   6.798  0.1764  0.0022  0.1240
  544ERGO    R4 8055  13.275  13.877   7.034  0.0201 -0.0027  0.0926
  544ERGO    R5 8056  13.460  13.768   6.994  0.1116  0.1335  0.1311
  544ERGO    C1 8057  13.359  13.606   7.324  0.1968  0.1077  0.1451
  544ERGO    C2 8058  13.347  13.770   7.726 -0.2157 -0.1460 -0.2737
  545ERGO   ROH 8059   2.146   3.492   9.704 -0.2275  0.1289 -0.0640
  545ERGO    R1 8060   2.281   3.506   9.455 -0.1248  0.1488 -0.0090
  545ERGO    R2 8061   2.286   3.296   9.276  0.0743  0.1050  0.0346
  545ERGO    R3 8062   2.191   3.483   9.104  0.0389  0.0157 -0.0413
  545ERGO    R4 8063   2.352   3.304   8.937  0.1738  0.0644  0.0540
  545ERGO    R5 8064   2.372   3.520   8.951  0.0622  0.0707  0.0077
  545ERGO    C1 8065   2.302   3.485   8.578  0.1986 -0.0432 -0.0061
  545ERGO    C2 8066   2.301   3.444   8.182 -0.4058 -0.1712  0.2325
  546ERGO   ROH 8067  11.282   3.680   9.320 -0.0926 -0.1219  0.0332
  546ERGO    R1 8068  11.479   3.607   9.130 -0.0647  0.0330  0.0006
  546ERGO    R2 8069  11.490   3.355   9.017  0.1803  0.0049  0.0798
  546ERGO    R3 8070  11.484   3.495   8.784 -0.0427 -0.0755  0.0359
  546ERGO    R4 8071  11.597   3.235   8.711  0.1290 -0.0113  0.0686
  546ERGO    R5 8072  11.684   3.430   8.670 -0.0449  0.0456 -0.0382
  546ERGO    C1 8073  11.653   3.296   8.314 -0.1102 -0.0963  0.0207
  546ERGO    C2 8074  11.870   3.217   7.973  0.0332  0.2078 -0.1405
  547ERGO   ROH 8075   2.687   9.777   9.465 -0.0348 -0.1472 -0.0240
  547ERGO    R1 8076   2.630   9.647   9.220 -0.1920 -0.0773 -0.0250
  547ERGO    R2 8077   2.536   9.782   8.998 -0.0300  0.0395 -0.0198
  547ERGO    R3 8078   2.750   9.666   8.877 -0.1686 -0.2185 -0.0262
  547ERGO    R4 8079   2.562   9.725   8.658  0.0152  0.3033 -0.0642
  547ERGO    R5 8080   2.653   9.531   8.704 -0.3307  0.0973 -0.1935
  547ERGO    C1 8081   2.778   9.582   8.347 -0.0886  0.2148 -0.0959
  547ERGO    C2 8082   3.031   9.726   8.258 -0.0736 -0.0268 -0.4285
  548ERGO   ROH 8083  15.659  10.329   6.633 -0.2529  0.1591  0.0838
  548ERGO    R1 8084  15.704  10.448   6.886 -0.1846  0.3075  0.0031
  548ERGO    R2 8085  15.932  10.402   7.034 -0.3503  0.0130  0.1813
  548ERGO    R3 8086  15.950  10.673   7.032  0.1520 -0.0100 -0.0611
  548ERGO    R4 8087  16.029  10.595   7.304 -0.4193  0.0959  0.1466
  548ERGO    R5 8088  15.874  10.739   7.250 -0.0767  0.3400 -0.2383
  548ERGO    C1 8089  16.102  10.962   7.459  0.0120  0.1226 -0.1013
  548ERGO    C2 8090  16.143  11.067   7.719 -0.1186  0.1609  0.0730
  549ERGO   ROH 8091   2.974   5.653   9.514  0.0919  0.0631  0.1379
  549ERGO    R1 8092   3.082   5.601   9.257 -0.0264  0.0891  0.0828
  549ERGO    R2 8093   2.955   5.439   9.073 -0.1280  0.1358  0.1133
  549ERGO    R3 8094   2.982   5.657   8.912 -0.1686  0.1571  0.1342
  549ERGO    R4 8095   3.006   5.427   8.731 -0.0670  0.1797  0.1199
  549ERGO    R5 8096   3.147   5.592   8.751 -0.1213  0.2219  0.1563
  549ERGO    C1 8097   3.060   5.624   8.381 -0.0695  0.2253  0.1434
  549ERGO    C2 8098   3.039   5.550   8.054 -0.3274  0.0856  0.1884
  550ERGO   ROH 8099  16.653  14.703   9.607 -0.0332  0.0884  0.1208
  550ERGO    R1 8100  16.830  14.689   9.386 -0.0083  0.0454  0.1434
  550ERGO    R2 8101  16.835  14.474   9.212  0.0180  0.0066  0.1909
  550ERGO    R3 8102  16.801  14.668   9.024  0.0320 -0.0355  0.1447
  550ERGO    R4 8103  16.914  14.442   8.877 -0.0470 -0.1006  0.1854
  550ERGO    R5 8104  16.990  14.645   8.880  0.0015 -0.1182  0.1178
  550ERGO    C1 8105  16.928  14.605   8.506 -0.0719 -0.2025  0.1388
  550ERGO    C2 8106  16.761  14.562   8.243 -0.3116 -0.0639  0.1660
  551ERGO   ROH 8107   9.143  11.318   9.257  0.1055  0.1634  0.1130
  551ERGO    R1 8108   9.254  11.364   9.001  0.0048  0.1753  0.0723
  551ERGO    R2 8109   9.284  11.163   8.813  0.0920  0.1509  0.1205
  551ERGO    R3 8110   9.143  11.334   8.655 -0.0653  0.0130  0.1061
  551ERGO    R4 8111   9.258  11.140   8.469  0.1523  0.1141  0.1173
  551ERGO    R5 8112   9.276  11.357   8.458 -0.0605  0.1402  0.1175
  551ERGO    C1 8113   9.111  11.288   8.121  0.0396 -0.0366  0.1019
  551ERGO    C2 8114   8.888  11.307   7.983 -0.0748 -0.2458 -0.0764
  552ERGO   ROH 8115   7.585   7.848   9.303 -0.0279 -0.0744  0.0131
  552ERGO    R1 8116   7.730   7.786   9.068 -0.0466 -0.0377 -0.0081
  552ERGO    R2 8117   7.656   7.582   8.897 -0.0511 -0.0204 -0.0254
  552ERGO    R3 8118   7.664   7.779   8.711 -0.0793  0.0022 -0.0031
  552ERGO    R4 8119   7.737   7.535   8.565  0.1752  0.0628  0.0163
  552ERGO    R5 8120   7.851   7.721   8.571  0.0436  0.1423  0.0993
  552ERGO    C1 8121   7.792   7.694   8.196  0.2805  0.1324  0.0614
  552ERGO    C2 8122   7.717   7.565   7.943 -0.0561  0.1412 -0.0164
  553ERGO   ROH 8123   6.138  13.623   9.490  0.2486  0.0428  0.1537
  553ERGO    R1 8124   6.325  13.566   9.285  0.1863 -0.2369  0.1696
  553ERGO    R2 8125   6.337  13.322   9.157 -0.3251 -0.1873  0.0067
  553ERGO    R3 8126   6.313  13.474   8.933  0.0730  0.0282  0.1019
  553ERGO    R4 8127   6.468  13.241   8.848 -0.4222 -0.2715 -0.0134
  553ERGO    R5 8128   6.524  13.450   8.822  0.0564 -0.3675  0.1441
  553ERGO    C1 8129   6.523  13.337   8.458 -0.1051 -0.1180  0.0644
  553ERGO    C2 8130   6.510  13.168   8.204 -0.0182 -0.1069  0.4023
  554ERGO   ROH 8131   1.505  11.652   6.480 -0.2198 -0.0675  0.1678
  554ERGO    R1 8132   1.493  11.458   6.686 -0.1331 -0.1859  0.0646
  554ERGO    R2 8133   1.518  11.524   6.953  0.1487 -0.3589  0.0885
  554ERGO    R3 8134   1.281  11.393   6.974  0.0949 -0.2409  0.2211
  554ERGO    R4 8135   1.367  11.435   7.251  0.2636 -0.2799  0.1702
  554ERGO    R5 8136   1.310  11.245   7.161  0.1203 -0.2512  0.2054
  554ERGO    C1 8137   1.056  11.261   7.444  0.2801 -0.1231  0.3422
  554ERGO    C2 8138   1.173  11.361   7.727 -0.0094 -0.2862  0.1517
  555ERGO   ROH 8139  16.170   6.233   5.937  0.0873  0.0054  0.1252
  555ERGO    R1 8140  16.061   6.122   6.173  0.0998 -0.0398  0.1108
  555ERGO    R2 8141  16.166   6.173   6.424  0.0832 -0.0467  0.1226
  555ERGO    R3 8142  15.911   6.248   6.480  0.0681 -0.0980  0.1185
  555ERGO    R4 8143  16.050   6.254   6.738  0.0500 -0.1063  0.1250
  555ERGO    R5 8144  15.865   6.147   6.692  0.0727 -0.1310  0.1020
  555ERGO    C1 8145  15.742   6.372   6.975  0.0165 -0.1892  0.1226
  555ERGO    C2 8146  15.812   6.521   7.263 -0.1872  0.0760  0.2543
  556ERGO   ROH 8147  18.465   3.946   5.974 -0.0599  0.0030 -0.2523
  556ERGO    R1 8148  18.500   4.103   6.207 -0.0392  0.0226 -0.2684
  556ERGO    R2 8149  18.300   4.134   6.396 -0.0301  0.0563 -0.2638
  556ERGO    R3 8150  18.494   4.047   6.566 -0.0306  0.0573 -0.2630
  556ERGO    R4 8151  18.285   4.157   6.741 -0.1409 -0.1639 -0.2525
  556ERGO    R5 8152  18.496   4.210   6.742 -0.1699 -0.0481 -0.1606
  556ERGO    C1 8153  18.457   4.088   7.101 -0.2059 -0.2912 -0.2451
  556ERGO    C2 8154  18.484   4.015   7.434 -0.2102 -0.0427  0.3055
  557ERGO   ROH 8155  15.547  11.207   6.407  0.1089  0.1226  0.0599
  557ERGO    R1 8156  15.357  11.338   6.571 -0.0684  0.0000 -0.0437
  557ERGO    R2 8157  15.175  11.201   6.728  0.0299 -0.1205 -0.0316
  557ERGO    R3 8158  15.280  11.354   6.926 -0.1736  0.0723 -0.0697
  557ERGO    R4 8159  15.076  11.190   7.059  0.1485 -0.2808 -0.0006
  557ERGO    R5 8160  15.092  11.407   7.066 -0.2273 -0.2476 -0.0146
  557ERGO    C1 8161  15.117  11.327   7.438  0.0265 -0.1932 -0.0184
  557ERGO    C2 8162  15.355  11.379   7.772 -0.1213 -0.3547  0.1642
  558ERGO   ROH 8163  16.480   3.766   9.434  0.1158 -0.0786 -0.0655
  558ERGO    R1 8164  16.282   3.713   9.238  0.0824 -0.2349  0.0090
  558ERGO    R2 8165  16.213   3.897   9.044 -0.2438 -0.2279  0.1271
  558ERGO    R3 8166  16.268   3.691   8.875 -0.0684 -0.0829  0.0041
  558ERGO    R4 8167  16.169   3.906   8.701 -0.1385 -0.0210  0.1175
  558ERGO    R5 8168  16.094   3.701   8.710 -0.0223 -0.0734 -0.0451
  558ERGO    C1 8169  16.196   3.718   8.343  0.0873  0.2355 -0.0034
  558ERGO    C2 8170  16.167   4.046   8.121  0.0031 -0.2474  0.3214
  559ERGO   ROH 8171  11.869   4.565   9.032 -0.0455  0.1862 -0.0698
  559ERGO    R1 8172  11.838   4.574   8.751  0.1329  0.0896 -0.0944
  559ERGO    R2 8173  12.050   4.541   8.577  0.2079 -0.2125  0.0443
  559ERGO    R3 8174  11.891   4.347   8.471  0.0666 -0.0979  0.0442
  559ERGO    R4 8175  12.064   4.430   8.250  0.0572 -0.1596  0.0195
  559ERGO    R5 8176  11.846   4.421   8.248  0.0539 -0.0302  0.0713
  559ERGO    C1 8177  11.923   4.183   7.960 -0.1630 -0.0213  0.0049
  559ERGO    C2 8178  11.732   4.057   7.661 -0.1572  0.0330 -0.4035
  560ERGO   ROH 8179  14.673   4.254   6.038  0.1472  0.0239  0.1136
  560ERGO    R1 8180  14.542   4.342   6.273  0.0364  0.0116  0.0567
  560ERGO    R2 8181  14.290   4.254   6.345  0.0638 -0.1027  0.0071
  560ERGO    R3 8182  14.415   4.189   6.578  0.0320  0.0183  0.0591
  560ERGO    R4 8183  14.145   4.272   6.658  0.0161  0.0587 -0.0229
  560ERGO    R5 8184  14.333   4.351   6.735  0.0063  0.1015 -0.0358
  560ERGO    C1 8185  14.177   4.222   7.059 -0.0414  0.2662  0.0083
  560ERGO    C2 8186  14.248   4.043   7.337 -0.2143  0.0835 -0.2225
  561ERGO   ROH 8187   1.395  11.500   9.784 -0.3576 -0.2331 -0.0165
  561ERGO    R1 8188   1.467  11.271   9.634 -0.3114 -0.1765 -0.0809
  561ERGO    R2 8189   1.354  11.212   9.389 -0.1445 -0.0173 -0.1975
  561ERGO    R3 8190   1.613  11.205   9.307 -0.0844 -0.0507 -0.0080
  561ERGO    R4 8191   1.472  11.028   9.122  0.0024  0.0550 -0.1836
  561ERGO    R5 8192   1.648  10.978   9.240 -0.0954 -0.0360 -0.0699
  561ERGO    C1 8193   1.784  10.913   8.890  0.1444  0.0657  0.0024
  561ERGO    C2 8194   1.795  10.853   8.574  0.2584 -0.0946 -0.1236
  562ERGO   ROH 8195   9.911   4.076   6.372  0.0656  0.2885  0.1290
  562ERGO    R1 8196   9.859   4.001   6.640 -0.0352  0.0994  0.0589
  562ERGO    R2 8197   9.783   3.744   6.710  0.0338  0.0191 -0.1364
  562ERGO    R3 8198   9.996   3.762   6.878 -0.0532  0.0058 -0.0252
  562ERGO    R4 8199   9.830   3.550   6.992 -0.1682  0.0806 -0.0597
  562ERGO    R5 8200   9.904   3.726   7.095 -0.1791  0.0858 -0.0664
  562ERGO    C1 8201  10.058   3.454   7.314 -0.3678  0.1039  0.0894
  562ERGO    C2 8202  10.411   3.368   7.522  0.1656 -0.1825 -0.0480
  563ERGO   ROH 8203   3.177   1.291   9.801  0.0328  0.3351 -0.0503
  563ERGO    R1 8204   3.173   1.367   9.529  0.0623  0.2527 -0.0737
  563ERGO    R2 8205   3.404   1.412   9.384  0.0758  0.0587 -0.1027
  563ERGO    R3 8206   3.295   1.230   9.214 -0.0491  0.0804 -0.0465
  563ERGO    R4 8207   3.435   1.421   9.040 -0.2021  0.1581 -0.1262
  563ERGO    R5 8208   3.225   1.360   9.025 -0.2224  0.1327  0.0391
  563ERGO    C1 8209   3.350   1.256   8.680 -0.4811  0.2364 -0.0872
  563ERGO    C2 8210   3.536   1.091   8.397 -0.2583 -0.2880  0.1019
  564ERGO   ROH 8211  17.171   2.234   9.643  0.1457  0.1414  0.0244
  564ERGO    R1 8212  17.233   2.027   9.459  0.0850  0.0956  0.0556
  564ERGO    R2 8213  17.058   1.949   9.260  0.0311  0.0651  0.1159
  564ERGO    R3 8214  17.272   1.997   9.098 -0.0040  0.0113  0.0525
  564ERGO    R4 8215  17.040   1.996   8.918 -0.0592  0.0712  0.1209
  564ERGO    R5 8216  17.222   1.877   8.897 -0.0952  0.0243  0.0661
  564ERGO    C1 8217  17.230   2.069   8.567 -0.1448  0.0242  0.0643
  564ERGO    C2 8218  17.189   1.997   8.177 -0.2873 -0.3688  0.2257
  565ERGO   ROH 8219   8.795   1.304   6.543 -0.0945 -0.0556  0.0438
  565ERGO    R1 8220   8.666   1.292   6.794  0.1562 -0.2067  0.1680
  565ERGO    R2 8221   8.803   1.252   7.030  0.4726  0.2719  0.0698
  565ERGO    R3 8222   8.675   1.480   7.106 -0.0121  0.0236  0.0395
  565ERGO    R4 8223   8.729   1.339   7.357  0.6679  0.3304  0.1011
  565ERGO    R5 8224   8.536   1.412   7.288  0.3759 -0.2019  0.2727
  565ERGO    C1 8225   8.566   1.602   7.618  0.3266  0.1314  0.0907
  565ERGO    C2 8226   8.402   1.833   7.995  0.0095 -0.0249 -0.2161
  566ERGO   ROH 8227   5.294   2.919  10.082 -0.1029 -0.0614  0.0747
  566ERGO    R1 8228   5.177   2.886   9.827 -0.0222 -0.1663  0.0522
  566ERGO    R2 8229   5.087   3.099   9.675 -0.1625 -0.2491  0.0311
  566ERGO    R3 8230   5.250   2.993   9.487 -0.0404 -0.1206  0.0604
  566ERGO    R4 8231   5.037   3.123   9.334  0.1347  0.1343  0.0066
  566ERGO    R5 8232   5.102   2.916   9.315  0.0659  0.1182 -0.1520
  566ERGO    C1 8233   5.162   3.037   8.958  0.4224  0.4782  0.0199
  566ERGO    C2 8234   5.080   3.034   8.749  0.0669 -0.1177 -0.2043
  567ERGO   ROH 8235   5.568   1.291   6.567 -0.1768  0.1231 -0.0693
  567ERGO    R1 8236   5.614   1.173   6.820 -0.1258  0.1175 -0.0811
  567ERGO    R2 8237   5.654   1.322   7.049 -0.0779  0.1131 -0.0854
  567ERGO    R3 8238   5.449   1.170   7.144 -0.0600  0.1122 -0.0481
  567ERGO    R4 8239   5.633   1.199   7.371 -0.1152  0.2699 -0.0272
  567ERGO    R5 8240   5.556   1.012   7.290 -0.0533  0.2111  0.0532
  567ERGO    C1 8241   5.429   0.985   7.649 -0.1201  0.3603  0.0418
  567ERGO    C2 8242   5.191   1.117   7.977  0.1199  0.2858 -0.0408
  568ERGO   ROH 8243   5.439  13.056   9.725 -0.1849  0.1435  0.0970
  568ERGO    R1 8244   5.412  12.976   9.455 -0.2498  0.1143  0.1122
  568ERGO    R2 8245   5.212  13.072   9.290 -0.1043  0.3357  0.0629
  568ERGO    R3 8246   5.421  13.137   9.129  0.0062  0.0299  0.0745
  568ERGO    R4 8247   5.202  13.079   8.945 -0.1255  0.4965  0.0659
  568ERGO    R5 8248   5.401  12.991   8.942 -0.2757  0.1375  0.0142
  568ERGO    C1 8249   5.393  13.145   8.593 -0.0340  0.3028  0.0784
  568ERGO    C2 8250   5.530  13.230   8.224  0.1127  0.2868  0.1258
  569ERGO   ROH 8251   8.669  15.301   6.301  0.0557 -0.2770  0.1563
  569ERGO    R1 8252   8.629  15.462   6.530 -0.0052 -0.1256  0.0416
  569ERGO    R2 8253   8.393  15.459   6.674  0.0031 -0.1298  0.0582
  569ERGO    R3 8254   8.558  15.406   6.883  0.0420  0.0999  0.0879
  569ERGO    R4 8255   8.288  15.381   6.994  0.0482 -0.4170  0.0057
  569ERGO    R5 8256   8.450  15.506   7.071 -0.1916 -0.1499  0.0896
  569ERGO    C1 8257   8.383  15.287   7.377  0.1108 -0.3687  0.0030
  569ERGO    C2 8258   8.267  15.198   7.606 -0.1044 -0.0098 -0.0110
  570ERGO   ROH 8259  13.832  16.541   9.231 -0.2798 -0.1700  0.1381
  570ERGO    R1 8260  13.791  16.518   8.952 -0.1447 -0.1287  0.1139
  570ERGO    R2 8261  13.898  16.696   8.770 -0.0554 -0.1024  0.1916
  570ERGO    R3 8262  13.999  16.471   8.657 -0.0013 -0.0859  0.2070
  570ERGO    R4 8263  13.859  16.608   8.438  0.0230 -0.0998  0.1817
  570ERGO    R5 8264  13.830  16.401   8.502  0.0387 -0.1057  0.1715
  570ERGO    C1 8265  13.931  16.344   8.139  0.1192 -0.0831  0.1904
  570ERGO    C2 8266  13.991  16.382   7.783 -0.2587 -0.0636  0.0072
  571ERGO   ROH 8267   3.318   1.477   6.901  0.1849  0.1781  0.0387
  571ERGO    R1 8268   3.274   1.486   7.180  0.1760  0.0833  0.0403
  571ERGO    R2 8269   3.092   1.322   7.307  0.0943  0.1131 -0.0366
  571ERGO    R3 8270   3.306   1.256   7.460  0.0588 -0.0482 -0.0533
  571ERGO    R4 8271   3.074   1.191   7.627  0.0272  0.3982  0.0800
  571ERGO    R5 8272   3.242   1.318   7.683  0.2154  0.2216 -0.0808
  571ERGO    C1 8273   3.264   1.053   7.957 -0.0453  0.4128  0.1322
  571ERGO    C2 8274   3.254   0.805   8.150 -0.1011 -0.0409  0.0769
  572ERGO   ROH 8275   5.685   4.397   9.656  0.0743 -0.0733  0.0377
  572ERGO    R1 8276   5.602   4.444   9.389 -0.0437 -0.0158  0.0842
  572ERGO    R2 8277   5.685   4.665   9.245 -0.0527 -0.0212  0.0726
  572ERGO    R3 8278   5.763   4.478   9.064 -0.1947 -0.0196  0.0082
  572ERGO    R4 8279   5.821   4.734   8.935 -0.1474 -0.0157  0.0317
  572ERGO    R5 8280   5.703   4.571   8.852 -0.2433  0.0428  0.0479
  572ERGO    C1 8281   5.974   4.599   8.585 -0.3360 -0.0110 -0.0526
  572ERGO    C2 8282   6.220   4.487   8.360 -0.2256 -0.2566  0.1423
  573ERGO   ROH 8283   1.641   9.311   9.410 -0.0861  0.1369  0.0479
  573ERGO    R1 8284   1.664   9.463   9.173 -0.0850  0.1163  0.0350
  573ERGO    R2 8285   1.745   9.352   8.932 -0.0717  0.0984  0.0483
  573ERGO    R3 8286   1.512   9.460   8.842 -0.0733  0.0795  0.0298
  573ERGO    R4 8287   1.674   9.420   8.601 -0.1086 -0.0485  0.0255
  573ERGO    R5 8288   1.579   9.605   8.664 -0.0820 -0.0090 -0.0473
  573ERGO    C1 8289   1.414   9.560   8.323 -0.1316 -0.1518 -0.0053
  573ERGO    C2 8290   1.309   9.664   8.118  0.3698 -0.0065 -0.0821
  574ERGO   ROH 8291   8.347  11.029   5.803 -0.0053  0.0874 -0.0955
  574ERGO    R1 8292   8.188  11.094   6.028 -0.0134 -0.0434 -0.0631
  574ERGO    R2 8293   8.130  10.910   6.227  0.0857 -0.1239 -0.1065
  574ERGO    R3 8294   8.233  11.103   6.389  0.0168 -0.1216 -0.0651
  574ERGO    R4 8295   8.027  10.970   6.551  0.0736 -0.2331 -0.0895
  574ERGO    R5 8296   8.043  11.184   6.511 -0.0086 -0.2194 -0.0411
  574ERGO    C1 8297   8.063  11.186   6.892  0.0019 -0.2945 -0.0409
  574ERGO    C2 8298   7.989  10.989   7.063 -0.1187  0.3037  0.1913
  575ERGO   ROH 8299  16.196  13.348   6.074  0.0979  0.0402  0.0724
  575ERGO    R1 8300  16.232  13.253   6.338 -0.0051 -0.0381  0.0586
  575ERGO    R2 8301  16.220  13.418   6.559  0.0237 -0.0838  0.0924
  575ERGO    R3 8302  16.035  13.238   6.644 -0.0798 -0.0172  0.0123
  575ERGO    R4 8303  16.009  13.463   6.830  0.0188 -0.0625  0.0856
  575ERGO    R5 8304  16.041  13.254   6.883 -0.0949 -0.0989  0.0198
  575ERGO    C1 8305  15.713  13.319   7.067 -0.0811  0.0125  0.0065
  575ERGO    C2 8306  15.478  13.383   7.275  0.2586 -0.0411 -0.0456
  576ERGO   ROH 8307   7.561  16.740   9.581  0.0246 -0.1023  0.0885
  576ERGO    R1 8308   7.414  16.656   9.355  0.0711  0.0188  0.0121
  576ERGO    R2 8309   7.372  16.819   9.136  0.1714  0.1144  0.0613
  576ERGO    R3 8310   7.479  16.609   9.000  0.1649  0.1427  0.0128
  576ERGO    R4 8311   7.380  16.790   8.791  0.2325  0.2220  0.0533
  576ERGO    R5 8312   7.332  16.578   8.813  0.1971  0.2237 -0.0246
  576ERGO    C1 8313   7.484  16.576   8.463  0.2620  0.3114  0.0031
  576ERGO    C2 8314   7.681  16.632   8.194  0.0796 -0.1168  0.0847
  577ERGO   ROH 8315  11.739  15.172   9.199  0.1476  0.2064  0.0070
  577ERGO    R1 8316  11.677  15.227   8.928  0.0504  0.0598 -0.0028
  577ERGO    R2 8317  11.820  15.408   8.776 -0.0055 -0.0123 -0.1549
  577ERGO    R3 8318  11.844  15.197   8.607 -0.0588 -0.1076 -0.0434
  577ERGO    R4 8319  11.870  15.433   8.435  0.0676 -0.2158 -0.1595
  577ERGO    R5 8320  11.732  15.267   8.408  0.0102 -0.1700 -0.0992
  577ERGO    C1 8321  11.922  15.250   8.078  0.0601 -0.4235 -0.0574
  577ERGO    C2 8322  11.769  15.355   7.704  0.2084  0.1892  0.1528
  578ERGO   ROH 8323   2.375   8.219   9.427  0.1309 -0.0050  0.0031
  578ERGO    R1 8324   2.476   8.163   9.169  0.0464 -0.2764  0.0249
  578ERGO    R2 8325   2.411   7.933   9.030 -0.3158 -0.2439  0.1226
  578ERGO    R3 8326   2.337   8.109   8.837 -0.0431 -0.2043  0.0514
  578ERGO    R4 8327   2.398   7.862   8.692 -0.1780 -0.2727  0.1233
  578ERGO    R5 8328   2.481   8.059   8.652  0.0208 -0.3549  0.1442
  578ERGO    C1 8329   2.321   7.986   8.314  0.1582 -0.2524  0.0569
  578ERGO    C2 8330   2.080   7.948   8.048  0.0147 -0.4152  0.0824
  579ERGO   ROH 8331   2.298  17.384  10.050 -0.0527 -0.3204 -0.0237
  579ERGO    R1 8332   2.205  17.420   9.785 -0.0547 -0.3803 -0.0303
  579ERGO    R2 8333   2.330  17.590   9.606 -0.2932 -0.1087  0.0611
  579ERGO    R3 8334   2.336  17.367   9.449  0.1107 -0.0464 -0.0248
  579ERGO    R4 8335   2.389  17.589   9.265 -0.3449  0.1470  0.0493
  579ERGO    R5 8336   2.235  17.436   9.244 -0.0636 -0.1520  0.0183
  579ERGO    C1 8337   2.429  17.380   8.920  0.0041  0.3545 -0.0384
  579ERGO    C2 8338   2.455  17.409   8.626  0.1395  0.0783 -0.0417
  580ERGO   ROH 8339   0.092   1.387   6.472 -0.0740  0.3624 -0.1301
  580ERGO    R1 8340   0.157   1.444   6.741  0.0066  0.1981 -0.1155
  580ERGO    R2 8341   0.247   1.691   6.823 -0.0840  0.1760  0.0235
  580ERGO    R3 8342   0.040   1.673   6.999  0.0007 -0.0455  0.1062
  580ERGO    R4 8343   0.237   1.846   7.132 -0.2027  0.3596 -0.0691
  580ERGO    R5 8344   0.147   1.665   7.214  0.1061  0.2523  0.0780
  580ERGO    C1 8345   0.037   1.919   7.477 -0.1923  0.2586 -0.0453
  580ERGO    C2 8346   0.125   2.096   7.857  0.0424 -0.0832 -0.0920
  581ERGO   ROH 8347   8.012   2.012   9.826 -0.1038  0.2042  0.1731
  581ERGO    R1 8348   7.911   2.074   9.569  0.0024  0.1054  0.1073
  581ERGO    R2 8349   8.034   1.989   9.336  0.0885  0.0005  0.1918
  581ERGO    R3 8350   7.787   1.888   9.281  0.1026 -0.0041  0.1339
  581ERGO    R4 8351   7.940   1.850   9.034  0.1606  0.0031  0.1676
  581ERGO    R5 8352   7.748   1.950   9.053  0.1534 -0.0009  0.1252
  581ERGO    C1 8353   7.654   1.675   8.807  0.2159  0.0003  0.0991
  581ERGO    C2 8354   7.624   1.665   8.476 -0.0701 -0.1288  0.0517
  582ERGO   ROH 8355   0.057   5.312   9.343 -0.2159  0.3799  0.1653
  582ERGO    R1 8356   0.006   5.460   9.108  0.0258  0.4224  0.1384
  582ERGO    R2 8357   0.202   5.607   8.979  0.3303 -0.1003 -0.0163
  582ERGO    R3 8358   0.126   5.460   8.764 -0.1453 -0.0005  0.0717
  582ERGO    R4 8359   0.199   5.722   8.654  0.4254 -0.1851 -0.0480
  582ERGO    R5 8360   0.010   5.616   8.624  0.1401  0.2439  0.0916
  582ERGO    C1 8361   0.125   5.651   8.262  0.0344 -0.1407  0.0162
  582ERGO    C2 8362   0.299   5.787   8.155 -0.0163 -0.1206  0.2763
  583ERGO   ROH 8363  13.859   4.072   6.132 -0.0962 -0.2647 -0.2327
  583ERGO    R1 8364  13.784   4.160   6.390  0.2975 -0.0229 -0.1916
  583ERGO    R2 8365  13.582   4.040   6.536  0.0088  0.5595 -0.0713
  583ERGO    R3 8366  13.775   4.019   6.725  0.0763  0.0078 -0.1842
  583ERGO    R4 8367  13.528   4.061   6.876  0.2432  0.3785 -0.0203
  583ERGO    R5 8368  13.711   4.177   6.893  0.4876 -0.0032 -0.0113
  583ERGO    C1 8369  13.678   4.054   7.253  0.4431 -0.2448 -0.0966
  583ERGO    C2 8370  13.833   3.997   7.566 -0.0596 -0.0373 -0.1807
  584ERGO   ROH 8371   8.868  12.057   6.041  0.0500  0.1022  0.1285
  584ERGO    R1 8372   8.859  11.790   6.134  0.0717  0.0911  0.0995
  584ERGO    R2 8373   9.043  11.599   6.056  0.0999  0.1186  0.0945
  584ERGO    R3 8374   9.076  11.569   6.324  0.0806  0.0953  0.0940
  584ERGO    R4 8375   9.209  11.336   6.206  0.1513  0.1433  0.0805
  584ERGO    R5 8376   9.055  11.334   6.361  0.1369  0.0862  0.0644
  584ERGO    C1 8377   9.337  11.154   6.545  0.1633  0.1358  0.0719
  584ERGO    C2 8378   9.661  11.016   6.564  0.1841 -0.2664 -0.1971
  585ERGO   ROH 8379   9.330  18.696   6.476 -0.2084 -0.1759  0.0581
  585ERGO    R1 8380   9.357  18.536   6.708 -0.2508 -0.0816  0.1292
  585ERGO    R2 8381   9.541  18.591   6.906 -0.1164 -0.1408  0.0224
  585ERGO    R3 8382   9.323  18.583   7.067 -0.0565  0.1345  0.1221
  585ERGO    R4 8383   9.550  18.596   7.252  0.0661 -0.3390  0.0226
  585ERGO    R5 8384   9.391  18.448   7.253 -0.1830 -0.0812  0.0169
  585ERGO    C1 8385   9.350  18.592   7.604  0.2286 -0.1959  0.1163
  585ERGO    C2 8386   9.223  18.738   7.838 -0.0288  0.0460  0.1211
  586ERGO   ROH 8387   4.866  13.362   6.489  0.1481  0.0336  0.0437
  586ERGO    R1 8388   4.920  13.199   6.713 -0.0350 -0.0305  0.0432
  586ERGO    R2 8389   5.131  13.246   6.885 -0.0041 -0.2436  0.0685
  586ERGO    R3 8390   4.937  13.243   7.074 -0.0308 -0.0611  0.0466
  586ERGO    R4 8391   5.173  13.134   7.209 -0.1144 -0.1620  0.1116
  586ERGO    R5 8392   4.977  13.041   7.197 -0.1703 -0.0454  0.1191
  586ERGO    C1 8393   5.015  13.065   7.575 -0.2037  0.0568  0.1160
  586ERGO    C2 8394   5.203  13.083   7.905  0.3961  0.0917  0.0498
  587ERGO   ROH 8395  16.257   3.849   6.053  0.1951  0.0147  0.0500
  587ERGO    R1 8396  16.475   3.809   6.230  0.1673  0.0542  0.0953
  587ERGO    R2 8397  16.584   4.014   6.381  0.0908  0.0744  0.1345
  587ERGO    R3 8398  16.534   3.844   6.587  0.0785  0.0495  0.1091
  587ERGO    R4 8399  16.671   4.071   6.710  0.1474 -0.0171  0.1345
  587ERGO    R5 8400  16.728   3.861   6.727  0.0962 -0.0284  0.0871
  587ERGO    C1 8401  16.676   3.944   7.095  0.1688 -0.0938  0.1106
  587ERGO    C2 8402  16.618   3.849   7.338 -0.1128 -0.1295 -0.1500
  588ERGO   ROH 8403  14.660   1.943   9.660  0.0014  0.1684 -0.0808
  588ERGO    R1 8404  14.875   1.846   9.504  0.0902 -0.0902  0.1925
  588ERGO    R2 8405  14.933   1.577   9.480 -0.3698 -0.1855  0.0617
  588ERGO    R3 8406  14.915   1.630   9.214  0.1638  0.0884  0.0675
  588ERGO    R4 8407  15.108   1.409   9.234 -0.4020 -0.4203  0.1950
  588ERGO    R5 8408  15.139   1.600   9.133  0.2315 -0.3982  0.3885
  588ERGO    C1 8409  15.194   1.361   8.840  0.0804 -0.2999  0.2781
  588ERGO    C2 8410  15.205   1.122   8.516  0.2373  0.0575 -0.3237
  589ERGO   ROH 8411  16.888  10.596   9.587  0.0684  0.0288  0.1799
  589ERGO    R1 8412  16.647  10.583   9.439  0.1355 -0.2621  0.0920
  589ERGO    R2 8413  16.554  10.794   9.287 -0.1133 -0.3377  0.1433
  589ERGO    R3 8414  16.550  10.608   9.089  0.2181 -0.2714  0.0668
  589ERGO    R4 8415  16.423  10.846   8.971  0.0243 -0.3578  0.0814
  589ERGO    R5 8416  16.340  10.644   8.978  0.2407 -0.4600 -0.0482
  589ERGO    C1 8417  16.343  10.701   8.601  0.4157 -0.3074 -0.0264
  589ERGO    C2 8418  16.280  10.662   8.276  0.7863  0.2615 -0.0253
  590ERGO   ROH 8419   7.852   5.896   9.402  0.0469  0.0866 -0.1137
  590ERGO    R1 8420   7.770   5.936   9.134 -0.0313 -0.0473 -0.1106
  590ERGO    R2 8421   7.950   5.956   8.925 -0.0809  0.0618 -0.1433
  590ERGO    R3 8422   7.799   5.755   8.820  0.0768 -0.0962 -0.0732
  590ERGO    R4 8423   7.977   5.837   8.602 -0.1819  0.1701 -0.1919
  590ERGO    R5 8424   7.760   5.823   8.594 -0.1760 -0.0882 -0.0297
  590ERGO    C1 8425   7.851   5.580   8.314 -0.0928  0.0849 -0.1544
  590ERGO    C2 8426   7.888   5.439   8.027  0.1147  0.0502  0.3231
  591ERGO   ROH 8427  10.259   4.435   8.946 -0.0183  0.0174 -0.0373
  591ERGO    R1 8428  10.392   4.221   8.818 -0.0233 -0.0037 -0.0073
  591ERGO    R2 8429  10.379   4.180   8.545 -0.0089 -0.0308 -0.0032
  591ERGO    R3 8430  10.651   4.183   8.565 -0.0098 -0.0461  0.0120
  591ERGO    R4 8431  10.596   4.073   8.298 -0.0031  0.0197 -0.0199
  591ERGO    R5 8432  10.720   3.982   8.453 -0.0139 -0.0234 -0.0340
  591ERGO    C1 8433  10.976   4.013   8.172 -0.0008  0.0347 -0.0154
  591ERGO    C2 8434  11.056   4.014   7.831  0.0554  0.2682  0.2135
  592ERGO   ROH 8435  12.353  13.121   8.703 -0.0256  0.2806 -0.2202
  592ERGO    R1 8436  12.434  13.131   8.432  0.1053  0.0632 -0.1907
  592ERGO    R2 8437  12.666  13.011   8.341 -0.0443 -0.3318 -0.0524
  592ERGO    R3 8438  12.497  12.892   8.165 -0.1575 -0.1282 -0.0876
  592ERGO    R4 8439  12.719  12.989   8.001 -0.0389 -0.3033 -0.0545
  592ERGO    R5 8440  12.507  13.030   7.970 -0.0069 -0.0853 -0.0570
  592ERGO    C1 8441  12.592  12.864   7.637 -0.1419 -0.0955 -0.0886
  592ERGO    C2 8442  12.758  13.048   7.384  0.2501  0.0461 -0.0379
  593ERGO   ROH 8443  17.773  12.032   6.270  0.1532 -0.0221  0.0997
  593ERGO    R1 8444  17.921  12.114   6.497  0.0604  0.0741  0.1271
  593ERGO    R2 8445  17.832  12.311   6.669 -0.0630  0.0728  0.0715
  593ERGO    R3 8446  17.871  12.119   6.857 -0.0428  0.1172  0.1116
  593ERGO    R4 8447  17.820  12.364   7.010 -0.3527  0.0806  0.0619
  593ERGO    R5 8448  17.992  12.231   7.032 -0.2608  0.2229  0.1935
  593ERGO    C1 8449  17.850  12.215   7.386 -0.5023  0.1268  0.0940
  593ERGO    C2 8450  17.865  12.051   7.591 -0.1511 -0.2077 -0.0009
  594ERGO   ROH 8451  15.769  14.565   9.666  0.0580  0.0050 -0.0304
  594ERGO    R1 8452  15.791  14.354   9.479 -0.0164 -0.0344  0.0060
  594ERGO    R2 8453  15.644  14.346   9.245  0.0547  0.0288 -0.0381
  594ERGO    R3 8454  15.889  14.318   9.130  0.0749 -0.1454  0.0417
  594ERGO    R4 8455  15.699  14.241   8.921  0.0814  0.0493 -0.0411
  594ERGO    R5 8456  15.868  14.124   8.992 -0.0359 -0.1034 -0.0044
  594ERGO    C1 8457  15.960  14.154   8.624  0.1158 -0.1024  0.0322
  594ERGO    C2 8458  15.924  14.185   8.224  0.2843  0.0892 -0.0186
  595ERGO   ROH 8459   7.982   6.478   6.019 -0.0469 -0.0043 -0.0487
  595ERGO    R1 8460   7.837   6.577   6.242 -0.0727 -0.0120 -0.0611
  595ERGO    R2 8461   7.628   6.438   6.358 -0.1390  0.0168 -0.1361
  595ERGO    R3 8462   7.774   6.472   6.584 -0.1781 -0.0685 -0.0984
  595ERGO    R4 8463   7.503   6.417   6.679 -0.2401  0.1437 -0.1669
  595ERGO    R5 8464   7.627   6.588   6.733 -0.1311  0.0548 -0.1507
  595ERGO    C1 8465   7.567   6.437   7.079 -0.3357  0.1376 -0.1495
  595ERGO    C2 8466   7.436   6.460   7.410 -0.0712 -0.1729  0.4673
  596ERGO   ROH 8467   2.173   4.848   9.573 -0.1382 -0.0228 -0.1415
  596ERGO    R1 8468   2.264   4.664   9.378 -0.0347 -0.0258 -0.0907
  596ERGO    R2 8469   2.112   4.592   9.159  0.0356 -0.1170 -0.1078
  596ERGO    R3 8470   2.333   4.670   9.020  0.0365 -0.0667 -0.0786
  596ERGO    R4 8471   2.150   4.567   8.816  0.0332  0.0032 -0.1172
  596ERGO    R5 8472   2.356   4.505   8.848  0.0357 -0.0083 -0.1374
  596ERGO    C1 8473   2.378   4.626   8.487  0.0326  0.1203 -0.0954
  596ERGO    C2 8474   2.531   4.652   8.268  0.0172  0.0923  0.4035
  597ERGO   ROH 8475   1.251   4.631   9.206 -0.1404  0.1553 -0.1140
  597ERGO    R1 8476   1.226   4.475   8.971  0.0968  0.0536 -0.0729
  597ERGO    R2 8477   1.121   4.574   8.736  0.0034 -0.1490 -0.1156
  597ERGO    R3 8478   1.355   4.486   8.631  0.1361  0.1200 -0.0566
  597ERGO    R4 8479   1.203   4.585   8.400  0.0570 -0.0928 -0.1016
  597ERGO    R5 8480   1.293   4.388   8.421  0.2945  0.0146 -0.0575
  597ERGO    C1 8481   1.472   4.508   8.107  0.2127  0.1926 -0.0380
  597ERGO    C2 8482   1.731   4.620   7.928  0.1383 -0.0992 -0.4144
  598ERGO   ROH 8483   8.509  12.933   6.383 -0.0493  0.3995 -0.0011
  598ERGO    R1 8484   8.552  12.850   6.650 -0.1279  0.2232 -0.0407
  598ERGO    R2 8485   8.750  12.958   6.810 -0.0400 -0.0225  0.0285
  598ERGO    R3 8486   8.544  13.005   6.980 -0.0120  0.0617  0.0380
  598ERGO    R4 8487   8.784  13.059   7.138  0.0148 -0.1317  0.0561
  598ERGO    R5 8488   8.622  12.924   7.192 -0.0683 -0.0419  0.0168
  598ERGO    C1 8489   8.610  13.163   7.490  0.0731 -0.1162  0.0812
  598ERGO    C2 8490   8.643  13.111   7.881  0.2977  0.0140 -0.3633
  599ERGO   ROH 8491   8.457  16.837   9.668 -0.0552  0.3970  0.1699
  599ERGO    R1 8492   8.567  16.904   9.415  0.0113  0.2835  0.1692
  599ERGO    R2 8493   8.513  16.758   9.187  0.1236  0.1431  0.2337
  599ERGO    R3 8494   8.439  17.001   9.089  0.0963  0.0709  0.0700
  599ERGO    R4 8495   8.436  16.822   8.856  0.0011 -0.1169  0.2088
  599ERGO    R5 8496   8.543  17.012   8.873  0.0168 -0.1042  0.0194
  599ERGO    C1 8497   8.322  17.087   8.571 -0.0959 -0.3361  0.0405
  599ERGO    C2 8498   8.157  16.986   8.332  0.5369  0.0160  0.2370
  600ERGO   ROH 8499   8.587  13.645   9.627 -0.1288 -0.0775 -0.0115
  600ERGO    R1 8500   8.539  13.581   9.356 -0.0398 -0.1249 -0.0169
  600ERGO    R2 8501   8.376  13.734   9.193 -0.0606 -0.2026 -0.0736
  600ERGO    R3 8502   8.596  13.739   9.033 -0.0221 -0.1365 -0.0186
  600ERGO    R4 8503   8.392  13.886   8.883  0.0583  0.0343  0.0456
  600ERGO    R5 8504   8.508  13.716   8.811  0.0277  0.0601 -0.0577
  600ERGO    C1 8505   8.607  13.978   8.552  0.1636  0.2343  0.1665
  600ERGO    C2 8506   8.595  14.108   8.231  0.0514  0.1899 -0.0300
  601ERGO   ROH 8507   3.034  12.228   9.597  0.2501  0.1094 -0.0070
  601ERGO    R1 8508   2.979  12.299   9.328  0.2534  0.2258  0.0231
  601ERGO    R2 8509   3.110  12.505   9.199  0.5256  0.0380 -0.0028
  601ERGO    R3 8510   3.163  12.312   9.015  0.1531 -0.0284 -0.0496
  601ERGO    R4 8511   3.201  12.564   8.871  0.4338 -0.0620 -0.0474
  601ERGO    R5 8512   3.074  12.398   8.810  0.1609  0.1186  0.0054
  601ERGO    C1 8513   3.305  12.417   8.507  0.0307 -0.1826 -0.1175
  601ERGO    C2 8514   3.386  12.372   8.129  0.0782 -0.2218  0.4312
  602ERGO   ROH 8515  16.479   1.016   6.376  0.1601  0.1442  0.0290
  602ERGO    R1 8516  16.624   1.158   6.573  0.0749  0.0918  0.1312
  602ERGO    R2 8517  16.817   1.037   6.732  0.0872  0.0732  0.1075
  602ERGO    R3 8518  16.973   1.238   6.637  0.0355  0.1754  0.2378
  602ERGO    R4 8519  17.082   1.179   6.903  0.1080 -0.0275  0.1585
  602ERGO    R5 8520  17.019   1.374   6.829  0.0630  0.0231  0.3371
  602ERGO    C1 8521  17.383   1.449   6.914  0.0714  0.0097  0.3106
  602ERGO    C2 8522  17.718   1.575   6.991 -0.0347  0.3012 -0.5025
  603ERGO   ROH 8523   2.776  17.321  10.005 -0.1407 -0.0883  0.0790
  603ERGO    R1 8524   2.690  17.304   9.736 -0.0332  0.0190  0.0364
  603ERGO    R2 8525   2.769  17.486   9.543  0.1809  0.0016  0.0989
  603ERGO    R3 8526   2.847  17.262   9.410  0.0855 -0.0325  0.1014
  603ERGO    R4 8527   2.810  17.463   9.200 -0.0491 -0.0956  0.0765
  603ERGO    R5 8528   2.719  17.265   9.208 -0.0468 -0.0865  0.1874
  603ERGO    C1 8529   2.907  17.239   8.877 -0.2724 -0.1841  0.0657
  603ERGO    C2 8530   2.984  17.292   8.470 -0.2174 -0.2167  0.1085
  604ERGO   ROH 8531   4.279  15.609   6.770 -0.1332 -0.2383  0.0103
  604ERGO    R1 8532   4.284  15.717   7.032 -0.1021 -0.0250 -0.0736
  604ERGO    R2 8533   4.082  15.671   7.216 -0.0695  0.0917  0.0067
  604ERGO    R3 8534   4.288  15.585   7.372 -0.0242  0.2428  0.0287
  604ERGO    R4 8535   4.052  15.574   7.546 -0.0256  0.0193 -0.0119
  604ERGO    R5 8536   4.240  15.676   7.588 -0.1257  0.1665  0.0305
  604ERGO    C1 8537   4.227  15.436   7.885  0.0425  0.1192 -0.0022
  604ERGO    C2 8538   4.180  15.453   8.256  0.4108  0.4550  0.1769
  605ERGO   ROH 8539   5.284  11.653   9.435 -0.0941 -0.1426 -0.1732
  605ERGO    R1 8540   5.368  11.757   9.186 -0.0628 -0.0587 -0.1291
  605ERGO    R2 8541   5.516  11.609   9.006 -0.0196  0.0077 -0.1538
  605ERGO    R3 8542   5.317  11.676   8.835 -0.0003  0.0423 -0.1612
  605ERGO    R4 8543   5.541  11.600   8.662  0.0459  0.1649 -0.1531
  605ERGO    R5 8544   5.429  11.787   8.654  0.0101  0.1441 -0.0915
  605ERGO    C1 8545   5.367  11.658   8.300  0.1021  0.2889 -0.1596
  605ERGO    C2 8546   5.467  11.600   7.921 -0.0610  0.0902  0.2855
  606ERGO   ROH 8547  12.623   5.914   8.521  0.1562 -0.0193  0.1256
  606ERGO    R1 8548  12.656   5.926   8.240  0.2080 -0.0839  0.1287
  606ERGO    R2 8549  12.522   6.109   8.082  0.1015 -0.2347  0.0400
  606ERGO    R3 8550  12.773   6.172   7.998  0.0739 -0.0708  0.0775
  606ERGO    R4 8551  12.599   6.239   7.772  0.0559 -0.0717  0.0961
  606ERGO    R5 8552  12.775   6.110   7.767  0.1218  0.0226  0.0544
  606ERGO    C1 8553  12.880   6.374   7.512  0.0035  0.1771  0.1641
  606ERGO    C2 8554  12.804   6.560   7.312  0.1231  0.0021  0.0398
  607ERGO   ROH 8555  17.016   5.938   9.407 -0.0905  0.1413 -0.0108
  607ERGO    R1 8556  17.076   5.961   9.131 -0.0407 -0.0362 -0.0146
  607ERGO    R2 8557  17.188   6.188   9.022 -0.1363 -0.0637 -0.1592
  607ERGO    R3 8558  17.375   6.014   8.929 -0.0230 -0.0352  0.0091
  607ERGO    R4 8559  17.331   6.202   8.708 -0.0192 -0.1616 -0.1114
  607ERGO    R5 8560  17.318   5.984   8.698  0.0771 -0.1786 -0.0023
  607ERGO    C1 8561  17.591   6.046   8.438  0.1552 -0.1918  0.0743
  607ERGO    C2 8562  17.541   6.176   8.064  0.1355  0.2991  0.0573
  608ERGO   ROH 8563   7.129  12.072   9.423 -0.0778  0.1975 -0.0459
  608ERGO    R1 8564   7.236  12.108   9.164  0.0604  0.1630  0.0051
  608ERGO    R2 8565   7.247  11.904   8.978  0.0396  0.1698 -0.0081
  608ERGO    R3 8566   7.115  12.083   8.822  0.2018  0.2532 -0.0510
  608ERGO    R4 8567   7.260  11.908   8.633 -0.2416 -0.1477 -0.0278
  608ERGO    R5 8568   7.269  12.127   8.642  0.1267 -0.1509 -0.2213
  608ERGO    C1 8569   7.144  12.079   8.285 -0.2530 -0.2542 -0.0796
  608ERGO    C2 8570   7.041  11.990   8.039 -0.0616  0.1219 -0.2455
  609ERGO   ROH 8571  15.159   6.316   9.488 -0.3652 -0.0752 -0.0564
  609ERGO    R1 8572  15.216   6.443   9.242 -0.3501  0.0619  0.0175
  609ERGO    R2 8573  15.364   6.322   9.043 -0.1898  0.2418  0.0301
  609ERGO    R3 8574  15.147   6.381   8.890 -0.1654  0.1586 -0.0382
  609ERGO    R4 8575  15.333   6.248   8.706 -0.1116  0.0859  0.0562
  609ERGO    R5 8576  15.239   6.442   8.677 -0.1223  0.0707 -0.0492
  609ERGO    C1 8577  15.111   6.259   8.367 -0.0433 -0.0830  0.0073
  609ERGO    C2 8578  14.947   6.184   8.006 -0.1839  0.1864  0.2588
  610ERGO   ROH 8579  12.602   2.254   9.808 -0.0749  0.2816  0.0119
  610ERGO    R1 8580  12.616   2.228   9.526 -0.1371  0.5172 -0.0144
  610ERGO    R2 8581  12.494   2.021   9.389  0.4921  0.1637 -0.0762
  610ERGO    R3 8582  12.380   2.224   9.249 -0.3017 -0.1127  0.1186
  610ERGO    R4 8583  12.438   2.018   9.048  0.5818  0.2934 -0.0929
  610ERGO    R5 8584  12.499   2.228   9.042 -0.2427  0.5823  0.1393
  610ERGO    C1 8585  12.298   2.207   8.718 -0.1112  0.1095  0.0802
  610ERGO    C2 8586  12.245   2.094   8.515 -0.1384 -0.0757  0.3335
  611ERGO   ROH 8587  17.847   8.139   6.614  0.1688 -0.1360  0.0580
  611ERGO    R1 8588  17.697   8.090   6.849  0.1700 -0.1559  0.0538
  611ERGO    R2 8589  17.475   7.926   6.852  0.1427 -0.1116  0.0291
  611ERGO    R3 8590  17.610   7.800   7.052  0.1218 -0.1806  0.0011
  611ERGO    R4 8591  17.328   7.794   7.135  0.1568  0.2548  0.2135
  611ERGO    R5 8592  17.497   7.869   7.252  0.3547  0.0972  0.0479
  611ERGO    C1 8593  17.369   7.599   7.488  0.1455  0.4033  0.2944
  611ERGO    C2 8594  17.123   7.418   7.725  0.4266 -0.0387  0.0218
  612ERGO   ROH 8595   1.024   8.069   9.454  0.0701  0.1842  0.1000
  612ERGO    R1 8596   1.213   8.214   9.300  0.0841  0.1031  0.0385
  612ERGO    R2 8597   1.425   8.092   9.172  0.0661  0.0259  0.0723
  612ERGO    R3 8598   1.323   8.218   8.954  0.0694 -0.0419  0.0325
  612ERGO    R4 8599   1.581   8.113   8.864  0.0908 -0.0138  0.0828
  612ERGO    R5 8600   1.514   8.319   8.849  0.0584 -0.0331  0.0283
  612ERGO    C1 8601   1.577   8.243   8.480  0.1082 -0.1006  0.0513
  612ERGO    C2 8602   1.714   8.274   8.207 -0.0930 -0.1529  0.3268
  613ERGO   ROH 8603   4.041  12.742   6.261 -0.1810 -0.2784 -0.1665
  613ERGO    R1 8604   4.137  12.575   6.468 -0.1372 -0.1408 -0.0724
  613ERGO    R2 8605   4.099  12.632   6.735 -0.2063 -0.0339 -0.0976
  613ERGO    R3 8606   3.992  12.382   6.740 -0.0968 -0.0778 -0.0085
  613ERGO    R4 8607   4.080  12.431   7.016  0.0033 -0.0057 -0.0631
  613ERGO    R5 8608   4.133  12.260   6.891  0.0174  0.0026 -0.0568
  613ERGO    C1 8609   3.969  12.078   7.184  0.2282 -0.0307  0.0405
  613ERGO    C2 8610   3.705  11.743   7.265  0.0612  0.0760 -0.0123
  614ERGO   ROH 8611   2.345  12.825   6.200  0.3097 -0.1022 -0.0639
  614ERGO    R1 8612   2.467  12.729   6.436  0.4374  0.0028 -0.0865
  614ERGO    R2 8613   2.678  12.860   6.558  0.1158  0.3895  0.0756
  614ERGO    R3 8614   2.516  12.850   6.776  0.0500 -0.1127  0.0146
  614ERGO    R4 8615   2.788  12.828   6.885  0.0641  0.3523  0.0897
  614ERGO    R5 8616   2.622  12.691   6.922  0.3205 -0.0198 -0.0763
  614ERGO    C1 8617   2.700  12.799   7.279 -0.0278 -0.1411  0.0407
  614ERGO    C2 8618   2.818  12.877   7.557 -0.6461 -0.2716 -0.1119
  615ERGO   ROH 8619   2.890  16.094   9.594  0.0394  0.0173  0.0200
  615ERGO    R1 8620   2.990  16.051   9.332  0.0422  0.0152  0.0210
  615ERGO    R2 8621   2.857  16.138   9.106  0.0444  0.0161  0.0166
  615ERGO    R3 8622   3.094  16.258   9.052  0.0463  0.0142  0.0231
  615ERGO    R4 8623   2.960  16.235   8.791  0.0401  0.0588  0.0287
  615ERGO    R5 8624   3.161  16.165   8.841  0.0361  0.0451  0.0090
  615ERGO    C1 8625   3.243  16.405   8.556  0.0393  0.0822  0.0418
  615ERGO    C2 8626   3.334  16.472   8.273 -0.0423 -0.0251 -0.2288
  616ERGO   ROH 8627   4.198   0.961   6.708 -0.0523 -0.0305 -0.1530
  616ERGO    R1 8628   4.110   0.842   6.950 -0.0395  0.0744 -0.0959
  616ERGO    R2 8629   4.278   0.693   7.112 -0.0263  0.1594 -0.0300
  616ERGO    R3 8630   4.195   0.868   7.303 -0.0338  0.2423 -0.1092
  616ERGO    R4 8631   4.405   0.712   7.433 -0.1846  0.1561  0.0334
  616ERGO    R5 8632   4.202   0.743   7.507 -0.2072  0.2789 -0.0789
  616ERGO    C1 8633   4.400   0.887   7.799 -0.2838  0.2320 -0.0041
  616ERGO    C2 8634   4.632   0.889   8.018 -0.0070  0.5816  0.0245
  617ERGO   ROH 8635  15.968   1.182   9.636  0.0937  0.0224 -0.0055
  617ERGO    R1 8636  15.998   1.334   9.398  0.2166 -0.1084 -0.0751
  617ERGO    R2 8637  16.232   1.336   9.252  0.2196 -0.3673 -0.0803
  617ERGO    R3 8638  16.067   1.265   9.048  0.1578 -0.3258 -0.0451
  617ERGO    R4 8639  16.302   1.382   8.917  0.1299 -0.3324 -0.0947
  617ERGO    R5 8640  16.094   1.439   8.886  0.1285 -0.3095 -0.0308
  617ERGO    C1 8641  16.188   1.341   8.530  0.0195 -0.2731 -0.0701
  617ERGO    C2 8642  15.971   1.306   8.268 -0.0722  0.3065 -0.0421
  618ERGO   ROH 8643  11.784   8.792   9.258  0.0666  0.0920  0.1069
  618ERGO    R1 8644  12.041   8.746   9.147 -0.0001 -0.0877  0.0296
  618ERGO    R2 8645  12.131   8.492   9.079 -0.2570 -0.1276 -0.1255
  618ERGO    R3 8646  12.173   8.609   8.837 -0.1841 -0.0416 -0.0753
  618ERGO    R4 8647  12.363   8.388   8.845 -0.0978  0.0091 -0.0338
  618ERGO    R5 8648  12.409   8.596   8.804 -0.1517  0.0505  0.0453
  618ERGO    C1 8649  12.538   8.437   8.483  0.0633  0.1695  0.0669
  618ERGO    C2 8650  12.571   8.547   8.255  0.2068 -0.2388  0.2570
  619ERGO   ROH 8651  17.567   3.399   9.311 -0.2565 -0.0129 -0.1106
  619ERGO    R1 8652  17.544   3.499   9.047 -0.0977 -0.0302 -0.1329
  619ERGO    R2 8653  17.719   3.428   8.845 -0.1225 -0.2433 -0.0876
  619ERGO    R3 8654  17.490   3.359   8.715 -0.1690 -0.0323 -0.1190
  619ERGO    R4 8655  17.688   3.395   8.502 -0.1266 -0.1707 -0.0936
  619ERGO    R5 8656  17.493   3.491   8.516 -0.0439 -0.0099 -0.0991
  619ERGO    C1 8657  17.455   3.311   8.181 -0.1726  0.0696 -0.1267
  619ERGO    C2 8658  17.387   3.353   7.762 -0.1082  0.0687  0.1299
  620ERGO   ROH 8659  15.461  10.546   9.568 -0.2453  0.1463 -0.0740
  620ERGO    R1 8660  15.557  10.655   9.325 -0.2576  0.0691 -0.1116
  620ERGO    R2 8661  15.769  10.544   9.187  0.0167  0.2789  0.1481
  620ERGO    R3 8662  15.592  10.543   8.980  0.1632 -0.2098  0.0096
  620ERGO    R4 8663  15.856  10.563   8.853  0.2514  0.4621  0.2154
  620ERGO    R5 8664  15.685  10.696   8.821 -0.0930  0.0311  0.0700
  620ERGO    C1 8665  15.740  10.573   8.464  0.5256  0.1101  0.1246
  620ERGO    C2 8666  15.846  10.384   8.102  0.1410 -0.1342 -0.0509
  621ERGO   ROH 8667   1.922  12.004   8.826 -0.2460  0.1911 -0.2450
  621ERGO    R1 8668   1.963  11.810   8.623 -0.1182  0.0645 -0.1025
  621ERGO    R2 8669   1.862  11.839   8.368  0.0338 -0.0959 -0.1890
  621ERGO    R3 8670   2.121  11.799   8.296  0.0808 -0.1317 -0.0005
  621ERGO    R4 8671   1.965  11.705   8.066  0.2510  0.1382 -0.2209
  621ERGO    R5 8672   2.118  11.593   8.174  0.1098 -0.0168 -0.1901
  621ERGO    C1 8673   2.268  11.590   7.823  0.4216  0.2409 -0.0626
  621ERGO    C2 8674   2.262  11.598   7.526  0.1105  0.0942 -0.0014
  622ERGO   ROH 8675   4.068   3.723   9.380 -0.1226 -0.0677  0.0311
  622ERGO    R1 8676   3.875   3.858   9.223 -0.0611  0.0025  0.0154
  622ERGO    R2 8677   3.870   3.842   8.947 -0.0814 -0.0447  0.0198
  622ERGO    R3 8678   3.613   3.765   8.989 -0.1202  0.0946  0.0436
  622ERGO    R4 8679   3.629   3.814   8.700 -0.1095  0.0630  0.0345
  622ERGO    R5 8680   3.485   3.900   8.839 -0.0568  0.1524  0.0385
  622ERGO    C1 8681   3.248   3.725   8.596 -0.1622  0.2565  0.0654
  622ERGO    C2 8682   3.138   3.659   8.270 -0.0635 -0.1030  0.2498
  623ERGO   ROH 8683  15.085   0.399   6.220 -0.0386  0.2107 -0.0287
  623ERGO    R1 8684  15.079   0.561   6.452  0.0739  0.1494  0.0167
  623ERGO    R2 8685  14.926   0.497   6.674  0.0548  0.1776  0.0056
  623ERGO    R3 8686  15.163   0.521   6.804  0.0771  0.0041  0.0018
  623ERGO    R4 8687  14.964   0.492   7.017  0.0547  0.0893  0.0053
  623ERGO    R5 8688  15.112   0.652   6.998  0.1591  0.0048  0.0288
  623ERGO    C1 8689  15.209   0.512   7.339  0.0755 -0.1251  0.0016
  623ERGO    C2 8690  15.461   0.365   7.583  0.0088  0.0414  0.1642
  624ERGO   ROH 8691  14.139  18.076   6.014  0.0234  0.2394  0.1040
  624ERGO    R1 8692  14.212  17.847   6.162 -0.1996  0.1784  0.1221
  624ERGO    R2 8693  14.444  17.835   6.313 -0.1336 -0.0854 -0.0012
  624ERGO    R3 8694  14.272  17.766   6.512 -0.1199  0.1889  0.1117
  624ERGO    R4 8695  14.535  17.682   6.609 -0.1476  0.0535  0.0768
  624ERGO    R5 8696  14.357  17.558   6.595 -0.2519  0.1789  0.2285
  624ERGO    C1 8697  14.426  17.529   6.969 -0.1428  0.3922  0.2282
  624ERGO    C2 8698  14.526  17.529   7.379  0.0499 -0.1310  0.1925
  625ERGO   ROH 8699   1.682  12.482   6.564  0.5342 -0.0750  0.1663
  625ERGO    R1 8700   1.598  12.664   6.764  0.2703 -0.1297  0.1094
  625ERGO    R2 8701   1.332  12.730   6.803  0.2056 -0.2151 -0.1565
  625ERGO    R3 8702   1.385  12.652   7.058 -0.0361 -0.2381 -0.1115
  625ERGO    R4 8703   1.192  12.871   7.086  0.2032 -0.0021 -0.2622
  625ERGO    R5 8704   1.386  12.856   7.184  0.1311 -0.2168 -0.1456
  625ERGO    C1 8705   1.160  12.880   7.490 -0.0251  0.1005 -0.2815
  625ERGO    C2 8706   1.032  12.736   7.869 -0.0794 -0.0184 -0.0073
  626ERGO   ROH 8707  13.511  16.305   9.382  0.0095 -0.0061  0.0788
  626ERGO    R1 8708  13.559  16.123   9.171  0.2141 -0.0206  0.1355
  626ERGO    R2 8709  13.403  16.114   8.943  0.1401 -0.3521  0.1893
  626ERGO    R3 8710  13.642  16.145   8.818  0.0553 -0.0314  0.0981
  626ERGO    R4 8711  13.473  16.011   8.621  0.1101 -0.0779  0.0927
  626ERGO    R5 8712  13.668  15.945   8.689  0.2056  0.0779 -0.0385
  626ERGO    C1 8713  13.738  15.979   8.315  0.0129  0.3832 -0.0492
  626ERGO    C2 8714  14.015  15.889   8.122  0.0532  0.0462 -0.0674
  627ERGO   ROH 8715   9.234   6.219   6.095 -0.1277  0.1181  0.1154
  627ERGO    R1 8716   9.305   6.158   6.362 -0.2095 -0.0813  0.0928
  627ERGO    R2 8717   9.393   6.350   6.540  0.0344 -0.2645  0.1720
  627ERGO    R3 8718   9.190   6.254   6.694 -0.0935 -0.0682  0.1300
  627ERGO    R4 8719   9.386   6.358   6.886 -0.0804 -0.1504  0.1676
  627ERGO    R5 8720   9.300   6.158   6.884 -0.2287 -0.0909  0.1997
  627ERGO    C1 8721   9.191   6.273   7.231 -0.2672  0.1004  0.1256
  627ERGO    C2 8722   9.161   6.280   7.641  0.0272  0.3843 -0.2030
  628ERGO   ROH 8723   3.909   8.219   7.013  0.0288 -0.0549  0.0406
  628ERGO    R1 8724   4.024   8.313   7.254 -0.0387 -0.0935  0.0880
  628ERGO    R2 8725   4.112   8.142   7.453  0.0309 -0.1300  0.0260
  628ERGO    R3 8726   4.344   8.280   7.424 -0.0358  0.0001  0.1012
  628ERGO    R4 8727   4.375   8.134   7.677  0.1130 -0.2829 -0.0744
  628ERGO    R5 8728   4.401   8.349   7.647  0.0137 -0.2341  0.1638
  628ERGO    C1 8729   4.747   8.259   7.780  0.0983 -0.2499 -0.0622
  628ERGO    C2 8730   4.980   8.094   8.015 -0.2637 -0.2173  0.3591
  629ERGO   ROH 8731  14.595   2.780   9.432  0.0356 -0.2335  0.0710
  629ERGO    R1 8732  14.621   2.574   9.239 -0.0837 -0.3685  0.1961
  629ERGO    R2 8733  14.417   2.398   9.181 -0.3645  0.0198 -0.0373
  629ERGO    R3 8734  14.459   2.484   8.926  0.2008 -0.1603 -0.0173
  629ERGO    R4 8735  14.280   2.254   8.898 -0.1602  0.1315 -0.1965
  629ERGO    R5 8736  14.470   2.282   8.797  0.0660 -0.2425  0.0947
  629ERGO    C1 8737  14.240   2.250   8.494  0.4895  0.0273 -0.2704
  629ERGO    C2 8738  14.185   2.095   8.193 -0.1527  0.0629  0.1433
  630ERGO   ROH 8739  11.545  17.268   9.228 -0.1531 -0.1083 -0.0840
  630ERGO    R1 8740  11.544  17.388   8.972 -0.0268 -0.1093 -0.0844
  630ERGO    R2 8741  11.763  17.383   8.804 -0.0138 -0.2833 -0.0522
  630ERGO    R3 8742  11.586  17.278   8.628 -0.0716 -0.1417 -0.0820
  630ERGO    R4 8743  11.778  17.424   8.461 -0.0097 -0.1434 -0.0367
  630ERGO    R5 8744  11.561  17.447   8.460 -0.0100 -0.0534 -0.0121
  630ERGO    C1 8745  11.620  17.349   8.096 -0.0617  0.0708 -0.0557
  630ERGO    C2 8746  11.534  17.194   7.692 -0.0704  0.0540  0.0925
  631ERGO   ROH 8747   0.232  14.679   9.631  0.0778  0.0752  0.0210
  631ERGO    R1 8748   0.132  14.673   9.367 -0.1304 -0.0049  0.0994
  631ERGO    R2 8749   0.296  14.664   9.145 -0.2938  0.2250 -0.0381
  631ERGO    R3 8750   0.147  14.446   9.083 -0.0857  0.0526  0.0561
  631ERGO    R4 8751   0.227  14.558   8.824 -0.5280  0.2574  0.0005
  631ERGO    R5 8752   0.023  14.512   8.888 -0.3989 -0.0308  0.2206
  631ERGO    C1 8753   0.046  14.290   8.578 -0.4690  0.1145  0.1115
  631ERGO    C2 8754   0.018  14.260   8.290  0.0279  0.3490 -0.0974
  632ERGO   ROH 8755   6.570  17.385   9.956 -0.0998  0.2575  0.0667
  632ERGO    R1 8756   6.670  17.567   9.764 -0.0348  0.1776  0.0264
  632ERGO    R2 8757   6.935  17.568   9.683 -0.0679 -0.0139 -0.0594
  632ERGO    R3 8758   6.825  17.546   9.435 -0.1581  0.0593 -0.0282
  632ERGO    R4 8759   7.107  17.612   9.387 -0.1027 -0.1513 -0.1022
  632ERGO    R5 8760   6.933  17.718   9.308 -0.0551 -0.0172 -0.0592
  632ERGO    C1 8761   7.104  17.618   8.982 -0.2078 -0.1625 -0.0978
  632ERGO    C2 8762   7.030  17.686   8.586 -0.3372  0.0647  0.0738
  633ERGO   ROH 8763   3.412  10.989   9.547 -0.2285  0.3901  0.2118
  633ERGO    R1 8764   3.524  11.040   9.292 -0.1245  0.1209  0.2008
  633ERGO    R2 8765   3.538  10.847   9.094 -0.2202 -0.0349  0.3440
  633ERGO    R3 8766   3.408  11.035   8.947 -0.0411 -0.0410  0.1742
  633ERGO    R4 8767   3.431  10.804   8.769 -0.0742 -0.1496  0.3096
  633ERGO    R5 8768   3.495  11.007   8.726  0.0600 -0.2069  0.2323
  633ERGO    C1 8769   3.247  10.956   8.441  0.1790 -0.2221  0.1301
  633ERGO    C2 8770   2.866  10.759   8.293 -0.0704 -0.1074  0.0886
  634ERGO   ROH 8771   2.173  10.812   6.423 -0.2132  0.0352 -0.0141
  634ERGO    R1 8772   2.134  10.687   6.673  0.1722 -0.0109  0.0272
  634ERGO    R2 8773   2.291  10.743   6.893  0.0232  0.5385  0.0030
  634ERGO    R3 8774   2.051  10.791   7.012 -0.1396 -0.1445 -0.0035
  634ERGO    R4 8775   2.238  10.747   7.235  0.1581  0.9330  0.0250
  634ERGO    R5 8776   2.049  10.643   7.201  0.4983  0.1446  0.2647
  634ERGO    C1 8777   1.983  10.794   7.545  0.0839  0.5214  0.0317
  634ERGO    C2 8778   2.129  10.971   7.785 -0.1520 -0.0094  0.2083
  635ERGO   ROH 8779   1.173   9.342   9.214 -0.0106 -0.0498  0.1612
  635ERGO    R1 8780   1.110   9.205   8.974  0.0106 -0.0804  0.1722
  635ERGO    R2 8781   0.993   9.330   8.757 -0.1365 -0.1443  0.2067
  635ERGO    R3 8782   1.207   9.227   8.624 -0.1019  0.0033  0.1476
  635ERGO    R4 8783   1.002   9.266   8.417 -0.1111  0.0253  0.1751
  635ERGO    R5 8784   1.110   9.082   8.460 -0.0429  0.0495  0.0778
  635ERGO    C1 8785   1.207   9.132   8.095 -0.0640  0.2626  0.1012
  635ERGO    C2 8786   1.051   9.225   7.811  0.1652  0.0232 -0.1611
  636ERGO   ROH 8787  10.573   1.316   6.345  0.0693 -0.1921  0.3121
  636ERGO    R1 8788  10.646   1.443   6.587  0.0195 -0.0274  0.2423
  636ERGO    R2 8789  10.727   1.707   6.598 -0.0404  0.0006  0.0894
  636ERGO    R3 8790  10.529   1.727   6.783 -0.0627  0.0667  0.0578
  636ERGO    R4 8791  10.718   1.941   6.852 -0.0279  0.0284  0.0638
  636ERGO    R5 8792  10.643   1.786   6.985 -0.0828  0.0620  0.0681
  636ERGO    C1 8793  10.527   2.096   7.173 -0.0417  0.1065  0.0192
  636ERGO    C2 8794  10.462   2.266   7.464  0.1687 -0.0897  0.0650
  637ERGO   ROH 8795  18.361   6.174   9.370  0.0151  0.1682  0.1775
  637ERGO    R1 8796  18.409   6.300   9.121  0.1312  0.2116  0.2192
  637ERGO    R2 8797  18.207   6.357   8.942  0.2540 -0.1484 -0.0618
  637ERGO    R3 8798  18.308   6.609   8.957 -0.1780  0.0239  0.0546
  637ERGO    R4 8799  18.203   6.586   8.683  0.2789 -0.1821 -0.0906
  637ERGO    R5 8800  18.405   6.647   8.741  0.0899  0.1570  0.2037
  637ERGO    C1 8801  18.296   6.956   8.547 -0.1124 -0.0400  0.0018
  637ERGO    C2 8802  18.383   7.147   8.155  0.1564  0.2152  0.0938
  638ERGO   ROH 8803   5.315   6.728   9.598  0.1331 -0.1672  0.1038
  638ERGO    R1 8804   5.477   6.677   9.372  0.0563 -0.0159  0.0132
  638ERGO    R2 8805   5.412   6.487   9.181  0.0699  0.0053 -0.0067
  638ERGO    R3 8806   5.441   6.696   9.010 -0.1194  0.0673  0.0328
  638ERGO    R4 8807   5.445   6.460   8.838  0.3657  0.0688  0.0137
  638ERGO    R5 8808   5.594   6.618   8.845  0.1303  0.3028  0.1389
  638ERGO    C1 8809   5.491   6.641   8.478  0.3601  0.1640  0.0625
  638ERGO    C2 8810   5.476   6.660   8.151  0.2650 -0.1251 -0.0817
  639ERGO   ROH 8811  14.590  15.309   6.563  0.1585  0.0603  0.1612
  639ERGO    R1 8812  14.687  15.366   6.823  0.1662 -0.0603  0.1829
  639ERGO    R2 8813  14.552  15.529   7.000  0.2732  0.0121  0.1837
  639ERGO    R3 8814  14.574  15.314   7.165  0.0816 -0.0270  0.1632
  639ERGO    R4 8815  14.488  15.534   7.340  0.5256  0.1222  0.2337
  639ERGO    R5 8816  14.661  15.404   7.369  0.3713 -0.1404  0.1035
  639ERGO    C1 8817  14.470  15.335   7.692  0.4927  0.1496  0.2437
  639ERGO    C2 8818  14.206  15.391   7.955  0.1735 -0.0679  0.0331
  640ERGO   ROH 8819  13.125  13.377   6.155  0.0441  0.2979  0.0510
  640ERGO    R1 8820  13.222  13.391   6.421 -0.0032  0.1023  0.0816
  640ERGO    R2 8821  13.057  13.361   6.641 -0.0675  0.0611  0.0362
  640ERGO    R3 8822  13.238  13.169   6.709 -0.1771 -0.0687 -0.0405
  640ERGO    R4 8823  13.132  13.266   6.965  0.1427  0.1339  0.0095
  640ERGO    R5 8824  13.342  13.253   6.907  0.0775 -0.0782 -0.1719
  640ERGO    C1 8825  13.345  13.030   7.217  0.1623  0.0545 -0.0781
  640ERGO    C2 8826  13.204  12.991   7.615 -0.1257 -0.0399  0.0287
  641ERGO   ROH 8827  18.545  10.194   6.188 -0.0250 -0.0225 -0.1201
  641ERGO    R1 8828  18.702  10.239   6.419 -0.0997 -0.0752 -0.0584
  641ERGO    R2 8829  18.741  10.491   6.525  0.0307 -0.0751 -0.1062
  641ERGO    R3 8830  18.648  10.374   6.753 -0.1588  0.0499 -0.1172
  641ERGO    R4 8831  18.841  10.575   6.845  0.1008 -0.1952 -0.0967
  641ERGO    R5 8832  18.840  10.363   6.896 -0.1875 -0.1992 -0.0909
  641ERGO    C1 8833  18.813  10.514   7.245 -0.0363 -0.1477 -0.1013
  641ERGO    C2 8834  19.087  10.634   7.566 -0.1235 -0.2893 -0.3382
  642ERGO   ROH 8835   4.583  17.300   9.628  0.1650 -0.1872 -0.1043
  642ERGO    R1 8836   4.533  17.477   9.413  0.0134 -0.2345 -0.1104
  642ERGO    R2 8837   4.686  17.702   9.366 -0.2227 -0.0562 -0.0729
  642ERGO    R3 8838   4.713  17.593   9.119 -0.0487 -0.0274 -0.0666
  642ERGO    R4 8839   4.685  17.880   9.070  0.0304 -0.0255 -0.0572
  642ERGO    R5 8840   4.566  17.721   8.981  0.0785  0.0060 -0.1666
  642ERGO    C1 8841   4.709  17.880   8.665  0.3411  0.0193 -0.0421
  642ERGO    C2 8842   4.818  18.077   8.508 -0.1352  0.1133 -0.1841
  643ERGO   ROH 8843   4.130   6.251   9.050  0.3681 -0.0167 -0.1679
  643ERGO    R1 8844   4.004   6.137   8.824  0.1296 -0.2574  0.0781
  643ERGO    R2 8845   4.055   6.223   8.566 -0.5468 -0.1426 -0.0403
  643ERGO    R3 8846   4.109   5.960   8.524 -0.1113 -0.0448 -0.1350
  643ERGO    R4 8847   4.035   6.063   8.260 -0.7862 -0.1840 -0.0056
  643ERGO    R5 8848   3.948   5.891   8.361 -0.2756 -0.3576  0.1541
  643ERGO    C1 8849   4.075   5.723   8.042 -0.5168 -0.1163 -0.0743
  643ERGO    C2 8850   4.194   5.747   7.775  0.0133  0.0709 -0.1104
  644ERGO   ROH 8851  14.353   3.121   9.477 -0.1202 -0.1540  0.1060
  644ERGO    R1 8852  14.344   3.149   9.195 -0.0822 -0.0280  0.1167
  644ERGO    R2 8853  14.446   2.958   9.023 -0.0264  0.0651  0.0449
  644ERGO    R3 8854  14.196   2.968   8.916 -0.0121  0.0744  0.0125
  644ERGO    R4 8855  14.361   2.842   8.709 -0.0113 -0.0232  0.0732
  644ERGO    R5 8856  14.233   3.016   8.685  0.0229 -0.0086  0.0007
  644ERGO    C1 8857  14.077   2.784   8.426  0.0109 -0.0658  0.0593
  644ERGO    C2 8858  14.054   2.652   8.131 -0.1629 -0.2934 -0.0935
  645ERGO   ROH 8859   8.351  14.097   6.085 -0.1157  0.0126  0.1497
  645ERGO    R1 8860   8.559  13.927   6.174 -0.1029  0.0422  0.1777
  645ERGO    R2 8861   8.826  13.985   6.133 -0.1085 -0.0075  0.0545
  645ERGO    R3 8862   8.841  13.952   6.402 -0.0236  0.1467  0.0694
  645ERGO    R4 8863   9.091  13.838   6.299 -0.2028 -0.2153  0.0231
  645ERGO    R5 8864   8.947  13.739   6.430 -0.2614  0.0364  0.1539
  645ERGO    C1 8865   9.259  13.721   6.648 -0.1781 -0.1915  0.0189
  645ERGO    C2 8866   9.443  13.589   6.765  0.0823  0.0486  0.0167
  646ERGO   ROH 8867   5.635  16.499   6.489  0.1124  0.0143  0.0091
  646ERGO    R1 8868   5.690  16.433   6.758  0.1818 -0.1534 -0.0448
  646ERGO    R2 8869   5.564  16.558   6.971  0.4896 -0.0338  0.0742
  646ERGO    R3 8870   5.503  16.302   7.042  0.1587  0.0273  0.0242
  646ERGO    R4 8871   5.547  16.442   7.296  0.3906 -0.0918  0.0490
  646ERGO    R5 8872   5.644  16.258   7.230  0.1332 -0.2083 -0.0106
  646ERGO    C1 8873   5.480  16.135   7.552  0.0223 -0.0684 -0.0125
  646ERGO    C2 8874   5.452  16.197   7.850  0.0262 -0.6575  0.1018
  647ERGO   ROH 8875   8.434   0.062   6.324  0.1704 -0.0745  0.0112
  647ERGO    R1 8876   8.424  -0.075   6.571 -0.1366 -0.1706 -0.0514
  647ERGO    R2 8877   8.404   0.057   6.813  0.1223 -0.2331 -0.0014
  647ERGO    R3 8878   8.189  -0.106   6.847 -0.2316  0.1950 -0.0831
  647ERGO    R4 8879   8.279  -0.043   7.119  0.2421 -0.5079 -0.0383
  647ERGO    R5 8880   8.247  -0.242   7.035 -0.3175 -0.3024 -0.3909
  647ERGO    C1 8881   8.004  -0.255   7.329 -0.0204 -0.2658 -0.1365
  647ERGO    C2 8882   7.751  -0.392   7.550 -0.0863 -0.2977  0.3586
  648ERGO   ROH 8883   9.842   0.312   9.808 -0.0116 -0.1954  0.1683
  648ERGO    R1 8884  10.028   0.171   9.648 -0.0016 -0.2316  0.2128
  648ERGO    R2 8885   9.963  -0.062   9.516 -0.1136 -0.0427 -0.0662
  648ERGO    R3 8886  10.056   0.072   9.299  0.2306  0.0682  0.1418
  648ERGO    R4 8887  10.129  -0.208   9.250 -0.2756 -0.0297 -0.1768
  648ERGO    R5 8888  10.264  -0.036   9.247  0.0577 -0.2642  0.1011
  648ERGO    C1 8889  10.313  -0.167   8.892 -0.0467  0.0824 -0.0459
  648ERGO    C2 8890  10.466  -0.386   8.750  0.2611 -0.1840 -0.0501
  649ERGO   ROH 8891   4.035  13.564   9.859  0.1815 -0.2060  0.1261
  649ERGO    R1 8892   4.179  13.569   9.616  0.0421  0.0879  0.0483
  649ERGO    R2 8893   4.248  13.340   9.478  0.3441  0.2390 -0.0273
  649ERGO    R3 8894   4.123  13.465   9.272  0.0357  0.0723  0.0479
  649ERGO    R4 8895   4.283  13.255   9.145  0.5553  0.4677 -0.0682
  649ERGO    R5 8896   4.285  13.467   9.096  0.0611  0.5351  0.0426
  649ERGO    C1 8897   4.186  13.322   8.757  0.3887  0.4443 -0.0215
  649ERGO    C2 8898   3.942  13.307   8.452  0.0565 -0.1248 -0.1256
  650ERGO   ROH 8899   0.637   2.064   9.757 -0.2600  0.1779 -0.1903
  650ERGO    R1 8900   0.657   1.991   9.485 -0.1285  0.0389 -0.1454
  650ERGO    R2 8901   0.719   2.173   9.286 -0.2859 -0.0095 -0.2399
  650ERGO    R3 8902   0.916   1.995   9.228 -0.0810  0.1674 -0.0977
  650ERGO    R4 8903   0.907   2.174   8.996 -0.3034 -0.0198 -0.2498
  650ERGO    R5 8904   0.894   1.956   8.993 -0.0529 -0.0468 -0.0703
  650ERGO    C1 8905   1.201   2.007   8.773 -0.1213  0.1402 -0.1220
  650ERGO    C2 8906   1.486   1.972   8.655 -0.4636  0.4932 -0.1241
  651ERGO   ROH 8907  10.296  15.742   5.817 -0.1160  0.2288  0.1007
  651ERGO    R1 8908  10.344  15.612   6.063 -0.0011  0.1926  0.0605
  651ERGO    R2 8909  10.446  15.743   6.284 -0.0830  0.2067  0.0934
  651ERGO    R3 8910  10.225  15.642   6.406 -0.0010  0.0069  0.0776
  651ERGO    R4 8911  10.390  15.747   6.625 -0.0682  0.0671  0.0970
  651ERGO    R5 8912  10.308  15.545   6.609  0.0814  0.0114  0.0447
  651ERGO    C1 8913  10.150  15.653   6.938  0.0172 -0.2017  0.0843
  651ERGO    C2 8914  10.070  15.838   7.152  0.0359 -0.1740 -0.0129
  652ERGO   ROH 8915   3.754   4.901   9.374  0.0609 -0.1334  0.0023
  652ERGO    R1 8916   3.641   4.868   9.116  0.0619 -0.1281  0.0013
  652ERGO    R2 8917   3.725   5.015   8.898 -0.0832  0.0299  0.0487
  652ERGO    R3 8918   3.760   4.770   8.786  0.1139  0.1000 -0.0492
  652ERGO    R4 8919   3.859   4.959   8.584  0.0436  0.2486  0.0609
  652ERGO    R5 8920   3.709   4.803   8.554  0.1584  0.1617 -0.0484
  652ERGO    C1 8921   3.969   4.695   8.297  0.3026  0.4419 -0.0239
  652ERGO    C2 8922   4.138   4.716   7.953  0.1504 -0.0972 -0.0515
  653ERGO   ROH 8923   5.290   3.415   6.324 -0.0835 -0.1422 -0.0520
  653ERGO    R1 8924   5.285   3.446   6.605  0.0041 -0.2305 -0.0395
  653ERGO    R2 8925   5.074   3.566   6.737  0.2315  0.1173  0.0234
  653ERGO    R3 8926   5.074   3.335   6.880 -0.1813  0.0590 -0.0602
  653ERGO    R4 8927   4.921   3.524   7.044  0.2714  0.3251  0.0726
  653ERGO    R5 8928   5.093   3.406   7.108  0.0640 -0.0553 -0.0419
  653ERGO    C1 8929   4.831   3.283   7.357 -0.0929  0.3914  0.0229
  653ERGO    C2 8930   4.486   3.225   7.578 -0.1641 -0.1519  0.0662
  654ERGO   ROH 8931  15.957   7.180   9.845 -0.1675  0.1006  0.0521
  654ERGO    R1 8932  16.062   7.005   9.649 -0.0130  0.1192  0.1165
  654ERGO    R2 8933  15.916   6.925   9.428  0.0382 -0.1310  0.1712
  654ERGO    R3 8934  16.131   7.020   9.292 -0.0768  0.0315  0.1000
  654ERGO    R4 8935  15.981   6.861   9.095  0.1599 -0.3877  0.2414
  654ERGO    R5 8936  16.193   6.840   9.146  0.1901 -0.0405  0.2920
  654ERGO    C1 8937  16.221   6.914   8.773  0.1228 -0.3846  0.2155
  654ERGO    C2 8938  15.937   6.854   8.549  0.1083  0.1418 -0.0529
  655ERGO   ROH 8939   2.791   0.563   6.875  0.0954 -0.0984 -0.1210
  655ERGO    R1 8940   2.979   0.492   7.074 -0.1268  0.0183  0.1373
  655ERGO    R2 8941   2.903   0.405   7.325 -0.4287 -0.3147 -0.0553
  655ERGO    R3 8942   3.062   0.192   7.264  0.0017 -0.0250  0.0122
  655ERGO    R4 8943   3.006   0.163   7.551 -0.4017 -0.3426 -0.0977
  655ERGO    R5 8944   3.202   0.166   7.456 -0.2524  0.0390  0.2081
  655ERGO    C1 8945   3.214  -0.176   7.624  0.0181 -0.0867 -0.0590
  655ERGO    C2 8946   3.224  -0.414   7.911  0.0195  0.1827  0.2772
  656ERGO   ROH 8947  18.299   0.573   6.391 -0.1544 -0.1236 -0.0138
  656ERGO    R1 8948  18.275   0.753   6.608 -0.3098 -0.0814 -0.0648
  656ERGO    R2 8949  18.061   0.747   6.784 -0.2017 -0.3590  0.0612
  656ERGO    R3 8950  18.257   0.728   6.971 -0.0560  0.0166 -0.0438
  656ERGO    R4 8951  18.034   0.858   7.110 -0.1742 -0.2605  0.0308
  656ERGO    R5 8952  18.239   0.931   7.097 -0.2872  0.0466 -0.1212
  656ERGO    C1 8953  18.202   0.905   7.475 -0.0214  0.1494 -0.0855
  656ERGO    C2 8954  18.143   1.040   7.768 -0.1591 -0.0729 -0.2351
  657ERGO   ROH 8955   0.062   8.266   9.502 -0.0464  0.2116 -0.0227
  657ERGO    R1 8956   0.031   8.365   9.239  0.0660  0.2127 -0.0360
  657ERGO    R2 8957   0.223   8.522   9.115  0.1912  0.0793 -0.0134
  657ERGO    R3 8958   0.206   8.331   8.921  0.1025  0.0751 -0.0020
  657ERGO    R4 8959   0.301   8.571   8.782  0.2189  0.0237 -0.0150
  657ERGO    R5 8960   0.129   8.449   8.728  0.1607  0.1020 -0.0096
  657ERGO    C1 8961   0.332   8.421   8.407  0.1518 -0.0126 -0.0051
  657ERGO    C2 8962   0.535   8.313   8.169 -0.2503  0.1373  0.2861
  658ERGO   ROH 8963  12.316   5.939   5.936 -0.0020 -0.2277 -0.0636
  658ERGO    R1 8964  12.240   5.938   6.209  0.0746 -0.0970 -0.0433
  658ERGO    R2 8965  12.028   5.788   6.305  0.0333  0.0451  0.0634
  658ERGO    R3 8966  12.216   5.692   6.476  0.0262  0.0085  0.0543
  658ERGO    R4 8967  11.962   5.653   6.616 -0.0145 -0.1711 -0.0371
  658ERGO    R5 8968  12.137   5.756   6.693 -0.0652 -0.1475  0.0764
  658ERGO    C1 8969  12.100   5.484   6.957 -0.0489 -0.3314 -0.1041
  658ERGO    C2 8970  12.284   5.318   7.193  0.1056 -0.1619  0.0108
  659ERGO   ROH 8971  10.657   1.520   9.609 -0.0332  0.0949 -0.0045
  659ERGO    R1 8972  10.573   1.397   9.369 -0.2472 -0.0696  0.1515
  659ERGO    R2 8973  10.309   1.395   9.287 -0.2445  0.3651  0.1181
  659ERGO    R3 8974  10.413   1.502   9.060  0.0228 -0.1588 -0.0229
  659ERGO    R4 8975  10.126   1.477   9.006 -0.0987  0.6519  0.1019
  659ERGO    R5 8976  10.288   1.399   8.883 -0.3542  0.0332  0.1177
  659ERGO    C1 8977  10.116   1.625   8.629  0.2373  0.3271 -0.0398
  659ERGO    C2 8978  10.080   1.755   8.311  0.0903 -0.0806 -0.1398
  660ERGO   ROH 8979  14.318  12.920   6.103  0.0260  0.2242  0.0804
  660ERGO    R1 8980  14.221  12.775   6.326 -0.0402  0.0832 -0.0376
  660ERGO    R2 8981  14.388  12.646   6.504 -0.0902 -0.0012 -0.0493
  660ERGO    R3 8982  14.254  12.794   6.688 -0.1749 -0.1214 -0.0133
  660ERGO    R4 8983  14.361  12.568   6.839  0.1081 -0.0017 -0.0325
  660ERGO    R5 8984  14.153  12.633   6.833  0.0393 -0.2116  0.0367
  660ERGO    C1 8985  14.220  12.662   7.207  0.1441 -0.1147  0.0109
  660ERGO    C2 8986  14.192  12.815   7.562 -0.0689 -0.0333 -0.1113
  661ERGO   ROH 8987  14.564   8.277   9.324 -0.0575 -0.0171  0.0899
  661ERGO    R1 8988  14.687   8.219   9.075 -0.0117 -0.1001  0.1309
  661ERGO    R2 8989  14.565   8.065   8.881 -0.0018 -0.1187  0.1343
  661ERGO    R3 8990  14.615   8.281   8.724  0.0819 -0.1621  0.1018
  661ERGO    R4 8991  14.673   8.049   8.553 -0.0629 -0.2025  0.1182
  661ERGO    R5 8992  14.807   8.217   8.594  0.0262 -0.2682  0.0765
  661ERGO    C1 8993  14.783   8.243   8.215 -0.0201 -0.2921  0.0782
  661ERGO    C2 8994  14.695   8.271   7.861 -0.1786  0.4350  0.0019
  662ERGO   ROH 8995  16.136  16.424   9.387  0.1145 -0.1326 -0.0275
  662ERGO    R1 8996  16.130  16.510   9.118  0.0480 -0.1352 -0.0268
  662ERGO    R2 8997  16.351  16.614   8.989 -0.0000 -0.0814 -0.0640
  662ERGO    R3 8998  16.296  16.420   8.807  0.0177 -0.0952 -0.0553
  662ERGO    R4 8999  16.537  16.551   8.705  0.1609 -0.2465  0.0747
  662ERGO    R5 9000  16.351  16.518   8.596  0.2136 -0.1718 -0.0433
  662ERGO    C1 9001  16.594  16.332   8.368  0.2712 -0.3553  0.1637
  662ERGO    C2 9002  16.825  16.318   8.069 -0.2288 -0.0244  0.0547
  663ERGO   ROH 9003   1.877   9.452   6.099 -0.0857  0.2085  0.0593
  663ERGO    R1 9004   1.815   9.374   6.364 -0.0841  0.1245  0.0357
  663ERGO    R2 9005   1.559   9.304   6.443 -0.1072  0.2004  0.0415
  663ERGO    R3 9006   1.682   9.077   6.527 -0.1899  0.1123 -0.0735
  663ERGO    R4 9007   1.533   9.172   6.761 -0.0932  0.0794 -0.0074
  663ERGO    R5 9008   1.746   9.124   6.753 -0.1203 -0.0108 -0.0701
  663ERGO    C1 9009   1.634   8.882   7.026 -0.1627 -0.0738 -0.1439
  663ERGO    C2 9010   1.436   8.853   7.198 -0.0433 -0.0703 -0.1354
  664ERGO   ROH 9011  14.793   5.433   9.460 -0.1896 -0.0731  0.0363
  664ERGO    R1 9012  14.630   5.446   9.229 -0.0805  0.0330 -0.0340
  664ERGO    R2 9013  14.388   5.580   9.225 -0.0462  0.0791 -0.1020
  664ERGO    R3 9014  14.499   5.708   9.012  0.0685  0.1263 -0.0163
  664ERGO    R4 9015  14.234   5.626   8.919  0.1482  0.0354 -0.2090
  664ERGO    R5 9016  14.425   5.583   8.822  0.2412  0.1005 -0.0768
  664ERGO    C1 9017  14.249   5.772   8.541  0.3692  0.0542 -0.1909
  664ERGO    C2 9018  14.118   6.014   8.383  0.1526 -0.0977  0.0045
  665ERGO   ROH 9019   6.844  18.463   6.616 -0.2256 -0.0161  0.0198
  665ERGO    R1 9020   6.753  18.308   6.835 -0.1226 -0.0776  0.0187
  665ERGO    R2 9021   6.926  18.183   7.011 -0.0400  0.0397  0.0170
  665ERGO    R3 9022   6.783  18.319   7.197 -0.1335 -0.0589  0.0198
  665ERGO    R4 9023   6.938  18.124   7.351  0.2346  0.2372  0.0455
  665ERGO    R5 9024   6.722  18.153   7.359  0.1896 -0.0643  0.1455
  665ERGO    C1 9025   6.811  18.217   7.724  0.3065  0.2599  0.0648
  665ERGO    C2 9026   6.640  18.230   8.108 -0.2410  0.0133  0.2074
  666ERGO   ROH 9027   9.870   2.080   6.216 -0.1508  0.1522 -0.2512
  666ERGO    R1 9028   9.749   2.168   6.456  0.0218 -0.0242 -0.0953
  666ERGO    R2 9029   9.866   2.132   6.703  0.2480 -0.1259 -0.2077
  666ERGO    R3 9030   9.832   2.401   6.724  0.1739 -0.1481 -0.0361
  666ERGO    R4 9031   9.781   2.299   6.994  0.1882 -0.3223 -0.1113
  666ERGO    R5 9032   9.649   2.426   6.876  0.1645 -0.2868 -0.0321
  666ERGO    C1 9033   9.700   2.648   7.182  0.0837 -0.4574  0.1060
  666ERGO    C2 9034   9.710   2.802   7.501  0.1981  0.0991 -0.0444
  667ERGO   ROH 9035  17.420   5.535   5.982  0.0037 -0.1200 -0.0836
  667ERGO    R1 9036  17.332   5.575   6.248 -0.0154 -0.0559 -0.0994
  667ERGO    R2 9037  17.071   5.531   6.327 -0.0586  0.1161 -0.1421
  667ERGO    R3 9038  17.188   5.370   6.513 -0.1933  0.0439 -0.1183
  667ERGO    R4 9039  16.970   5.503   6.657 -0.1272  0.1926 -0.1562
  667ERGO    R5 9040  17.179   5.497   6.715 -0.1399  0.0555 -0.1239
  667ERGO    C1 9041  17.021   5.335   7.022 -0.2938  0.1694 -0.1420
  667ERGO    C2 9042  16.831   5.312   7.257  0.0090  0.0756  0.2307
  668ERGO   ROH 9043   0.175   9.223   6.358 -0.1879  0.0486 -0.1955
  668ERGO    R1 9044   0.030   9.327   6.578 -0.1045  0.0482 -0.1409
  668ERGO    R2 9045  -0.189   9.198   6.686  0.0181 -0.0157  0.0239
  668ERGO    R3 9046  -0.047   9.221   6.917  0.1394  0.1143 -0.0609
  668ERGO    R4 9047  -0.328   9.233   7.000  0.1651 -0.1857  0.1104
  668ERGO    R5 9048  -0.172   9.378   7.048  0.0488 -0.0216  0.0249
  668ERGO    C1 9049  -0.276   9.276   7.400  0.3647 -0.1627  0.0813
  668ERGO    C2 9050  -0.517   9.176   7.649  0.2216 -0.1985  0.4210
  669ERGO   ROH 9051   5.168   9.496   6.281 -0.4198 -0.0275  0.0112
  669ERGO    R1 9052   5.258   9.343   6.501 -0.2354  0.1265  0.0443
  669ERGO    R2 9053   5.480   9.179   6.487 -0.3536 -0.0139 -0.0859
  669ERGO    R3 9054   5.559   9.323   6.704  0.0125  0.1379 -0.3095
  669ERGO    R4 9055   5.690   9.062   6.735 -0.4194 -0.0756 -0.0579
  669ERGO    R5 9056   5.565   9.162   6.882 -0.1759  0.3407 -0.1065
  669ERGO    C1 9057   5.887   9.128   7.083 -0.1140  0.0309 -0.2515
  669ERGO    C2 9058   6.256   9.026   6.916 -0.3064 -0.3292 -0.2321
  670ERGO   ROH 9059  17.086   3.201   9.393  0.3071  0.0864 -0.0906
  670ERGO    R1 9060  17.159   3.255   9.125  0.2611 -0.0061 -0.1235
  670ERGO    R2 9061  17.205   3.055   8.939  0.1492 -0.0726 -0.0888
  670ERGO    R3 9062  17.019   3.191   8.795  0.1572 -0.0450 -0.0707
  670ERGO    R4 9063  17.155   3.020   8.599  0.0114 -0.1638 -0.0591
  670ERGO    R5 9064  17.127   3.236   8.587  0.0981 -0.1611 -0.1229
  670ERGO    C1 9065  16.951   3.128   8.266 -0.0612 -0.1910 -0.0248
  670ERGO    C2 9066  17.004   3.134   8.000  0.1560  0.0353  0.1864
  671ERGO   ROH 9067   8.906   1.713   9.862  0.0318  0.0847 -0.0463
  671ERGO    R1 9068   9.012   1.776   9.607  0.0018  0.1206 -0.0504
  671ERGO    R2 9069   9.043   1.587   9.408  0.0830  0.1248 -0.0436
  671ERGO    R3 9070   8.896   1.765   9.262  0.0029  0.0545 -0.0485
  671ERGO    R4 9071   9.027   1.595   9.062  0.0552  0.0875 -0.0429
  671ERGO    R5 9072   9.033   1.813   9.072 -0.0295  0.0909 -0.0626
  671ERGO    C1 9073   8.881   1.766   8.725 -0.0362 -0.0001 -0.0470
  671ERGO    C2 9074   8.728   1.772   8.358  0.0030 -0.0581  0.1706
  672ERGO   ROH 9075   7.836   2.419  10.072  0.2034  0.2459  0.1709
  672ERGO    R1 9076   7.751   2.422   9.802  0.0286  0.0865  0.2219
  672ERGO    R2 9077   7.586   2.618   9.699  0.0130  0.0623  0.1969
  672ERGO    R3 9078   7.785   2.645   9.516 -0.0962 -0.1125  0.0497
  672ERGO    R4 9079   7.542   2.607   9.357 -0.2247 -0.0242  0.2285
  672ERGO    R5 9080   7.726   2.492   9.341 -0.3028 -0.1346  0.1383
  672ERGO    C1 9081   7.703   2.626   8.985 -0.4656 -0.2387  0.1086
  672ERGO    C2 9082   7.439   2.618   8.749  0.1555  0.2040  0.1328
  673ERGO   ROH 9083   0.842  15.832   6.347  0.2242 -0.0673  0.0451
  673ERGO    R1 9084   0.716  15.966   6.562  0.2225 -0.0354  0.0238
  673ERGO    R2 9085   0.471  15.887   6.664  0.1420  0.0816 -0.0773
  673ERGO    R3 9086   0.607  15.883   6.899  0.0564 -0.0356 -0.0288
  673ERGO    R4 9087   0.324  15.892   6.977  0.0343  0.1446 -0.1277
  673ERGO    R5 9088   0.482  16.027   7.043  0.1021  0.0326 -0.0572
  673ERGO    C1 9089   0.367  15.890   7.380 -0.1087  0.0714 -0.1115
  673ERGO    C2 9090   0.351  16.057   7.716  0.0643 -0.2204  0.1963
  674ERGO   ROH 9091   6.781  17.793  10.086  0.1153 -0.1105 -0.3669
  674ERGO    R1 9092   6.713  18.028   9.943 -0.0130 -0.0082 -0.1441
  674ERGO    R2 9093   6.680  18.030   9.669  0.0691  0.2514 -0.1555
  674ERGO    R3 9094   6.439  18.139   9.732 -0.0311  0.0083 -0.1112
  674ERGO    R4 9095   6.548  18.317   9.528 -0.1412  0.2552  0.0423
  674ERGO    R5 9096   6.476  18.375   9.725 -0.2223  0.0465  0.0750
  674ERGO    C1 9097   6.246  18.586   9.505 -0.3577  0.0291  0.1991
  674ERGO    C2 9098   6.164  18.763   9.360 -0.0198 -0.0393 -0.0319
  675PSPI    C1 9099  18.579  12.356   5.633  0.2587 -0.4905 -0.1519
  675PSPI    C2 9100  18.301  12.264   5.360 -0.1074  0.0911  0.0074
  675PSPI    C3 9101  18.525  12.592   5.315  0.1487 -0.0564  0.1788
  675PSPI   PO4 9102  18.469  12.274   5.896 -0.1929  0.2700  0.1616
  675PSPI   GL1 9103  18.366  12.081   6.282 -0.0033  0.3025 -0.3147
  675PSPI   GL2 9104  18.414  11.714   6.175 -0.2314 -0.2471  0.0678
  675PSPI   C1A 9105  18.319  12.376   6.603  0.2451 -0.1140  0.3328
  675PSPI   C2A 9106  18.419  12.439   7.064 -0.2311 -0.0301 -0.2549
  675PSPI   C3A 9107  18.294  12.398   7.522  0.0009  0.2866 -0.1004
  675PSPI   C4A 9108  18.221  12.227   7.993 -0.1094  0.0529 -0.1501
  675PSPI   C1B 9109  18.294  11.769   6.610  0.0141  0.0936  0.0534
  675PSPI   C2B 9110  18.097  11.568   6.884 -0.1605  0.1682  0.1280
  675PSPI   C3B 9111  18.161  11.242   7.053 -0.0835  0.2244 -0.1478
  675PSPI   C4B 9112  18.100  11.022   7.513  0.1434  0.1511  0.0932
  676PSPI    C1 9113  16.503  17.741   5.135  0.0712  0.0805 -0.0921
  676PSPI    C2 9114  16.882  17.820   5.037  0.0650  0.0813 -0.1149
  676PSPI    C3 9115  16.684  17.528   4.849  0.0738  0.0400 -0.0603
  676PSPI   PO4 9116  16.544  17.863   5.547 -0.1031 -0.1209  0.1573
  676PSPI   GL1 9117  16.295  17.979   5.989  0.2505  0.3502  0.2087
  676PSPI   GL2 9118  16.574  17.760   6.025  0.4005 -0.2118 -0.0639
  676PSPI   C1A 9119  16.337  18.157   6.252 -0.1072 -0.0428  0.0807
  676PSPI   C2A 9120  16.479  18.395   6.624  0.0558 -0.2994 -0.2155
  676PSPI   C3A 9121  16.368  18.561   6.955  0.1923 -0.0579  0.2013
  676PSPI   C4A 9122  16.229  18.463   7.369  0.1584  0.3181 -0.0257
  676PSPI   C1B 9123  16.539  17.526   6.308 -0.3113  0.1068  0.0698
  676PSPI   C2B 9124  16.769  17.452   6.711  0.2887 -0.0190  0.0600
  676PSPI   C3B 9125  16.650  17.441   7.244  0.0121 -0.0134  0.5028
  676PSPI   C4B 9126  16.615  17.307   7.577  0.1171  0.0194  0.2576
  677PSPI    C1 9127  10.357   2.113   5.764  0.0037 -0.0261 -0.0095
  677PSPI    C2 9128  10.102   2.006   5.475 -0.0553 -0.3223  0.1485
  677PSPI    C3 9129  10.492   2.040   5.394 -0.1058 -0.1422 -0.0272
  677PSPI   PO4 9130  10.291   2.094   5.898  0.2905 -0.0321  0.0257
  677PSPI   GL1 9131  10.508   1.990   6.233 -0.1963 -0.0775 -0.0334
  677PSPI   GL2 9132  10.332   2.284   6.397  0.0121 -0.0368 -0.1516
  677PSPI   C1A 9133  10.829   2.229   6.515 -0.0385 -0.0949 -0.1016
  677PSPI   C2A 9134  10.964   2.587   6.654 -0.4399  0.2429  0.2115
  677PSPI   C3A 9135  11.061   2.954   6.830  0.1378  0.0191  0.2849
  677PSPI   C4A 9136  11.472   3.203   7.021 -0.2864 -0.3737  0.1479
  677PSPI   C1B 9137  10.312   2.341   6.804 -0.0958  0.2085  0.2256
  677PSPI   C2B 9138  10.248   2.559   7.126 -0.4140 -0.0918 -0.0594
  677PSPI   C3B 9139  10.524   2.719   7.603  0.1064 -0.1733 -0.2349
  677PSPI   C4B 9140  10.736   2.912   7.875 -0.0902  0.0739 -0.0081
  678PSPI    C1 9141  16.803  14.455   5.637  0.0644  0.2557 -0.0292
  678PSPI    C2 9142  16.785  14.682   5.309  0.2730  0.1601 -0.1085
  678PSPI    C3 9143  16.536  14.752   5.614 -0.0736  0.1106 -0.3735
  678PSPI   PO4 9144  17.096  14.394   5.757  0.1948  0.0067 -0.1222
  678PSPI   GL1 9145  17.070  14.292   6.252 -0.0353 -0.0040 -0.1342
  678PSPI   GL2 9146  17.169  14.602   6.344 -0.0981  0.0583 -0.2625
  678PSPI   C1A 9147  16.896  14.073   6.576  0.3550  0.1454 -0.0549
  678PSPI   C2A 9148  16.737  13.980   6.943  0.2778 -0.0503  0.0613
  678PSPI   C3A 9149  16.722  13.898   7.313 -0.0698 -0.0858 -0.0800
  678PSPI   C4A 9150  16.407  13.676   7.585  0.3278  0.0914 -0.1848
  678PSPI   C1B 9151  16.999  14.695   6.679 -0.0224  0.1247  0.2222
  678PSPI   C2B 9152  17.084  14.972   6.898 -0.1126  0.0380  0.0144
  678PSPI   C3B 9153  17.005  15.203   7.193  0.5994 -0.0964  0.2471
  678PSPI   C4B 9154  16.831  15.261   7.532  0.3613  0.0689 -0.0239
  679PSPI    C1 9155  10.033  17.770   5.391  0.0481  0.0682 -0.2737
  679PSPI    C2 9156  10.428  17.824   5.363  0.0462  0.1853 -0.0883
  679PSPI    C3 9157  10.240  17.589   5.100  0.3006 -0.2009  0.0649
  679PSPI   PO4 9158   9.956  18.034   5.498 -0.1069 -0.0080  0.2150
  679PSPI   GL1 9159  10.079  18.118   5.973  0.0302 -0.4403 -0.0197
  679PSPI   GL2 9160  10.195  18.450   6.196 -0.0998 -0.2277  0.1253
  679PSPI   C1A 9161  10.118  18.021   6.387 -0.2286  0.1551 -0.0998
  679PSPI   C2A 9162  10.159  18.036   6.807  0.0058  0.0704 -0.1056
  679PSPI   C3A 9163   9.778  18.120   7.116  0.1505 -0.1248  0.0699
  679PSPI   C4A 9164   9.435  18.059   7.520  0.2716 -0.1161  0.0693
  679PSPI   C1B 9165  10.448  18.432   6.651 -0.6367  0.1795  0.0824
  679PSPI   C2B 9166  10.696  18.337   6.907  0.2480 -0.0054 -0.4932
  679PSPI   C3B 9167  10.958  18.019   7.107 -0.1908 -0.0851 -0.0258
  679PSPI   C4B 9168  11.217  17.690   7.283 -0.0381 -0.0591 -0.0371
  680PSPI    C1 9169  12.752  11.189   5.409 -0.2501  0.2049  0.1571
  680PSPI    C2 9170  12.546  10.906   5.216 -0.1564  0.0390  0.2971
  680PSPI    C3 9171  12.376  11.260   5.293 -0.2763  0.0201  0.1257
  680PSPI   PO4 9172  12.830  11.033   5.631 -0.2861 -0.2176 -0.0066
  680PSPI   GL1 9173  12.678  10.959   6.070  0.0734  0.1018  0.1376
  680PSPI   GL2 9174  12.459  10.736   6.154  0.5325  0.0259  0.3140
  680PSPI   C1A 9175  12.984  10.976   6.321 -0.1747 -0.0388  0.0336
  680PSPI   C2A 9176  13.424  10.993   6.469  0.0228  0.0186  0.0619
  680PSPI   C3A 9177  13.840  10.669   6.410 -0.1204  0.0582  0.1512
  680PSPI   C4A 9178  13.859  10.876   6.809 -0.0150  0.1351  0.3047
  680PSPI   C1B 9179  12.444  10.398   6.135 -0.0997 -0.1463  0.1556
  680PSPI   C2B 9180  12.466  10.023   6.305 -0.2653 -0.3127  0.0728
  680PSPI   C3B 9181  12.253   9.986   6.742 -0.0058  0.0660 -0.1862
  680PSPI   C4B 9182  12.186  10.062   7.195 -0.2247  0.2385 -0.0175
  681PSPI    C1 9183  14.641   0.768   5.546 -0.1279 -0.0278  0.1950
  681PSPI    C2 9184  14.326   0.681   5.315 -0.0200  0.0342  0.0224
  681PSPI    C3 9185  14.694   0.691   5.157  0.0681 -0.0247  0.2197
  681PSPI   PO4 9186  14.490   0.935   5.723 -0.2564  0.6751 -0.1608
  681PSPI   GL1 9187  14.830   0.945   6.100  0.1334 -0.0236 -0.0234
  681PSPI   GL2 9188  15.198   0.964   6.169  0.4032 -0.1910 -0.0968
  681PSPI   C1A 9189  14.937   0.993   6.577  0.1000 -0.1870  0.0498
  681PSPI   C2A 9190  14.931   1.106   6.950  0.0414  0.0560  0.0490
  681PSPI   C3A 9191  14.859   1.413   7.233 -0.0311  0.2152 -0.0615
  681PSPI   C4A 9192  14.982   1.431   7.610 -0.0253 -0.1795 -0.0168
  681PSPI   C1B 9193  15.434   0.866   6.588  0.0612  0.0442 -0.3285
  681PSPI   C2B 9194  15.503   1.030   6.888 -0.1892  0.3080  0.0064
  681PSPI   C3B 9195  15.705   1.437   6.998  0.3296 -0.2275  0.1641
  681PSPI   C4B 9196  15.869   1.854   6.916 -0.0982  0.1971  0.1265
  682PSPI    C1 9197  17.576  15.733   5.455  0.0155 -0.2110  0.0404
  682PSPI    C2 9198  17.619  15.382   5.268 -0.3618 -0.2301 -0.0180
  682PSPI    C3 9199  17.287  15.598   5.213 -0.1421  0.1284  0.0347
  682PSPI   PO4 9200  17.705  15.628   5.717 -0.1557 -0.0790 -0.0483
  682PSPI   GL1 9201  17.628  15.839   6.148  0.0833 -0.2305 -0.2488
  682PSPI   GL2 9202  17.413  15.556   6.118 -0.0480 -0.1211  0.2402
  682PSPI   C1A 9203  17.441  16.080   6.531 -0.1851 -0.1982 -0.0270
  682PSPI   C2A 9204  17.344  16.238   6.876 -0.2761  0.1636 -0.0439
  682PSPI   C3A 9205  17.635  16.251   7.271  0.1423  0.1208  0.1147
  682PSPI   C4A 9206  17.694  16.474   7.700  0.0573 -0.2646  0.2043
  682PSPI   C1B 9207  17.663  15.401   6.486  0.0233  0.2105 -0.0859
  682PSPI   C2B 9208  17.591  15.242   6.909 -0.1523 -0.0031 -0.1107
  682PSPI   C3B 9209  17.416  15.327   7.416 -0.1393  0.1031 -0.0936
  682PSPI   C4B 9210  17.268  15.366   7.825 -0.1812  0.0906 -0.1514
  683PSPI    C1 9211   1.664  15.293   5.610 -0.0999  0.0005  0.2871
  683PSPI    C2 9212   1.841  15.631   5.492 -0.0976 -0.0195  0.2328
  683PSPI    C3 9213   1.525  15.490   5.291  0.0413 -0.1703  0.1178
  683PSPI   PO4 9214   1.458  15.329   5.837 -0.1901 -0.0148 -0.2035
  683PSPI   GL1 9215   1.535  15.384   6.216 -0.2199 -0.1103 -0.0497
  683PSPI   GL2 9216   1.308  15.662   6.186  0.1730  0.4120  0.3370
  683PSPI   C1A 9217   1.938  15.516   6.509  0.0450 -0.0493 -0.1464
  683PSPI   C2A 9218   2.273  15.569   6.690  0.2170  0.0218 -0.0344
  683PSPI   C3A 9219   2.260  15.592   7.085  0.2314 -0.0512 -0.1750
  683PSPI   C4A 9220   2.199  15.515   7.556 -0.1649  0.3156  0.2931
  683PSPI   C1B 9221   1.205  15.223   6.483  0.0430  0.1795  0.0811
  683PSPI   C2B 9222   1.048  15.013   6.863 -0.3641 -0.1759 -0.0034
  683PSPI   C3B 9223   0.836  14.605   6.878  0.0937  0.1799 -0.0958
  683PSPI   C4B 9224   0.942  14.277   7.212  0.2310  0.5344  0.3571
  684PSPI    C1 9225   1.650  18.318   5.961 -0.1713 -0.1546  0.1170
  684PSPI    C2 9226   1.950  18.292   5.697 -0.1742  0.2410  0.0675
  684PSPI    C3 9227   1.571  18.291   5.569 -0.2007 -0.2392  0.1285
  684PSPI   PO4 9228   1.767  18.542   6.222  0.3172  0.0709  0.0046
  684PSPI   GL1 9229   1.804  18.728   6.641  0.1944 -0.1783 -0.0892
  684PSPI   GL2 9230   1.572  18.923   6.588  0.4987 -0.1451  0.1985
  684PSPI   C1A 9231   1.707  18.653   7.039 -0.5094  0.0481 -0.0096
  684PSPI   C2A 9232   1.323  18.898   7.321  0.1697  0.2145 -0.1470
  684PSPI   C3A 9233   1.227  18.960   7.799  0.4459  0.2703 -0.0254
  684PSPI   C4A 9234   1.164  19.199   8.136  0.1185 -0.3506  0.2359
  684PSPI   C1B 9235   1.357  19.224   6.886 -0.2203  0.0241 -0.2341
  684PSPI   C2B 9236   1.367  19.425   7.258 -0.0131  0.2380  0.1092
  684PSPI   C3B 9237   1.258  19.379   7.607  0.1705  0.0056 -0.0125
  684PSPI   C4B 9238   0.859  19.278   7.569 -0.0921  0.0599  0.1276
  685PSPI    C1 9239  14.571  14.136   5.557  0.0965  0.2250  0.1364
  685PSPI    C2 9240  14.596  14.311   5.198  0.0845  0.0889  0.0685
  685PSPI    C3 9241  14.739  13.941   5.250 -0.2052 -0.0180  0.1207
  685PSPI   PO4 9242  14.612  14.300   5.716  0.1346  0.1084 -0.2493
  685PSPI   GL1 9243  14.833  14.434   6.081  0.0752 -0.0588  0.0750
  685PSPI   GL2 9244  14.588  14.720   5.970  0.2294 -0.0054 -0.2990
  685PSPI   C1A 9245  14.630  14.630   6.463 -0.2485 -0.0056 -0.0056
  685PSPI   C2A 9246  14.424  14.900   6.776  0.1679 -0.0844  0.1924
  685PSPI   C3A 9247  14.023  14.740   7.037 -0.0847 -0.0097  0.0357
  685PSPI   C4A 9248  13.898  14.526   7.522  0.0729  0.5156 -0.0213
  685PSPI   C1B 9249  14.250  14.924   6.310 -0.1726  0.2863  0.1212
  685PSPI   C2B 9250  14.036  15.126   6.689 -0.0348  0.1696  0.0376
  685PSPI   C3B 9251  13.767  15.568   6.783  0.1997 -0.0391 -0.2800
  685PSPI   C4B 9252  13.753  15.861   7.108  0.1353  0.0419 -0.2969
  686PSPI    C1 9253  17.405  12.153   5.821 -0.2040 -0.1423 -0.2945
  686PSPI    C2 9254  17.451  11.800   6.003 -0.0897 -0.0596 -0.1608
  686PSPI    C3 9255  17.561  11.844   5.620  0.1832 -0.0878 -0.0882
  686PSPI   PO4 9256  17.103  12.197   5.944 -0.0579 -0.1394  0.0152
  686PSPI   GL1 9257  16.887  12.137   6.314 -0.1707  0.0951  0.1402
  686PSPI   GL2 9258  17.233  11.923   6.394  0.0926 -0.1782  0.0548
  686PSPI   C1A 9259  16.806  12.100   6.746 -0.3693  0.0413  0.0107
  686PSPI   C2A 9260  16.873  12.032   7.151 -0.1675  0.1794 -0.2054
  686PSPI   C3A 9261  16.934  11.659   7.426  0.1453  0.1764  0.1214
  686PSPI   C4A 9262  17.171  11.321   7.465 -0.1319 -0.1469 -0.5524
  686PSPI   C1B 9263  17.310  12.142   6.754 -0.1520 -0.0193  0.0467
  686PSPI   C2B 9264  17.336  12.176   7.022  0.1580  0.0843 -0.1239
  686PSPI   C3B 9265  17.085  12.501   7.354  0.4148  0.0497 -0.1949
  686PSPI   C4B 9266  17.192  12.905   7.534  0.2594  0.2351  0.2205
  687PSPI    C1 9267  11.132  17.912   5.396 -0.0472  0.0518  0.1441
  687PSPI    C2 9268  11.302  17.717   5.091  0.3108  0.2051  0.2401
  687PSPI    C3 9269  11.266  17.539   5.447  0.0719  0.0972  0.1647
  687PSPI   PO4 9270  11.263  18.149   5.417  0.0360 -0.0020 -0.0328
  687PSPI   GL1 9271  11.532  18.193   5.771  0.2165  0.0777  0.0530
  687PSPI   GL2 9272  11.512  17.834   5.747  0.0102 -0.0882 -0.0663
  687PSPI   C1A 9273  11.484  18.112   6.237 -0.2516 -0.0483 -0.0364
  687PSPI   C2A 9274  11.542  18.019   6.595 -0.2371 -0.2760  0.1014
  687PSPI   C3A 9275  11.523  17.913   7.015 -0.0666  0.0119 -0.3677
  687PSPI   C4A 9276  11.398  18.113   7.434  0.3455 -0.1077 -0.1253
  687PSPI   C1B 9277  11.220  17.710   6.174 -0.1895  0.0910 -0.3829
  687PSPI   C2B 9278  11.140  17.571   6.646  0.0560 -0.2438  0.1226
  687PSPI   C3B 9279  10.862  17.518   6.925 -0.1252  0.2358 -0.2067
  687PSPI   C4B 9280  10.580  17.805   6.887 -0.0591  0.1020  0.0218
  688PSPI    C1 9281  11.820  10.062   5.047  0.1986  0.2125  0.0534
  688PSPI    C2 9282  12.196  10.052   4.911  0.1662  0.1604 -0.0331
  688PSPI    C3 9283  11.917   9.816   4.747  0.0605  0.3132 -0.0756
  688PSPI   PO4 9284  11.930  10.112   5.317  0.1920 -0.1896  0.0607
  688PSPI   GL1 9285  12.005   9.904   5.707  0.2478 -0.2404 -0.1548
  688PSPI   GL2 9286  11.935   9.506   5.812 -0.1751  0.0471  0.3433
  688PSPI   C1A 9287  11.710   9.986   6.072  0.0741 -0.1892 -0.1467
  688PSPI   C2A 9288  11.806  10.018   6.496  0.1261  0.0784 -0.2036
  688PSPI   C3A 9289  11.749   9.840   6.969  0.0869 -0.1933  0.1228
  688PSPI   C4A 9290  11.417   9.921   7.192  0.1959 -0.1732 -0.3265
  688PSPI   C1B 9291  11.893   9.582   6.201 -0.1645 -0.0442 -0.0872
  688PSPI   C2B 9292  11.988   9.534   6.609 -0.1978  0.3256 -0.1338
  688PSPI   C3B 9293  12.174   9.559   7.044 -0.1350  0.0883  0.0716
  688PSPI   C4B 9294  12.186   9.381   7.423  0.2241 -0.0535 -0.3655
  689PSPI    C1 9295  13.791   5.852   5.756  0.1418 -0.1103  0.1066
  689PSPI    C2 9296  14.147   6.035   5.754  0.1508 -0.1181 -0.4580
  689PSPI    C3 9297  13.811   6.251   5.724  0.0957 -0.1058  0.1330
  689PSPI   PO4 9298  13.934   5.588   5.812 -0.0300  0.2946 -0.1543
  689PSPI   GL1 9299  13.813   5.308   6.156  0.1848 -0.2392  0.3211
  689PSPI   GL2 9300  13.810   5.080   6.158  0.0565 -0.4513 -0.2922
  689PSPI   C1A 9301  14.054   5.318   6.659  0.0993 -0.0101  0.2675
  689PSPI   C2A 9302  13.916   5.028   6.974 -0.2432 -0.0998 -0.0146
  689PSPI   C3A 9303  14.047   4.944   7.466 -0.1135  0.3276  0.2126
  689PSPI   C4A 9304  14.325   4.914   7.824 -0.1046  0.0087  0.0251
  689PSPI   C1B 9305  13.580   5.155   6.553 -0.0989  0.0878  0.2360
  689PSPI   C2B 9306  13.405   4.980   6.829  0.3846 -0.0320  0.0063
  689PSPI   C3B 9307  13.231   4.812   7.164 -0.0735  0.0438  0.2457
  689PSPI   C4B 9308  13.235   4.439   7.203  0.0910 -0.4264 -0.1224
  690PSPI    C1 9309   0.022   4.212   5.486  0.0887 -0.1637 -0.1911
  690PSPI    C2 9310   0.198   4.417   5.192  0.1032 -0.0972 -0.1360
  690PSPI    C3 9311   0.056   4.050   5.121  0.0859 -0.0724 -0.2320
  690PSPI   PO4 9312  -0.186   4.361   5.555 -0.2465  0.1246  0.0050
  690PSPI   GL1 9313  -0.253   4.620   5.969 -0.0286  0.0195  0.1769
  690PSPI   GL2 9314  -0.556   4.354   6.005  0.2281  0.0920  0.2580
  690PSPI   C1A 9315  -0.361   4.753   6.345 -0.2175 -0.3354 -0.1486
  690PSPI   C2A 9316  -0.225   4.931   6.694  0.1229 -0.0063  0.2982
  690PSPI   C3A 9317  -0.264   4.677   7.031  0.4256  0.2924  0.1960
  690PSPI   C4A 9318  -0.079   4.514   7.290  0.3173 -0.2510 -0.0737
  690PSPI   C1B 9319  -0.803   4.098   6.043 -0.1641 -0.3230 -0.3213
  690PSPI   C2B 9320  -1.216   4.195   6.185 -0.1566  0.0205  0.1893
  690PSPI   C3B 9321  -1.526   4.033   6.478 -0.0232 -0.0654 -0.2299
  690PSPI   C4B 9322  -1.674   3.622   6.455 -0.2294  0.1512  0.1107
  691PSPI    C1 9323   4.813  14.846   5.892  0.0065  0.2489 -0.0042
  691PSPI    C2 9324   4.616  14.977   5.569  0.1489  0.1055 -0.1507
  691PSPI    C3 9325   4.962  15.147   5.676 -0.0021  0.2925  0.0502
  691PSPI   PO4 9326   4.610  14.835   6.034  0.1015 -0.2269  0.1351
  691PSPI   GL1 9327   4.636  14.863   6.470  0.1585  0.0176 -0.1430
  691PSPI   GL2 9328   4.455  14.874   6.728  0.0665  0.0386  0.3355
  691PSPI   C1A 9329   4.651  14.432   6.682 -0.0286 -0.0712  0.1820
  691PSPI   C2A 9330   5.092  14.289   6.876  0.1229 -0.2514 -0.1574
  691PSPI   C3A 9331   5.341  14.056   7.093  0.1645  0.0266  0.0273
  691PSPI   C4A 9332   5.612  13.809   7.270  0.1613 -0.2235  0.0566
  691PSPI   C1B 9333   4.410  14.699   7.033 -0.1221 -0.3262 -0.4002
  691PSPI   C2B 9334   4.503  14.643   7.469 -0.0436  0.2523  0.0540
  691PSPI   C3B 9335   4.877  14.660   7.782 -0.1154  0.0727  0.3382
  691PSPI   C4B 9336   5.043  14.315   8.069 -0.1256 -0.0829  0.0368
  692PSPI    C1 9337   5.145   1.879   5.761  0.1220 -0.0435 -0.1640
  692PSPI    C2 9338   5.520   1.763   5.688  0.0898 -0.3214  0.0899
  692PSPI    C3 9339   5.228   1.665   5.434  0.2012 -0.0150 -0.1626
  692PSPI   PO4 9340   5.216   2.084   6.041 -0.1477  0.1447  0.2045
  692PSPI   GL1 9341   5.381   2.013   6.512  0.2103  0.0057 -0.0822
  692PSPI   GL2 9342   5.093   1.923   6.531 -0.2010  0.0367 -0.0365
  692PSPI   C1A 9343   5.204   2.260   6.889  0.1260 -0.4925  0.1006
  692PSPI   C2A 9344   4.797   2.385   7.009 -0.4353 -0.1596 -0.1930
  692PSPI   C3A 9345   4.546   2.282   7.373 -0.0964 -0.0462 -0.0067
  692PSPI   C4A 9346   4.289   2.296   7.770 -0.3213 -0.3627 -0.0553
  692PSPI   C1B 9347   5.346   1.706   6.913 -0.0376  0.0514 -0.3781
  692PSPI   C2B 9348   5.451   1.709   7.319  0.1564  0.1789  0.0683
  692PSPI   C3B 9349   5.383   1.805   7.639  0.0525 -0.1494  0.1332
  692PSPI   C4B 9350   5.399   2.154   7.776  0.1781  0.1920  0.3597
  693PSPI    C1 9351  10.354  12.089   5.292  0.0363  0.2143 -0.3114
  693PSPI    C2 9352  10.061  11.990   5.037 -0.0202 -0.1068 -0.1264
  693PSPI    C3 9353  10.438  11.879   4.962 -0.0566 -0.3163 -0.0083
  693PSPI   PO4 9354  10.390  11.986   5.553  0.1376 -0.0156  0.1661
  693PSPI   GL1 9355  10.341  11.690   5.820 -0.0258  0.3107 -0.2199
  693PSPI   GL2 9356  10.676  11.598   5.748  0.0964  0.0320  0.1897
  693PSPI   C1A 9357  10.331  11.785   6.266 -0.0249 -0.0366  0.0013
  693PSPI   C2A 9358  10.368  11.798   6.687  0.2196  0.1001  0.0718
  693PSPI   C3A 9359  10.539  11.992   7.043 -0.1397  0.3979  0.1126
  693PSPI   C4A 9360  10.447  12.373   7.268 -0.1419 -0.1417  0.0725
  693PSPI   C1B 9361  10.845  11.708   6.115  0.3518  0.1360 -0.1474
  693PSPI   C2B 9362  10.866  11.421   6.440  0.1195  0.0478 -0.3783
  693PSPI   C3B 9363  10.809  11.489   6.923 -0.1211  0.2188 -0.0401
  693PSPI   C4B 9364  10.674  11.241   7.334 -0.0112  0.1459  0.3533
  694PSPI    C1 9365  12.358  13.625   5.131 -0.0791  0.0182 -0.0062
  694PSPI    C2 9366  12.324  13.666   4.735  0.1028 -0.0219 -0.0267
  694PSPI    C3 9367  12.600  13.875   4.935  0.1818 -0.1910  0.0432
  694PSPI   PO4 9368  12.130  13.618   5.282 -0.0301  0.0150  0.5651
  694PSPI   GL1 9369  12.044  13.812   5.593 -0.3849 -0.2737  0.0573
  694PSPI   GL2 9370  11.879  14.064   5.401  0.0179  0.2156 -0.1630
  694PSPI   C1A 9371  11.915  13.639   6.071  0.2537  0.4288 -0.0314
  694PSPI   C2A 9372  11.773  13.503   6.450  0.0802 -0.2796  0.0653
  694PSPI   C3A 9373  11.757  13.678   6.906 -0.1940 -0.0755  0.2392
  694PSPI   C4A 9374  12.063  13.854   7.128 -0.4724  0.3871  0.4322
  694PSPI   C1B 9375  12.099  14.470   5.574 -0.1239 -0.0944 -0.3405
  694PSPI   C2B 9376  12.237  14.802   5.866  0.0099  0.1104 -0.0307
  694PSPI   C3B 9377  12.060  15.222   6.193 -0.0140 -0.0329  0.0272
  694PSPI   C4B 9378  11.756  15.477   6.334  0.1485 -0.3845 -0.0320
  695POPI    C1 9379  11.917  11.050   5.306  0.0604 -0.1020  0.0500
  695POPI    C2 9380  12.092  10.902   4.979  0.0833  0.2148 -0.0849
  695POPI    C3 9381  11.747  11.102   4.948  0.0942  0.2610  0.0826
  695POPI   PO4 9382  12.105  10.907   5.513 -0.1902  0.0066  0.0042
  695POPI   GL1 9383  12.238  11.049   5.889 -0.1391 -0.1485  0.0963
  695POPI   GL2 9384  11.994  10.874   6.039 -0.1695  0.1070 -0.0834
  695POPI   C1A 9385  12.198  11.434   6.147  0.0273  0.0365  0.2116
  695POPI   D2A 9386  12.276  11.773   6.454  0.0155  0.1336  0.1512
  695POPI   C3A 9387  12.269  11.647   6.923 -0.0221  0.0922 -0.2544
  695POPI   C4A 9388  12.063  11.601   7.256  0.1437  0.0497 -0.2720
  695POPI   C1B 9389  12.090  10.963   6.491  0.0315 -0.2917 -0.2947
  695POPI   C2B 9390  12.428  11.168   6.596  0.2987  0.1059  0.1542
  695POPI   C3B 9391  12.559  11.248   7.021  0.0811  0.2027  0.1748
  695POPI   C4B 9392  12.666  11.287   7.440 -0.1746 -0.0011 -0.2765
  696POPI    C1 9393   4.494  18.011   5.408 -0.2100 -0.0976 -0.1603
  696POPI    C2 9394   4.332  17.879   5.067  0.1831 -0.0637 -0.3660
  696POPI    C3 9395   4.598  18.178   5.060  0.2403 -0.1024 -0.0347
  696POPI   PO4 9396   4.492  17.932   5.675  0.0307  0.0459  0.0091
  696POPI   GL1 9397   4.088  17.748   5.899  0.1529 -0.3202 -0.0204
  696POPI   GL2 9398   3.910  17.817   6.087 -0.3332  0.1484 -0.0011
  696POPI   C1A 9399   4.278  17.543   6.277  0.4523  0.1672  0.1202
  696POPI   D2A 9400   4.720  17.683   6.435 -0.0572 -0.2016 -0.2381
  696POPI   C3A 9401   4.868  17.695   6.891  0.2021  0.0284 -0.0491
  696POPI   C4A 9402   4.705  17.599   7.269  0.0499 -0.2318 -0.2914
  696POPI   C1B 9403   3.809  17.817   6.466 -0.2944  0.1196 -0.1349
  696POPI   C2B 9404   3.708  17.772   6.909  0.2589  0.0119 -0.2045
  696POPI   C3B 9405   3.922  17.946   7.226 -0.0376 -0.2172  0.1337
  696POPI   C4B 9406   4.190  17.939   7.671  0.0041 -0.0234  0.2368
  697POPI    C1 9407   3.145   2.411   5.884 -0.1156  0.1430 -0.0645
  697POPI    C2 9408   3.063   2.716   5.638 -0.3657  0.0599 -0.0865
  697POPI    C3 9409   3.263   2.398   5.502 -0.1098  0.2091 -0.0651
  697POPI   PO4 9410   3.106   2.499   6.224 -0.0905 -0.1162 -0.0041
  697POPI   GL1 9411   3.384   2.736   6.492  0.1559  0.0309 -0.1279
  697POPI   GL2 9412   3.383   2.417   6.652 -0.0360 -0.0096 -0.0228
  697POPI   C1A 9413   3.108   3.099   6.509  0.1134  0.0699 -0.1366
  697POPI   D2A 9414   2.930   3.290   6.899  0.1660 -0.2528 -0.1195
  697POPI   C3A 9415   2.532   3.540   6.962  0.4162 -0.1448 -0.0930
  697POPI   C4A 9416   2.128   3.515   7.165 -0.0157  0.0431 -0.2620
  697POPI   C1B 9417   3.201   2.572   7.008  0.1937  0.2280 -0.1674
  697POPI   C2B 9418   3.015   2.899   7.281  0.2631 -0.0307  0.1865
  697POPI   C3B 9419   3.205   3.136   7.527 -0.0756  0.1565 -0.2764
  697POPI   C4B 9420   3.279   3.471   7.799  0.0407 -0.0185 -0.1837
  698POPI    C1 9421   4.318  13.883   5.725  0.1325  0.0856  0.0195
  698POPI    C2 9422   4.547  13.715   5.444 -0.2220  0.0849 -0.2764
  698POPI    C3 9423   4.364  14.063   5.371 -0.0954  0.2268  0.0597
  698POPI   PO4 9424   4.486  13.959   5.924  0.2195  0.0686 -0.2151
  698POPI   GL1 9425   4.521  13.886   6.386 -0.1073 -0.1724  0.0552
  698POPI   GL2 9426   4.417  13.668   6.413 -0.1442 -0.0177  0.0471
  698POPI   C1A 9427   4.566  13.961   6.845  0.1360  0.0286 -0.2789
  698POPI   D2A 9428   4.832  14.086   7.217 -0.0507  0.2759 -0.3236
  698POPI   C3A 9429   4.688  14.237   7.614  0.3012  0.2369  0.1606
  698POPI   C4A 9430   4.490  14.423   7.927 -0.2766 -0.1384  0.1005
  698POPI   C1B 9431   4.533  13.485   6.857  0.0164  0.2280 -0.0617
  698POPI   C2B 9432   4.635  13.643   7.317  0.0462 -0.0199  0.1183
  698POPI   C3B 9433   4.814  13.496   7.681  0.2902  0.0264 -0.2064
  698POPI   C4B 9434   4.778  13.336   8.013 -0.1869  0.1342  0.4584
  699POPI    C1 9435  13.589  14.015   5.387 -0.2019 -0.0146 -0.1277
  699POPI    C2 9436  13.823  13.757   5.190 -0.0385 -0.0748  0.1394
  699POPI    C3 9437  13.787  14.133   5.060  0.0797 -0.1092  0.0050
  699POPI   PO4 9438  13.666  13.894   5.630  0.0951  0.0748  0.0393
  699POPI   GL1 9439  13.659  14.006   6.047  0.2405 -0.1050 -0.2119
  699POPI   GL2 9440  13.680  13.601   6.091  0.0802 -0.1733 -0.0462
  699POPI   C1A 9441  13.785  14.165   6.430  0.2926  0.2750 -0.1304
  699POPI   D2A 9442  13.962  14.523   6.627  0.1222 -0.2879  0.0425
  699POPI   C3A 9443  13.621  14.834   6.797  0.1129  0.0359 -0.1637
  699POPI   C4A 9444  13.390  14.663   7.205  0.2798 -0.0764  0.1330
  699POPI   C1B 9445  13.711  13.485   6.463  0.0296  0.0778 -0.0666
  699POPI   C2B 9446  13.774  13.435   6.910  0.0658 -0.1866  0.4385
  699POPI   C3B 9447  13.812  13.341   7.315  0.2558 -0.2218  0.1131
  699POPI   C4B 9448  13.784  12.976   7.666 -0.2064 -0.0490 -0.4149
  700POPI    C1 9449   3.638  18.656   5.979  0.4080  0.0238 -0.2200
  700POPI    C2 9450   3.772  18.554   5.616 -0.0375 -0.1134 -0.3523
  700POPI    C3 9451   3.380  18.601   5.678  0.0545  0.1693  0.0502
  700POPI   PO4 9452   3.885  18.657   6.117 -0.0354 -0.0714  0.0503
  700POPI   GL1 9453   3.646  18.751   6.587 -0.1003 -0.0899  0.0335
  700POPI   GL2 9454   3.891  18.632   6.635  0.1689  0.2484 -0.0868
  700POPI   C1A 9455   3.539  18.861   7.061  0.0775 -0.3491 -0.1156
  700POPI   D2A 9456   3.652  18.706   7.358  0.0165  0.1747 -0.0483
  700POPI   C3A 9457   3.717  18.829   7.720  0.0529  0.2308 -0.1610
  700POPI   C4A 9458   3.741  18.738   8.198 -0.1714  0.0760  0.1606
  700POPI   C1B 9459   3.626  18.313   6.897  0.0796 -0.2205  0.0338
  700POPI   C2B 9460   3.488  18.272   7.294  0.0469 -0.3227  0.1800
  700POPI   C3B 9461   3.512  17.952   7.673 -0.5664  0.1925  0.0744
  700POPI   C4B 9462   3.836  17.817   7.982  0.1356 -0.0893 -0.1477
  701POPI    C1 9463  12.844   1.992   5.815 -0.1472 -0.3862 -0.2232
  701POPI    C2 9464  12.804   2.256   5.517  0.3338  0.0404  0.0721
  701POPI    C3 9465  12.548   2.260   5.824  0.0941 -0.1172 -0.1216
  701POPI   PO4 9466  13.128   2.017   5.891 -0.0983 -0.2320  0.0567
  701POPI   GL1 9467  13.385   2.158   6.274 -0.1104  0.3975 -0.1451
  701POPI   GL2 9468  13.167   1.858   6.349  0.4406  0.0275  0.0851
  701POPI   C1A 9469  13.176   2.460   6.616 -0.1813 -0.1129 -0.0302
  701POPI   D2A 9470  13.175   2.855   6.818  0.1423  0.1213  0.1671
  701POPI   C3A 9471  12.856   3.010   7.135 -0.0764  0.1091 -0.1196
  701POPI   C4A 9472  12.457   3.256   6.951 -0.1266 -0.0931  0.4103
  701POPI   C1B 9473  13.261   1.992   6.721  0.0662 -0.0389  0.1883
  701POPI   C2B 9474  13.238   2.110   7.180 -0.0301 -0.4743  0.1105
  701POPI   C3B 9475  13.378   2.199   7.561 -0.0760 -0.3206  0.0643
  701POPI   C4B 9476  13.236   2.344   7.889 -0.0717  0.0062 -0.2397
  702POPI    C1 9477   3.283  11.159   6.121  0.0117  0.1032 -0.0242
  702POPI    C2 9478   2.957  11.375   6.209  0.0173  0.1544 -0.1280
  702POPI    C3 9479   3.313  11.554   6.178  0.0813  0.0766  0.1301
  702POPI   PO4 9480   3.178  10.936   6.186  0.1344  0.0273  0.0535
  702POPI   GL1 9481   3.171  11.113   6.618  0.0221  0.2149 -0.0899
  702POPI   GL2 9482   2.817  11.019   6.559 -0.1336 -0.1690 -0.0551
  702POPI   C1A 9483   3.446  11.005   6.944 -0.0526  0.0435  0.0873
  702POPI   D2A 9484   3.559  11.044   7.399 -0.2477  0.2614 -0.3915
  702POPI   C3A 9485   3.836  10.706   7.578 -0.1416  0.2100 -0.0674
  702POPI   C4A 9486   4.045  10.299   7.675 -0.0587 -0.0428 -0.2465
  702POPI   C1B 9487   2.854  10.917   6.948 -0.2090  0.0080 -0.0129
  702POPI   C2B 9488   2.915  11.114   7.236 -0.1881 -0.2358  0.0505
  702POPI   C3B 9489   3.052  11.006   7.560 -0.2954 -0.1342 -0.1872
  702POPI   C4B 9490   3.026  11.143   7.929 -0.3031 -0.0863  0.1864
  703POPI    C1 9491   2.978   1.309   6.034 -0.0617 -0.0837 -0.1355
  703POPI    C2 9492   3.005   1.336   5.635 -0.1583  0.2592 -0.1226
  703POPI    C3 9493   2.724   1.542   5.831  0.1110  0.3720  0.1551
  703POPI   PO4 9494   2.923   1.147   6.299  0.0171 -0.1635 -0.1233
  703POPI   GL1 9495   2.830   1.303   6.717 -0.2106 -0.2054  0.3831
  703POPI   GL2 9496   2.784   1.558   6.867  0.1548  0.0927 -0.1781
  703POPI   C1A 9497   2.671   1.092   7.055 -0.0279 -0.0971 -0.1512
  703POPI   D2A 9498   2.706   0.875   7.340  0.2388 -0.0248 -0.1485
  703POPI   C3A 9499   2.571   1.091   7.698 -0.1685 -0.1697 -0.3296
  703POPI   C4A 9500   2.588   0.861   8.210 -0.1140 -0.1971 -0.2043
  703POPI   C1B 9501   2.672   1.551   7.259  0.4735 -0.0126 -0.1366
  703POPI   C2B 9502   2.352   1.695   7.552  0.0826 -0.2741 -0.1680
  703POPI   C3B 9503   2.089   2.034   7.867 -0.1394  0.1928 -0.1559
  703POPI   C4B 9504   1.741   2.061   8.231 -0.1512 -0.3003  0.0037
  704POPI    C1 9505  12.873  12.807   5.074 -0.1486 -0.0576 -0.2442
  704POPI    C2 9506  13.236  12.778   5.239 -0.1372  0.0969 -0.2402
  704POPI    C3 9507  13.176  13.026   4.931 -0.2828  0.2152 -0.1177
  704POPI   PO4 9508  12.740  12.748   5.355 -0.1859  0.1116 -0.0752
  704POPI   GL1 9509  12.409  12.688   5.542 -0.1423  0.0280 -0.1760
  704POPI   GL2 9510  12.325  12.598   5.886  0.0583 -0.0810  0.0536
  704POPI   C1A 9511  12.314  13.032   5.772 -0.3048 -0.0409  0.1369
  704POPI   D2A 9512  12.101  13.207   5.978  0.0711 -0.0915 -0.3947
  704POPI   C3A 9513  11.668  13.124   6.166 -0.4037 -0.2733 -0.0876
  704POPI   C4A 9514  11.586  12.909   6.522 -0.1822  0.4349  0.1175
  704POPI   C1B 9515  12.035  12.667   6.101  0.1825 -0.4022  0.0648
  704POPI   C2B 9516  12.038  12.693   6.444 -0.1506 -0.0779 -0.0233
  704POPI   C3B 9517  12.232  12.683   6.947  0.1952  0.1049 -0.1229
  704POPI   C4B 9518  12.570  12.583   7.190 -0.0474  0.0877 -0.2280
  705POPI    C1 9519  13.558  17.909   5.494 -0.1966 -0.0289 -0.0124
  705POPI    C2 9520  13.734  18.061   5.169 -0.1272  0.2191  0.1383
  705POPI    C3 9521  13.481  17.753   5.134  0.0598  0.0908 -0.1216
  705POPI   PO4 9522  13.720  17.944   5.679 -0.2740  0.1115  0.3861
  705POPI   GL1 9523  13.695  17.963   6.146  0.1189  0.1237  0.1032
  705POPI   GL2 9524  13.680  17.601   6.030 -0.3247 -0.0483 -0.1635
  705POPI   C1A 9525  13.664  18.010   6.586  0.1099  0.2386  0.3234
  705POPI   D2A 9526  13.498  17.982   6.994 -0.0436  0.0479  0.0117
  705POPI   C3A 9527  13.279  17.646   7.177  0.0231 -0.1125 -0.1264
  705POPI   C4A 9528  13.109  17.195   7.266  0.4265  0.0557 -0.0671
  705POPI   C1B 9529  13.578  17.543   6.486 -0.1266  0.3405 -0.2204
  705POPI   C2B 9530  13.551  17.326   6.868  0.1430 -0.1010  0.0993
  705POPI   C3B 9531  13.686  17.123   7.277 -0.0897  0.1991 -0.2629
  705POPI   C4B 9532  14.065  17.324   7.419  0.2151 -0.0053 -0.2026
  706POPI    C1 9533   8.711   5.751   5.320 -0.1245  0.2159  0.2886
  706POPI    C2 9534   8.508   6.060   5.472 -0.0136  0.4234  0.0241
  706POPI    C3 9535   8.516   6.002   5.077 -0.2436 -0.0698  0.0847
  706POPI   PO4 9536   8.921   5.722   5.585 -0.1770 -0.0315 -0.2597
  706POPI   GL1 9537   9.019   5.767   6.040 -0.1747  0.0544 -0.4150
  706POPI   GL2 9538   9.341   5.701   5.996  0.1014 -0.1503  0.1433
  706POPI   C1A 9539   9.024   5.747   6.451  0.1738  0.1587  0.0679
  706POPI   D2A 9540   8.851   5.877   6.812  0.1628 -0.3362 -0.2591
  706POPI   C3A 9541   9.049   5.791   7.048 -0.0050 -0.1997  0.2745
  706POPI   C4A 9542   9.543   5.801   7.247 -0.0800 -0.1259  0.2424
  706POPI   C1B 9543   9.704   5.445   6.246 -0.1522 -0.0869 -0.1616
  706POPI   C2B 9544   9.806   5.266   6.711 -0.0900 -0.1064 -0.0748
  706POPI   C3B 9545  10.182   5.112   6.921  0.1793 -0.3092  0.2337
  706POPI   C4B 9546  10.547   5.139   6.924  0.1154  0.1752  0.2484
  707POPI    C1 9547   5.493  14.899   5.804 -0.0249 -0.0002 -0.0679
  707POPI    C2 9548   5.868  14.778   5.876  0.0567  0.0648 -0.3710
  707POPI    C3 9549   5.801  15.091   5.637 -0.1845  0.1774 -0.1609
  707POPI   PO4 9550   5.370  14.892   6.085  0.0692 -0.0921 -0.1411
  707POPI   GL1 9551   5.456  15.007   6.519 -0.0560  0.1382  0.2401
  707POPI   GL2 9552   5.376  15.387   6.483  0.7283  0.1985  0.0692
  707POPI   C1A 9553   5.102  14.908   6.786 -0.1460  0.1770  0.0617
  707POPI   D2A 9554   4.892  14.681   7.100  0.0013 -0.0693  0.1231
  707POPI   C3A 9555   5.143  14.451   7.394  0.2944 -0.0192 -0.3336
  707POPI   C4A 9556   5.597  14.329   7.439 -0.1570 -0.0725 -0.0995
  707POPI   C1B 9557   5.441  15.362   6.941  0.0665  0.2287 -0.0856
  707POPI   C2B 9558   5.693  15.358   7.220  0.2536 -0.2539  0.1269
  707POPI   C3B 9559   6.130  15.534   7.278 -0.0148  0.4073  0.0605
  707POPI   C4B 9560   6.362  15.762   7.001  0.3061 -0.3264 -0.1316
  708POPI    C1 9561  16.312  12.526   5.478 -0.3493 -0.0748 -0.0826
  708POPI    C2 9562  16.455  12.717   5.158  0.1643  0.0921  0.2335
  708POPI    C3 9563  16.511  12.323   5.196 -0.1192  0.0257  0.0050
  708POPI   PO4 9564  16.335  12.709   5.725  0.1055 -0.0768 -0.0522
  708POPI   GL1 9565  16.113  12.868   6.107 -0.2427  0.0778 -0.0354
  708POPI   GL2 9566  16.091  12.660   6.273  0.2135  0.3919 -0.0077
  708POPI   C1A 9567  15.718  13.024   6.294  0.1488  0.0537 -0.0630
  708POPI   D2A 9568  15.428  13.282   6.647 -0.0463 -0.1937 -0.1844
  708POPI   C3A 9569  15.051  13.283   6.945  0.3585 -0.2321  0.2190
  708POPI   C4A 9570  15.009  13.348   7.376 -0.0553 -0.1035 -0.1928
  708POPI   C1B 9571  16.088  12.729   6.620 -0.1414  0.0714 -0.0914
  708POPI   C2B 9572  16.233  12.777   7.059 -0.1104 -0.2852 -0.2144
  708POPI   C3B 9573  16.265  12.763   7.394  0.0678 -0.1106  0.2048
  708POPI   C4B 9574  15.976  12.748   7.763  0.2474 -0.1926  0.1025
  709POPI    C1 9575  17.270   9.820   5.533  0.1971  0.1094 -0.1758
  709POPI    C2 9576  16.957   9.996   5.356  0.0062  0.0450  0.0916
  709POPI    C3 9577  17.314   9.994   5.175 -0.1654  0.0455 -0.2553
  709POPI   PO4 9578  17.166   9.930   5.849 -0.3267 -0.2858 -0.1559
  709POPI   GL1 9579  17.003  10.245   6.194  0.0112  0.0467 -0.0629
  709POPI   GL2 9580  17.246  10.488   6.136  0.4107 -0.3282  0.0006
  709POPI   C1A 9581  17.183   9.842   6.495 -0.2401  0.1072  0.2141
  709POPI   D2A 9582  17.599   9.550   6.417 -0.0114  0.2927  0.1418
  709POPI   C3A 9583  17.939   9.612   6.766 -0.0915  0.2297 -0.0357
  709POPI   C4A 9584  18.212   9.744   7.033  0.0028  0.2406 -0.0907
  709POPI   C1B 9585  17.330  10.422   6.595  0.0988 -0.2026  0.2144
  709POPI   C2B 9586  17.472  10.331   7.059  0.1950 -0.2091 -0.2889
  709POPI   C3B 9587  17.342  10.207   7.387 -0.5602 -0.3204 -0.2007
  709POPI   C4B 9588  17.238  10.162   7.779  0.1986  0.0038 -0.3093
  710POPI    C1 9589   1.997   1.047   5.963 -0.0103  0.1267 -0.0882
  710POPI    C2 9590   1.678   1.285   5.930 -0.0504  0.1036  0.1194
  710POPI    C3 9591   1.633   0.888   5.918  0.0098  0.1029 -0.1700
  710POPI   PO4 9592   2.066   1.102   6.215 -0.2646 -0.0266 -0.1718
  710POPI   GL1 9593   2.065   1.046   6.614 -0.0044 -0.0077 -0.0125
  710POPI   GL2 9594   2.141   1.324   6.721 -0.2293  0.1317 -0.0069
  710POPI   C1A 9595   2.232   0.841   6.935 -0.0106  0.1595  0.0776
  710POPI   D2A 9596   2.223   0.889   7.396 -0.1342  0.0170 -0.1531
  710POPI   C3A 9597   2.114   0.804   7.754  0.1910  0.2424  0.1201
  710POPI   C4A 9598   1.913   1.099   8.031  0.0470 -0.0749  0.0304
  710POPI   C1B 9599   2.200   1.388   7.134 -0.2360 -0.0283 -0.0516
  710POPI   C2B 9600   2.007   1.302   7.532  0.0204  0.2149  0.1060
  710POPI   C3B 9601   2.228   1.458   8.038  0.0339  0.0349  0.2474
  710POPI   C4B 9602   2.578   1.599   8.317 -0.1603 -0.1249  0.0584
  711POPI    C1 9603  16.485   8.317   5.259 -0.0995 -0.0039 -0.2994
  711POPI    C2 9604  16.689   7.984   5.343  0.0378  0.1081 -0.1840
  711POPI    C3 9605  16.319   7.959   5.193 -0.0749 -0.0968  0.1176
  711POPI   PO4 9606  16.334   8.450   5.479 -0.2471  0.1391  0.0602
  711POPI   GL1 9607  16.282   8.477   5.936  0.0317  0.0085  0.0685
  711POPI   GL2 9608  16.030   8.649   5.900  0.0177  0.1440 -0.4766
  711POPI   C1A 9609  15.911   8.263   6.227 -0.2095 -0.0446  0.2031
  711POPI   D2A 9610  15.973   8.319   6.719  0.0405 -0.1325 -0.1231
  711POPI   C3A 9611  16.357   8.004   6.829  0.0513 -0.2323 -0.1673
  711POPI   C4A 9612  16.495   7.743   7.123 -0.1321  0.1223 -0.2311
  711POPI   C1B 9613  15.657   8.713   6.282  0.0395 -0.1048  0.1879
  711POPI   C2B 9614  15.572   8.630   6.686 -0.2153  0.0299  0.1222
  711POPI   C3B 9615  15.414   8.335   6.899  0.1627  0.0989 -0.2601
  711POPI   C4B 9616  15.079   8.131   7.091  0.1488 -0.0875  0.1470
  712POPI    C1 9617   5.133  12.274   5.706 -0.0567  0.2116  0.0051
  712POPI    C2 9618   4.949  12.511   5.971 -0.0899  0.1155  0.0688
  712POPI    C3 9619   4.798  12.468   5.603 -0.2877 -0.0885  0.1713
  712POPI   PO4 9620   5.198  12.065   5.915 -0.1146 -0.1133 -0.1867
  712POPI   GL1 9621   5.101  11.784   6.039  0.1951 -0.2389 -0.2877
  712POPI   GL2 9622   4.812  11.632   6.082 -0.1723  0.1036  0.3116
  712POPI   C1A 9623   5.121  11.741   6.502 -0.1988 -0.1663 -0.0421
  712POPI   D2A 9624   5.122  11.525   6.769 -0.1294  0.1083  0.2898
  712POPI   C3A 9625   4.791  11.405   6.865 -0.1137  0.4665  0.1088
  712POPI   C4A 9626   4.469  11.189   7.025 -0.0314 -0.1268  0.2408
  712POPI   C1B 9627   4.516  11.489   6.386 -0.2660  0.3459 -0.0560
  712POPI   C2B 9628   4.295  11.170   6.505 -0.2248  0.1424  0.0827
  712POPI   C3B 9629   4.041  11.021   6.790 -0.3183  0.1312  0.1484
  712POPI   C4B 9630   3.815  10.780   7.047 -0.0035 -0.2021  0.0502
  713POPI    C1 9631   2.261   2.978   5.607  0.3847 -0.1996 -0.1114
  713POPI    C2 9632   2.104   2.736   5.329 -0.0357 -0.0268 -0.0309
  713POPI    C3 9633   2.459   2.909   5.266 -0.0304 -0.1538 -0.3689
  713POPI   PO4 9634   2.294   2.943   5.888 -0.0635 -0.0402  0.1777
  713POPI   GL1 9635   2.612   2.812   6.373  0.3646 -0.0834 -0.3363
  713POPI   GL2 9636   2.547   3.082   6.281  0.0410  0.0860 -0.0126
  713POPI   C1A 9637   2.805   2.756   6.830  0.0394  0.1381 -0.0883
  713POPI   D2A 9638   2.605   2.559   7.202  0.0818 -0.2169 -0.0297
  713POPI   C3A 9639   2.299   2.798   7.461 -0.2082 -0.0626 -0.1056
  713POPI   C4A 9640   2.338   2.878   7.836  0.1719 -0.1467  0.1124
  713POPI   C1B 9641   2.548   3.289   6.539 -0.0268 -0.0151 -0.1573
  713POPI   C2B 9642   2.835   3.654   6.566  0.2420  0.2683 -0.2437
  713POPI   C3B 9643   2.770   3.933   6.889  0.0858  0.1673  0.0246
  713POPI   C4B 9644   3.015   4.361   7.084  0.1683 -0.0758  0.2002
  714POPI    C1 9645  10.769   1.400   5.775  0.2373 -0.1357 -0.1124
  714POPI    C2 9646  10.909   1.639   6.063 -0.0681 -0.0122 -0.0623
  714POPI    C3 9647  10.872   1.778   5.690 -0.0327 -0.0528 -0.0810
  714POPI   PO4 9648  10.853   1.118   5.917  0.1827  0.0445 -0.2145
  714POPI   GL1 9649  10.968   0.995   6.358 -0.1101  0.0919  0.2251
  714POPI   GL2 9650  11.137   0.722   6.582 -0.2264  0.2197 -0.0049
  714POPI   C1A 9651  11.124   1.308   6.623 -0.1763  0.1136 -0.0989
  714POPI   D2A 9652  11.123   1.656   6.973  0.0337  0.4628  0.1055
  714POPI   C3A 9653  11.189   1.545   7.465 -0.0540 -0.3325  0.1413
  714POPI   C4A 9654  10.960   1.243   7.687  0.0647 -0.1231  0.3393
  714POPI   C1B 9655  10.939   0.939   6.939 -0.0483  0.1654 -0.0627
  714POPI   C2B 9656  10.562   0.867   7.179  0.1861  0.0974  0.0155
  714POPI   C3B 9657  10.561   1.053   7.538  0.0565  0.0236 -0.0937
  714POPI   C4B 9658  10.488   1.340   7.828 -0.2510 -0.0184 -0.1190
  715POPI    C1 9659  14.509  17.922   5.301 -0.2259 -0.0944 -0.1105
  715POPI    C2 9660  14.137  17.847   5.429 -0.1896 -0.0988 -0.0068
  715POPI    C3 9661  14.377  17.545   5.323 -0.0953 -0.1227  0.2658
  715POPI   PO4 9662  14.587  18.067   5.430  0.0542 -0.1301 -0.0008
  715POPI   GL1 9663  14.609  18.011   5.879 -0.0620  0.4198  0.4399
  715POPI   GL2 9664  14.668  17.666   5.807  0.0744  0.1045 -0.0115
  715POPI   C1A 9665  14.790  18.223   6.278  0.1410  0.2271 -0.0539
  715POPI   D2A 9666  15.039  18.349   6.589 -0.1165 -0.2486 -0.0258
  715POPI   C3A 9667  15.232  18.147   6.968  0.1435 -0.0338 -0.1737
  715POPI   C4A 9668  15.414  18.156   7.291 -0.0880  0.0271  0.1935
  715POPI   C1B 9669  14.945  17.709   6.216  0.3229 -0.0519 -0.2501
  715POPI   C2B 9670  15.034  17.840   6.579  0.1100 -0.1200 -0.0106
  715POPI   C3B 9671  15.327  17.521   6.960 -0.4649  0.0962  0.1313
  715POPI   C4B 9672  15.214  17.674   7.360 -0.1524  0.3924 -0.2210
  716POPI    C1 9673   2.152  13.217   5.381 -0.1576  0.1575  0.0240
  716POPI    C2 9674   1.837  13.010   5.248 -0.0198  0.0485 -0.1361
  716POPI    C3 9675   2.187  12.825   5.309 -0.0009  0.1576  0.0950
  716POPI   PO4 9676   2.064  13.348   5.600  0.1832 -0.2230 -0.0120
  716POPI   GL1 9677   1.847  13.345   5.950 -0.1001 -0.3437 -0.1162
  716POPI   GL2 9678   1.798  13.134   6.158  0.2095  0.0278 -0.0580
  716POPI   C1A 9679   1.652  13.623   6.281 -0.2896 -0.1482 -0.1842
  716POPI   D2A 9680   1.616  13.846   6.607  0.1633 -0.1292  0.1484
  716POPI   C3A 9681   1.791  14.143   7.018 -0.0741 -0.2615 -0.0796
  716POPI   C4A 9682   1.762  14.277   7.374  0.1136  0.2150  0.0983
  716POPI   C1B 9683   1.728  13.183   6.617  0.1953 -0.1201 -0.1734
  716POPI   C2B 9684   1.703  13.357   7.039  0.0328 -0.0985 -0.1575
  716POPI   C3B 9685   1.725  13.264   7.381  0.1198 -0.0474  0.3263
  716POPI   C4B 9686   1.519  13.131   7.715 -0.1591 -0.3856  0.0260
  717POPI    C1 9687   3.822  12.516   5.894 -0.0193 -0.0741  0.0310
  717POPI    C2 9688   3.606  12.340   5.608  0.0268  0.0428 -0.0769
  717POPI    C3 9689   3.929  12.554   5.511 -0.0063  0.1544  0.0556
  717POPI   PO4 9690   3.631  12.567   6.073 -0.1385  0.1772 -0.0043
  717POPI   GL1 9691   3.636  12.693   6.501  0.1747  0.0161  0.3378
  717POPI   GL2 9692   3.529  12.342   6.488  0.0925  0.1341 -0.0118
  717POPI   C1A 9693   3.609  12.699   6.918 -0.1579  0.0544 -0.3144
  717POPI   D2A 9694   3.349  12.823   7.195  0.1990 -0.1065  0.1944
  717POPI   C3A 9695   3.314  13.062   7.536 -0.0620  0.0467  0.0665
  717POPI   C4A 9696   3.261  13.399   7.793 -0.2395  0.2657  0.3434
  717POPI   C1B 9697   3.153  12.056   6.605  0.0191  0.3125 -0.4037
  717POPI   C2B 9698   3.089  11.938   7.047  0.1151 -0.1090  0.0499
  717POPI   C3B 9699   3.235  11.969   7.463 -0.3677 -0.1592  0.2700
  717POPI   C4B 9700   3.224  11.933   7.887 -0.1897 -0.1417  0.4157
  718POPI    C1 9701   3.756  15.923   6.148  0.1903 -0.1021 -0.2081
  718POPI    C2 9702   3.693  16.214   5.880  0.1662  0.1930  0.1115
  718POPI    C3 9703   4.067  16.103   5.972  0.1727  0.0240 -0.1116
  718POPI   PO4 9704   3.507  15.992   6.316 -0.0058  0.1176  0.1089
  718POPI   GL1 9705   3.423  16.023   6.723 -0.1167  0.2003 -0.3131
  718POPI   GL2 9706   3.711  16.220   6.758 -0.1544  0.0331  0.2506
  718POPI   C1A 9707   3.228  15.742   7.078 -0.0083 -0.0049 -0.0088
  718POPI   D2A 9708   3.117  15.630   7.541  0.0721 -0.0158  0.2028
  718POPI   C3A 9709   2.996  15.666   8.022 -0.1390  0.2997  0.4279
  718POPI   C4A 9710   3.148  15.748   8.533 -0.2113  0.0561  0.0614
  718POPI   C1B 9711   3.730  16.044   7.107 -0.0532  0.0058 -0.1600
  718POPI   C2B 9712   3.644  15.894   7.496  0.0309  0.1390  0.2027
  718POPI   C3B 9713   3.714  15.634   7.907  0.3565  0.2133  0.1082
  718POPI   C4B 9714   3.689  15.561   8.338 -0.1685 -0.2987 -0.0083
  719POPI    C1 9715   8.373   4.567   5.628  0.1743  0.0642  0.0890
  719POPI    C2 9716   8.301   4.853   5.359  0.0951  0.1223  0.1714
  719POPI    C3 9717   8.677   4.749   5.442  0.1172  0.0159 -0.0529
  719POPI   PO4 9718   8.307   4.700   5.847  0.0737 -0.0833 -0.2851
  719POPI   GL1 9719   8.489   4.819   6.327 -0.0044  0.0905  0.2984
  719POPI   GL2 9720   8.581   4.545   6.371  0.1141  0.2183  0.0078
  719POPI   C1A 9721   8.614   5.037   6.725  0.0144 -0.1427 -0.0642
  719POPI   D2A 9722   8.522   4.991   7.117  0.2330 -0.2979 -0.1884
  719POPI   C3A 9723   8.310   5.195   7.283 -0.0279  0.1915 -0.2788
  719POPI   C4A 9724   8.213   5.221   7.722 -0.1360 -0.1394 -0.1641
  719POPI   C1B 9725   8.634   4.559   6.737 -0.0727  0.1871  0.4552
  719POPI   C2B 9726   8.675   4.460   7.076 -0.5914  0.1807 -0.0746
  719POPI   C3B 9727   8.894   4.134   7.477  0.1989  0.0994 -0.2153
  719POPI   C4B 9728   9.144   4.082   7.873 -0.0381 -0.1804 -0.1044
  720POPI    C1 9729  15.451   2.510   5.463  0.0313  0.0527  0.0605
  720POPI    C2 9730  15.690   2.657   5.178 -0.0831  0.0176 -0.0541
  720POPI    C3 9731  15.414   2.891   5.349  0.0510  0.0661  0.0985
  720POPI   PO4 9732  15.675   2.332   5.652 -0.0403 -0.0024  0.4060
  720POPI   GL1 9733  16.076   2.445   5.950 -0.1956 -0.2429  0.3272
  720POPI   GL2 9734  15.881   2.192   6.037 -0.1492 -0.2725  0.0443
  720POPI   C1A 9735  16.376   2.308   6.145 -0.0852  0.0752 -0.0129
  720POPI   D2A 9736  16.398   2.034   6.425  0.2057 -0.0444 -0.3551
  720POPI   C3A 9737  16.378   1.900   6.891 -0.0476  0.2634 -0.2144
  720POPI   C4A 9738  16.231   1.582   7.235 -0.0336  0.1451 -0.1232
  720POPI   C1B 9739  15.819   2.160   6.500 -0.0225 -0.0146 -0.0605
  720POPI   C2B 9740  16.048   2.364   6.931 -0.1997  0.2311 -0.1140
  720POPI   C3B 9741  15.780   2.600   7.224 -0.0912  0.0236 -0.0787
  720POPI   C4B 9742  15.570   2.860   7.526 -0.0780  0.0836 -0.0569
  721POPI    C1 9743   5.888  13.142   5.884  0.0194  0.0894  0.0906
  721POPI    C2 9744   5.666  13.423   5.706  0.2103  0.0202 -0.2665
  721POPI    C3 9745   5.489  13.121   5.899  0.0007  0.1735 -0.2152
  721POPI   PO4 9746   6.117  13.172   5.730  0.0487 -0.1335 -0.2389
  721POPI   GL1 9747   6.167  13.650   5.782  0.0111  0.2197 -0.3188
  721POPI   GL2 9748   5.892  13.862   5.875 -0.0130 -0.1853  0.2211
  721POPI   C1A 9749   6.163  13.667   6.211 -0.4008  0.1946 -0.1484
  721POPI   D2A 9750   6.265  13.837   6.692 -0.1543  0.2422 -0.1371
  721POPI   C3A 9751   6.069  13.545   7.017  0.1159 -0.1073 -0.2096
  721POPI   C4A 9752   6.168  13.194   7.369 -0.0215  0.1100  0.0814
  721POPI   C1B 9753   6.085  14.244   6.064  0.2307 -0.2257 -0.0206
  721POPI   C2B 9754   6.195  14.274   6.419  0.0817 -0.0673 -0.1303
  721POPI   C3B 9755   6.330  14.335   6.807  0.0634 -0.0009 -0.0069
  721POPI   C4B 9756   6.445  14.126   7.246  0.0828  0.1116 -0.1308
  722POPI    C1 9757  11.631   1.016   5.608  0.0575  0.2912  0.0630
  722POPI    C2 9758  11.979   0.819   5.625 -0.1690 -0.1203  0.0698
  722POPI    C3 9759  11.883   1.027   5.297 -0.0361 -0.2325 -0.0422
  722POPI   PO4 9760  11.792   1.159   5.944  0.5064 -0.0966  0.1377
  722POPI   GL1 9761  11.957   0.891   6.306 -0.1640 -0.2721  0.2972
  722POPI   GL2 9762  11.570   1.020   6.462  0.1763  0.1425 -0.3830
  722POPI   C1A 9763  12.083   1.080   6.675  0.2863  0.1627 -0.1365
  722POPI   D2A 9764  12.030   1.266   7.011 -0.3967 -0.1261 -0.0503
  722POPI   C3A 9765  12.081   1.001   7.435 -0.1374  0.2583 -0.1310
  722POPI   C4A 9766  12.148   0.900   7.917 -0.0924  0.1657 -0.1473
  722POPI   C1B 9767  11.491   1.031   6.951  0.1548 -0.3402 -0.0100
  722POPI   C2B 9768  11.557   1.130   7.290  0.1002  0.1967  0.0051
  722POPI   C3B 9769  11.425   1.061   7.755  0.1388  0.2439  0.1893
  722POPI   C4B 9770  11.712   0.731   8.060  0.2705 -0.1203 -0.0582
  723POPI    C1 9771   2.596  11.116   5.985 -0.1505  0.0503  0.0784
  723POPI    C2 9772   2.307  11.315   5.793 -0.1569 -0.0586 -0.0261
  723POPI    C3 9773   2.613  11.159   5.588 -0.0818 -0.0404  0.0713
  723POPI   PO4 9774   2.475  11.232   6.275  0.1990 -0.1115 -0.1580
  723POPI   GL1 9775   2.320  11.252   6.661 -0.1019 -0.3818  0.3505
  723POPI   GL2 9776   1.974  11.475   6.552 -0.3240 -0.3762  0.3655
  723POPI   C1A 9777   2.444  11.179   7.047 -0.0684  0.3227 -0.1459
  723POPI   D2A 9778   2.496  11.157   7.450 -0.1826 -0.0127  0.0325
  723POPI   C3A 9779   2.637  10.796   7.733  0.0374  0.2668  0.2665
  723POPI   C4A 9780   2.908  10.522   7.884  0.4010  0.0354 -0.1403
  723POPI   C1B 9781   1.922  11.231   6.910 -0.2092 -0.3589 -0.1114
  723POPI   C2B 9782   1.863  11.297   7.326  0.0607  0.1524 -0.3402
  723POPI   C3B 9783   1.741  11.368   7.801  0.0264  0.2180 -0.0144
  723POPI   C4B 9784   1.688  11.044   8.092 -0.1295 -0.0269  0.0355
  724POPI    C1 9785   7.868  16.063   5.591  0.1207 -0.0350  0.1934
  724POPI    C2 9786   7.779  16.438   5.696 -0.0369 -0.0597  0.1493
  724POPI    C3 9787   8.128  16.358   5.519 -0.1108  0.1073 -0.0760
  724POPI   PO4 9788   7.876  15.930   5.848  0.3596  0.0320 -0.0432
  724POPI   GL1 9789   8.168  15.692   6.196  0.3156  0.0629  0.1559
  724POPI   GL2 9790   8.062  15.901   6.399 -0.1314  0.1958 -0.0716
  724POPI   C1A 9791   8.076  15.332   6.359  0.0631  0.1718  0.3134
  724POPI   D2A 9792   7.914  15.213   6.787 -0.0052  0.2419  0.1181
  724POPI   C3A 9793   7.984  14.843   6.928 -0.1368  0.3427 -0.1078
  724POPI   C4A 9794   8.114  14.469   6.962  0.1323  0.0906 -0.2955
  724POPI   C1B 9795   8.081  15.816   6.803  0.4055 -0.1897 -0.1745
  724POPI   C2B 9796   7.953  15.750   7.186 -0.2557  0.1001 -0.0447
  724POPI   C3B 9797   7.646  15.841   7.491  0.0056  0.1635 -0.0693
  724POPI   C4B 9798   7.555  15.665   7.798  0.1909 -0.0350 -0.0668
  725POPI    C1 9799   4.680   3.361   5.504  0.1529  0.1234  0.0381
  725POPI    C2 9800   4.898   3.028   5.535 -0.2128 -0.1172  0.0949
  725POPI    C3 9801   4.944   3.269   5.219 -0.0315 -0.2837 -0.0077
  725POPI   PO4 9802   4.743   3.450   5.771  0.0600 -0.1334  0.0934
  725POPI   GL1 9803   4.558   3.277   6.187  0.1862 -0.0371  0.0465
  725POPI   GL2 9804   4.247   3.232   6.266  0.0401 -0.1357  0.0889
  725POPI   C1A 9805   4.859   3.116   6.438  0.0230  0.2195 -0.0546
  725POPI   D2A 9806   5.077   2.865   6.766  0.0872 -0.0922  0.3101
  725POPI   C3A 9807   5.137   2.895   7.194  0.3186  0.0519 -0.0187
  725POPI   C4A 9808   5.241   2.545   7.390 -0.1536  0.0776 -0.3171
  725POPI   C1B 9809   4.102   3.293   6.704 -0.1299  0.1214  0.2268
  725POPI   C2B 9810   3.846   3.295   7.076  0.4675 -0.0021 -0.0760
  725POPI   C3B 9811   3.661   3.377   7.464  0.1110 -0.1216  0.2610
  725POPI   C4B 9812   3.758   3.505   7.887 -0.0011 -0.2627 -0.1679
  726POPI    C1 9813   1.032  11.999   5.430 -0.1039 -0.0986  0.2488
  726POPI    C2 9814   1.416  11.945   5.331 -0.0993 -0.0211  0.2241
  726POPI    C3 9815   1.225  12.278   5.218 -0.2455 -0.1724  0.0192
  726POPI   PO4 9816   0.968  11.996   5.687  0.4465  0.0050  0.2331
  726POPI   GL1 9817   1.232  12.096   6.150 -0.0817 -0.0314  0.1080
  726POPI   GL2 9818   0.934  11.947   6.400 -0.1795 -0.0741 -0.0613
  726POPI   C1A 9819   1.383  12.094   6.604 -0.2362 -0.1492 -0.1629
  726POPI   D2A 9820   1.277  12.174   6.930  0.1373  0.3549 -0.0551
  726POPI   C3A 9821   1.389  11.931   7.323  0.0232 -0.0143 -0.2813
  726POPI   C4A 9822   1.783  11.762   7.280 -0.1891 -0.3697 -0.2957
  726POPI   C1B 9823   0.946  11.794   6.825  0.3808 -0.2208 -0.1991
  726POPI   C2B 9824   0.954  11.720   7.214  0.1853 -0.4338 -0.0092
  726POPI   C3B 9825   0.862  11.839   7.672  0.1747  0.2096 -0.2005
  726POPI   C4B 9826   0.546  11.686   7.903 -0.0496 -0.0788  0.1580
  727POPI    C1 9827   3.738  10.607   5.975  0.0164 -0.0607  0.0842
  727POPI    C2 9828   3.782  10.243   6.136 -0.0069  0.0070  0.2455
  727POPI    C3 9829   4.040  10.372   5.859 -0.0921 -0.1947  0.0696
  727POPI   PO4 9830   3.681  10.785   6.217 -0.0803 -0.3834  0.1465
  727POPI   GL1 9831   3.637  10.630   6.607  0.1691 -0.0531 -0.0987
  727POPI   GL2 9832   3.622  10.382   6.581 -0.0844  0.0013  0.1210
  727POPI   C1A 9833   4.112  10.492   6.734 -0.0978  0.0415  0.2544
  727POPI   D2A 9834   4.434  10.261   7.139 -0.0111  0.5196 -0.0481
  727POPI   C3A 9835   4.346   9.862   7.137  0.1035  0.2843  0.0540
  727POPI   C4A 9836   4.013   9.576   7.232  0.1872  0.1980  0.1547
  727POPI   C1B 9837   3.455  10.068   6.879 -0.2856  0.2117  0.2098
  727POPI   C2B 9838   3.172   9.929   7.090 -0.2975 -0.2137 -0.2550
  727POPI   C3B 9839   3.115  10.021   7.460 -0.2188 -0.0666  0.2785
  727POPI   C4B 9840   3.265   9.813   7.830 -0.2055  0.2945  0.3047
  728POPI    C1 9841   9.436   0.468   5.973 -0.0669 -0.0109 -0.0564
  728POPI    C2 9842   9.377   0.093   5.845 -0.0674 -0.0401  0.0287
  728POPI    C3 9843   9.166   0.394   5.687 -0.0591 -0.0743 -0.0476
  728POPI   PO4 9844   9.458   0.450   6.232  0.1594 -0.0818 -0.0394
  728POPI   GL1 9845   9.441   0.410   6.639 -0.1936  0.1466  0.1518
  728POPI   GL2 9846   9.432   0.749   6.681  0.0321  0.3091 -0.2203
  728POPI   C1A 9847   9.191   0.335   6.967  0.1416 -0.1387 -0.0951
  728POPI   D2A 9848   8.988   0.195   7.360  0.0237 -0.1691 -0.0957
  728POPI   C3A 9849   8.958   0.452   7.739  0.1444  0.0024  0.3346
  728POPI   C4A 9850   9.267   0.630   8.031  0.2964 -0.3276  0.3582
  728POPI   C1B 9851   9.601   0.697   7.160 -0.5718 -0.1852 -0.0748
  728POPI   C2B 9852   9.741   0.296   6.989  0.0809 -0.2771 -0.3108
  728POPI   C3B 9853   9.970   0.137   6.667 -0.1202 -0.1990 -0.3132
  728POPI   C4B 9854  10.415   0.169   6.601  0.2347  0.0196 -0.0098
  729POPI    C1 9855  15.163   4.873   5.704 -0.3784  0.2930  0.0531
  729POPI    C2 9856  15.056   4.697   6.047  0.1360  0.0641  0.1065
  729POPI    C3 9857  14.856   4.616   5.710  0.0895 -0.2860  0.2142
  729POPI   PO4 9858  15.421   5.042   5.881 -0.1986  0.6222  0.0166
  729POPI   GL1 9859  15.470   4.999   6.261  0.2113 -0.0262  0.2085
  729POPI   GL2 9860  15.758   4.902   6.298  0.0569  0.1558  0.2415
  729POPI   C1A 9861  15.609   5.358   6.634  0.0350  0.0825 -0.1369
  729POPI   D2A 9862  15.716   5.715   6.985  0.0890 -0.1449 -0.2993
  729POPI   C3A 9863  15.916   5.533   7.281 -0.1775 -0.0319 -0.2450
  729POPI   C4A 9864  16.258   5.349   7.391  0.1388  0.0782 -0.1344
  729POPI   C1B 9865  15.494   4.884   6.708 -0.0551  0.0063 -0.1143
  729POPI   C2B 9866  15.282   4.674   6.982  0.1832  0.1958  0.0235
  729POPI   C3B 9867  15.618   4.481   7.384  0.0199  0.1332  0.0649
  729POPI   C4B 9868  15.815   4.359   7.659  0.1237 -0.1849  0.0700
  730POPI    C1 9869   1.480   5.285   5.793 -0.0719 -0.1429 -0.2817
  730POPI    C2 9870   1.794   5.500   5.918 -0.1824 -0.1482  0.0156
  730POPI    C3 9871   1.838   5.232   5.623  0.0054  0.1205 -0.2057
  730POPI   PO4 9872   1.199   5.530   5.815 -0.1516 -0.2376  0.0608
  730POPI   GL1 9873   0.924   5.854   6.162  0.3420 -0.1113  0.2212
  730POPI   GL2 9874   1.133   6.084   6.288 -0.1475  0.3613  0.3001
  730POPI   C1A 9875   0.487   5.826   6.356  0.0260 -0.1840 -0.1723
  730POPI   D2A 9876   0.246   5.765   6.719  0.2737  0.0429 -0.3247
  730POPI   C3A 9877   0.027   5.949   6.970  0.0544 -0.1037  0.0760
  730POPI   C4A 9878  -0.331   6.283   7.068  0.1153 -0.1510 -0.2290
  730POPI   C1B 9879   1.390   6.124   6.637 -0.2288 -0.1561 -0.0172
  730POPI   C2B 9880   1.400   5.923   7.048 -0.1532  0.0653 -0.1135
  730POPI   C3B 9881   1.371   5.894   7.462 -0.1270  0.0665 -0.0783
  730POPI   C4B 9882   1.208   5.452   7.557 -0.1459 -0.1029  0.2622
  731POPI    C1 9883   0.739  10.384   5.843  0.0195  0.0661  0.1884
  731POPI    C2 9884   0.999  10.546   5.586 -0.5049  0.0399 -0.3814
  731POPI    C3 9885   0.900  10.741   5.921 -0.0774  0.2400 -0.3652
  731POPI   PO4 9886   0.819  10.053   5.861  0.1009  0.0393  0.2389
  731POPI   GL1 9887   1.133  10.161   6.160  0.0445  0.0028 -0.0322
  731POPI   GL2 9888   0.907   9.907   6.334  0.2093 -0.0050 -0.1605
  731POPI   C1A 9889   0.881  10.445   6.304  0.4080 -0.2975  0.1200
  731POPI   D2A 9890   0.592  10.629   6.626  0.1864 -0.1773 -0.0250
  731POPI   C3A 9891   0.609  10.673   7.069 -0.1789  0.2543 -0.1030
  731POPI   C4A 9892   0.679  10.354   7.292  0.0811  0.0894  0.1138
  731POPI   C1B 9893   0.803  10.207   6.806  0.1931 -0.1694  0.2145
  731POPI   C2B 9894   1.029  10.021   7.152  0.0653  0.1004 -0.1639
  731POPI   C3B 9895   1.049  10.104   7.593 -0.1232  0.1712  0.0770
  731POPI   C4B 9896   0.922  10.291   7.977 -0.0216 -0.1048 -0.0113
  732POPI    C1 9897  12.188   3.294   5.316  0.1226  0.0281 -0.0878
  732POPI    C2 9898  12.441   3.441   5.044  0.1426  0.0632 -0.0503
  732POPI    C3 9899  12.051   3.527   5.021  0.1555  0.1299 -0.0232
  732POPI   PO4 9900  12.365   3.303   5.557  0.3224 -0.0749 -0.0336
  732POPI   GL1 9901  12.375   3.557   5.939  0.3069 -0.0377 -0.0697
  732POPI   GL2 9902  12.542   3.925   5.923 -0.1459  0.1571 -0.0785
  732POPI   C1A 9903  12.728   3.597   6.285 -0.0492 -0.2131 -0.0497
  732POPI   D2A 9904  12.707   3.757   6.711 -0.2072 -0.0625  0.0222
  732POPI   C3A 9905  12.782   3.573   7.077  0.1093 -0.2119  0.1371
  732POPI   C4A 9906  12.638   3.316   7.507  0.0567 -0.2092  0.1990
  732POPI   C1B 9907  12.325   4.038   6.338  0.2541  0.1018 -0.0274
  732POPI   C2B 9908  12.060   4.142   6.758  0.2234 -0.2302  0.0610
  732POPI   C3B 9909  11.637   3.953   6.697  0.3734  0.3011 -0.3447
  732POPI   C4B 9910  11.501   3.679   7.088  0.1707  0.0002  0.5631
  733POPI    C1 9911   0.444   8.040   5.505 -0.0123  0.0750  0.0114
  733POPI    C2 9912   0.260   7.688   5.559 -0.1288  0.1776  0.3021
  733POPI    C3 9913   0.190   7.902   5.228  0.3245 -0.2997 -0.1214
  733POPI   PO4 9914   0.392   8.180   5.676 -0.0456 -0.0970 -0.0501
  733POPI   GL1 9915   0.552   8.171   6.042 -0.2289 -0.3900  0.0017
  733POPI   GL2 9916   0.539   8.618   5.938 -0.0001  0.1601  0.0397
  733POPI   C1A 9917   0.506   7.826   6.228  0.2449 -0.4856 -0.0292
  733POPI   D2A 9918   0.481   7.367   6.501 -0.2370  0.1768  0.0530
  733POPI   C3A 9919   0.280   7.394   6.980  0.1381 -0.1989  0.1774
  733POPI   C4A 9920   0.126   7.530   7.349 -0.2476 -0.0382 -0.1087
  733POPI   C1B 9921   0.619   8.991   6.331  0.2054 -0.3469  0.2393
  733POPI   C2B 9922   0.508   9.215   6.760  0.0705 -0.0704  0.0291
  733POPI   C3B 9923   0.659   9.512   7.187 -0.0023  0.1885  0.4276
  733POPI   C4B 9924   1.035   9.565   7.419 -0.0075  0.0454 -0.1262
  734POPI    C1 9925   2.065  14.403   5.757 -0.1676  0.2390  0.0456
  734POPI    C2 9926   2.089  14.394   5.358  0.0871 -0.0939  0.0639
  734POPI    C3 9927   1.810  14.178   5.546  0.0027  0.0195  0.0695
  734POPI   PO4 9928   2.290  14.388   5.900  0.0089  0.4384 -0.1537
  734POPI   GL1 9929   2.365  14.215   6.252  0.0486 -0.0499  0.1727
  734POPI   GL2 9930   2.623  14.247   6.400  0.0892 -0.0541 -0.0562
  734POPI   C1A 9931   2.043  14.193   6.618  0.0164 -0.0818 -0.0999
  734POPI   D2A 9932   1.889  14.590   6.741 -0.2017 -0.0427 -0.0308
  734POPI   C3A 9933   1.946  14.663   7.178 -0.0264  0.0465  0.2825
  734POPI   C4A 9934   1.744  14.801   7.425 -0.1328  0.1872 -0.0854
  734POPI   C1B 9935   2.499  14.193   6.855 -0.1718 -0.2082  0.1398
  734POPI   C2B 9936   2.247  14.204   7.214  0.2381  0.1219 -0.0299
  734POPI   C3B 9937   2.327  14.307   7.520 -0.3328  0.3172 -0.2159
  734POPI   C4B 9938   2.029  14.507   7.781  0.1853 -0.0212  0.0153
  735POPI    C1 9939   1.044  17.799   5.864 -0.0495 -0.4280 -0.0192
  735POPI    C2 9940   0.811  17.783   5.539 -0.0072 -0.0751 -0.0703
  735POPI    C3 9941   0.683  17.971   5.868  0.1375 -0.0233 -0.0425
  735POPI   PO4 9942   1.356  17.802   5.763 -0.0413 -0.5034 -0.2085
  735POPI   GL1 9943   1.384  17.555   6.197  0.1363  0.1462  0.2706
  735POPI   GL2 9944   1.669  17.447   6.425 -0.2286 -0.3799 -0.0960
  735POPI   C1A 9945   1.314  17.775   6.658  0.4581  0.1737  0.0443
  735POPI   D2A 9946   1.046  17.980   6.937  0.0310  0.2750  0.0786
  735POPI   C3A 9947   1.047  17.838   7.285 -0.0435 -0.0586 -0.1637
  735POPI   C4A 9948   0.915  17.680   7.679 -0.0206  0.1292  0.0531
  735POPI   C1B 9949   1.832  17.183   6.684  0.1185  0.2719 -0.2629
  735POPI   C2B 9950   1.771  16.934   7.107  0.2730  0.1004  0.4523
  735POPI   C3B 9951   1.482  16.973   7.468  0.1477  0.1647  0.1227
  735POPI   C4B 9952   1.373  16.861   7.834 -0.2600  0.4620  0.1403
  736POPI    C1 9953   8.700   0.679   6.053 -0.1063  0.2431  0.1844
  736POPI    C2 9954   8.670   1.077   6.084  0.0339  0.2808 -0.1264
  736POPI    C3 9955   8.621   0.900   5.729  0.2758  0.0488 -0.0471
  736POPI   PO4 9956   8.593   0.504   6.288 -0.2107  0.1085 -0.2953
  736POPI   GL1 9957   8.813   0.399   6.584  0.2382 -0.0556  0.0259
  736POPI   GL2 9958   8.747   0.770   6.663 -0.0568  0.3337  0.1470
  736POPI   C1A 9959   8.676   0.427   7.058 -0.1140 -0.2138  0.0179
  736POPI   D2A 9960   8.451   0.322   7.416  0.0667  0.0184  0.0471
  736POPI   C3A 9961   8.497   0.307   7.872  0.1297  0.0547 -0.0637
  736POPI   C4A 9962   8.783   0.236   8.183  0.0479 -0.1346 -0.1401
  736POPI   C1B 9963   9.028   0.834   6.972  0.1564  0.0682  0.0314
  736POPI   C2B 9964   9.135   0.695   7.321 -0.3119  0.3776  0.2453
  736POPI   C3B 9965   9.416   0.359   7.542  0.2178  0.3570  0.0155
  736POPI   C4B 9966   9.852   0.064   7.586  0.1056 -0.0348 -0.0681
  737POPI    C1 9967   7.038  12.135   5.306  0.1089  0.0970  0.0404
  737POPI    C2 9968   7.398  11.987   5.214 -0.0989 -0.4299  0.0355
  737POPI    C3 9969   7.126  12.043   4.926  0.0069  0.0694  0.0230
  737POPI   PO4 9970   7.206  12.255   5.610 -0.1362  0.2134 -0.1240
  737POPI   GL1 9971   7.361  12.122   5.912 -0.2187 -0.1535  0.0349
  737POPI   GL2 9972   7.095  12.160   6.104  0.3166 -0.2984  0.0880
  737POPI   C1A 9973   7.489  12.370   6.364 -0.0741 -0.0045 -0.3196
  737POPI   D2A 9974   7.450  12.699   6.572  0.2480  0.3067 -0.0489
  737POPI   C3A 9975   7.386  13.188   6.676  0.4121 -0.1057  0.3103
  737POPI   C4A 9976   7.532  13.232   7.182  0.0153  0.1001  0.0018
  737POPI   C1B 9977   6.968  12.433   6.418 -0.1199 -0.0656 -0.1062
  737POPI   C2B 9978   6.620  12.379   6.746  0.1491  0.2768  0.0509
  737POPI   C3B 9979   6.740  12.480   7.178 -0.2300  0.1264  0.0339
  737POPI   C4B 9980   6.560  12.875   7.228  0.0226  0.2046 -0.2038
  738POPI    C1 9981  15.469   0.799   5.718  0.2557  0.0588  0.1584
  738POPI    C2 9982  15.100   0.650   5.767  0.3089 -0.0548  0.2177
  738POPI    C3 9983  15.156   0.976   5.541  0.2051 -0.1901 -0.0061
  738POPI   PO4 9984  15.550   0.584   5.967  0.5476  0.2836  0.2144
  738POPI   GL1 9985  15.659   0.428   6.268 -0.1007 -0.1839 -0.0472
  738POPI   GL2 9986  15.572   0.153   6.197 -0.1022 -0.2130  0.0871
  738POPI   C1A 9987  15.667   0.332   6.749  0.3784  0.0680  0.0108
  738POPI   D2A 9988  15.741   0.442   7.168 -0.2674  0.0284 -0.0645
  738POPI   C3A 9989  15.683   0.873   7.342 -0.0851 -0.0752 -0.1747
  738POPI   C4A 9990  15.649   1.195   7.522  0.2439 -0.1896  0.2114
  738POPI   C1B 9991  15.605  -0.150   6.584 -0.1259  0.1829 -0.4137
  738POPI   C2B 9992  15.889  -0.055   6.927 -0.0026 -0.0379 -0.0992
  738POPI   C3B 9993  15.731  -0.215   7.292 -0.0046  0.0630  0.2310
  738POPI   C4B 9994  15.784  -0.442   7.705  0.2755 -0.2247 -0.2711
  739POPI    C1 9995   9.131  13.193   5.364 -0.2690  0.3785 -0.1063
  739POPI    C2 9996   9.107  13.291   4.977 -0.2341 -0.2508 -0.2780
  739POPI    C3 9997   8.894  12.983   5.120 -0.0820 -0.1605  0.1592
  739POPI   PO4 9998   9.133  13.353   5.497 -0.0979  0.0206 -0.2217
  739POPI   GL1 9999   9.286  13.667   5.823 -0.0086  0.1077  0.3086
  739POPI   GL210000   9.606  13.619   5.768 -0.3811  0.2525 -0.0628
  739POPI   C1A10001   9.298  14.124   5.992 -0.2447 -0.4009  0.2485
  739POPI   D2A10002   9.203  14.383   6.139 -0.0115 -0.0848 -0.2340
  739POPI   C3A10003   9.211  14.220   6.579 -0.1037  0.2301  0.4210
  739POPI   C4A10004   9.346  14.315   6.919 -0.0496  0.1025 -0.1070
  739POPI   C1B10005  10.041  13.818   5.813 -0.3244 -0.0649  0.0357
  739POPI   C2B10006  10.507  14.035   5.883 -0.1177 -0.2763  0.0794
  739POPI   C3B10007  10.903  14.195   5.738 -0.0843 -0.0254 -0.0126
  739POPI   C4B10008  11.059  14.463   5.483  0.2721 -0.1148  0.1596
  740POPI    C110009  16.932  12.746   5.853 -0.0389 -0.0145  0.0980
  740POPI    C210010  17.201  12.694   5.562  0.1815  0.3339  0.2335
  740POPI    C310011  16.810  12.673   5.478  0.2444 -0.0729  0.0152
  740POPI   PO410012  17.096  12.810   6.055  0.1536  0.2638  0.1108
  740POPI   GL110013  17.501  12.526   6.293 -0.1782  0.2969  0.1263
  740POPI   GL210014  17.228  12.488   6.388 -0.0325  0.1869  0.0382
  740POPI   C1A10015  17.479  12.673   6.746 -0.0710  0.0628 -0.0481
  740POPI   D2A10016  17.500  12.676   7.157 -0.0611 -0.0557  0.1869
  740POPI   C3A10017  17.532  12.576   7.574  0.0609 -0.1751  0.3026
  740POPI   C4A10018  17.412  12.704   7.946  0.2928  0.1291  0.0867
  740POPI   C1B10019  17.006  12.561   6.761  0.0340 -0.0617 -0.2231
  740POPI   C2B10020  16.655  12.511   6.937 -0.1413 -0.1311 -0.0134
  740POPI   C3B10021  16.551  12.358   7.345 -0.3947 -0.2405  0.1267
  740POPI   C4B10022  16.448  11.994   7.395  0.0377 -0.0771  0.1388
  741POPI    C110023   7.177   5.596   5.487  0.1132 -0.2485 -0.0245
  741POPI    C210024   7.001   5.284   5.664  0.0477 -0.0777  0.2160
  741POPI    C310025   6.815   5.477   5.368  0.0303 -0.1825  0.1581
  741POPI   PO410026   7.229   5.768   5.675  0.4114  0.0038 -0.0645
  741POPI   GL110027   7.480   6.141   5.854 -0.2560  0.1578 -0.0559
  741POPI   GL210028   7.634   6.021   6.131  0.1971  0.2579  0.4060
  741POPI   C1A10029   7.190   6.317   6.137 -0.0158 -0.0783  0.1051
  741POPI   D2A10030   7.033   6.339   6.545  0.2991 -0.1356  0.0176
  741POPI   C3A10031   7.056   6.561   6.986 -0.4287  0.3144 -0.0390
  741POPI   C4A10032   6.748   6.762   7.045  0.1816  0.0194 -0.0803
  741POPI   C1B10033   7.417   5.989   6.526 -0.0944 -0.0341  0.0715
  741POPI   C2B10034   7.281   6.062   6.979  0.0508  0.1904  0.2185
  741POPI   C3B10035   7.018   6.067   7.402  0.0007  0.4425 -0.1480
  741POPI   C4B10036   6.770   6.440   7.461  0.3271  0.0401 -0.1340
  742POPS   CNO10037  10.062   4.706   4.856  0.2299  0.4142  0.1565
  742POPS   PO410038   9.762   4.754   5.204 -0.2528 -0.2585 -0.1122
  742POPS   GL110039   9.766   4.918   5.682 -0.1298 -0.0194  0.1695
  742POPS   GL210040   9.908   4.638   5.899  0.3828  0.0977  0.0173
  742POPS   C1A10041  10.067   5.109   5.929  0.0843 -0.0400 -0.1711
  742POPS   D2A10042  10.479   4.952   6.101 -0.1370  0.1361  0.0679
  742POPS   C3A10043  10.540   4.855   6.539 -0.0736  0.0703 -0.1553
  742POPS   C4A10044  10.484   4.652   6.993  0.2399 -0.1382 -0.1177
  742POPS   C1B10045  10.138   4.571   6.366 -0.0695  0.0332 -0.0238
  742POPS   C2B10046  10.250   4.278   6.734 -0.2617 -0.4685  0.0802
  742POPS   C3B10047  10.305   4.062   7.140 -0.1084  0.0173 -0.2993
  742POPS   C4B10048  10.176   3.903   7.460  0.1565 -0.2382  0.0518
  743POPS   CNO10049  17.998  15.294   5.541 -0.2279  0.0606 -0.2443
  743POPS   PO410050  18.346  15.682   5.671  0.3007 -0.2797 -0.5258
  743POPS   GL110051  18.371  15.771   6.110 -0.0242  0.1153  0.0023
  743POPS   GL210052  18.645  15.517   6.194 -0.2269  0.0716 -0.1381
  743POPS   C1A10053  18.054  15.882   6.424  0.4688  0.0493 -0.0404
  743POPS   D2A10054  17.837  15.904   6.789 -0.0403 -0.3097  0.5062
  743POPS   C3A10055  18.093  15.996   7.166 -0.2292  0.4536  0.1834
  743POPS   C4A10056  18.235  16.242   7.493 -0.1716  0.0069  0.1470
  743POPS   C1B10057  18.681  15.099   6.339 -0.0314  0.0173 -0.0063
  743POPS   C2B10058  18.657  14.794   6.598 -0.0003  0.0204 -0.0565
  743POPS   C3B10059  18.812  14.704   7.017 -0.1525  0.1911  0.0831
  743POPS   C4B10060  19.138  14.553   7.325  0.1015 -0.0492 -0.1643
  744POPS   CNO10061   0.600   3.991   5.098  0.0059 -0.1041  0.3677
  744POPS   PO410062   0.405   3.891   5.476 -0.1166  0.0988 -0.0988
  744POPS   GL110063   0.269   3.972   5.878 -0.0788 -0.1572  0.1750
  744POPS   GL210064   0.248   4.326   5.916 -0.3303 -0.1878  0.0737
  744POPS   C1A10065   0.216   3.728   6.325  0.2760  0.0648 -0.0050
  744POPS   D2A10066   0.003   3.606   6.738 -0.2098  0.1166 -0.2826
  744POPS   C3A10067   0.101   3.635   7.202 -0.0906  0.2164  0.3742
  744POPS   C4A10068   0.203   3.898   7.533 -0.2479 -0.0925 -0.3106
  744POPS   C1B10069   0.097   4.528   6.370  0.1280  0.5053  0.2844
  744POPS   C2B10070   0.180   4.583   6.870 -0.2681  0.0821 -0.1765
  744POPS   C3B10071   0.397   4.307   7.276  0.1876 -0.1748  0.0983
  744POPS   C4B10072   0.514   4.296   7.633  0.0182  0.1574 -0.1553
  745POPS   CNO10073   0.238   6.205   5.303 -0.2537  0.0534  0.1057
  745POPS   PO410074   0.181   6.493   5.718  0.2976  0.5263  0.0885
  745POPS   GL110075  -0.103   6.331   6.018  0.1009  0.2025 -0.2007
  745POPS   GL210076  -0.208   6.069   6.049 -0.1633  0.1950  0.2196
  745POPS   C1A10077  -0.155   6.253   6.553  0.0301  0.1407  0.2474
  745POPS   D2A10078   0.174   6.445   6.935  0.0812 -0.2925 -0.0944
  745POPS   C3A10079   0.477   6.079   7.128 -0.1242  0.2604  0.0904
  745POPS   C4A10080   0.503   5.655   7.133  0.2172 -0.1607  0.0620
  745POPS   C1B10081  -0.228   5.746   6.405  0.0182  0.0437  0.1395
  745POPS   C2B10082  -0.333   5.622   6.761  0.0630  0.1740  0.2222
  745POPS   C3B10083  -0.438   5.680   7.156 -0.1258 -0.1645  0.2280
  745POPS   C4B10084  -0.365   5.947   7.429  0.0204  0.3195  0.2532
  746POPS   CNO10085  12.155   7.684   5.041  0.0321  0.0134 -0.1298
  746POPS   PO410086  11.885   7.736   5.241  0.0897 -0.2685  0.1263
  746POPS   GL110087  11.828   7.814   5.621 -0.2660  0.0113 -0.1852
  746POPS   GL210088  11.846   8.185   5.667  0.1760 -0.1073 -0.0084
  746POPS   C1A10089  11.851   7.727   5.973  0.0678  0.3088 -0.1461
  746POPS   D2A10090  11.564   7.679   6.404  0.1269  0.0223  0.0187
  746POPS   C3A10091  11.546   7.429   6.839  0.1134 -0.0436  0.0558
  746POPS   C4A10092  11.534   7.545   7.241  0.0481  0.0796  0.4440
  746POPS   C1B10093  11.818   8.512   5.913 -0.2477  0.0843  0.0333
  746POPS   C2B10094  11.860   8.634   6.287 -0.0629 -0.2455  0.0248
  746POPS   C3B10095  11.924   8.610   6.750  0.1528 -0.0243 -0.0724
  746POPS   C4B10096  12.225   8.541   7.061 -0.0823  0.3495  0.0500
  747POPS   CNO10097   2.523  18.279   5.554 -0.0043 -0.0326 -0.0007
  747POPS   PO410098   2.571  18.242   5.963  0.2232  0.2815  0.2773
  747POPS   GL110099   2.711  18.202   6.356  0.0742 -0.1469  0.1567
  747POPS   GL210100   2.566  17.899   6.514  0.3857  0.1959 -0.1878
  747POPS   C1A10101   2.690  18.302   6.795 -0.0652  0.1684 -0.0771
  747POPS   D2A10102   2.514  18.117   7.183  0.0839 -0.3715  0.1075
  747POPS   C3A10103   2.424  18.231   7.570  0.1145  0.1220  0.1172
  747POPS   C4A10104   2.665  18.168   7.828  0.0393  0.0524 -0.2393
  747POPS   C1B10105   2.424  17.689   6.869 -0.1399  0.2081 -0.0590
  747POPS   C2B10106   2.284  17.688   7.241 -0.1008 -0.0063 -0.0406
  747POPS   C3B10107   1.975  17.420   7.366 -0.0248  0.1366  0.1220
  747POPS   C4B10108   1.801  17.227   7.778 -0.0575 -0.2901  0.1469
  748POPS   CNO10109   3.277  17.616   5.652 -0.0915 -0.0380  0.0842
  748POPS   PO410110   3.397  17.803   5.933 -0.0482  0.0808  0.0400
  748POPS   GL110111   3.460  17.487   6.218  0.2520  0.1291 -0.3292
  748POPS   GL210112   3.746  17.352   6.182 -0.1877 -0.1990 -0.2688
  748POPS   C1A10113   3.485  17.469   6.600  0.2487 -0.0575 -0.2284
  748POPS   D2A10114   3.236  17.391   6.943 -0.0800 -0.0751 -0.3527
  748POPS   C3A10115   3.635  17.360   7.259 -0.0377  0.0537  0.2094
  748POPS   C4A10116   3.819  17.589   7.578 -0.1125  0.1485  0.2445
  748POPS   C1B10117   3.684  17.022   6.433  0.1577 -0.2693  0.3320
  748POPS   C2B10118   3.813  16.663   6.755  0.3190 -0.0065  0.0450
  748POPS   C3B10119   3.771  16.555   7.191 -0.2003  0.3098  0.4574
  748POPS   C4B10120   3.550  16.400   7.396 -0.0354  0.3093  0.0091
  749POPS   CNO10121  17.317   4.826   5.088  0.1909  0.1608  0.0054
  749POPS   PO410122  17.497   4.660   5.438  0.0755 -0.3955 -0.2213
  749POPS   GL110123  17.275   4.728   5.862  0.1744 -0.0998  0.0235
  749POPS   GL210124  17.201   4.491   5.964  0.1750 -0.3196  0.2561
  749POPS   C1A10125  17.447   5.044   6.137 -0.2321  0.4150  0.0155
  749POPS   D2A10126  17.650   5.229   6.453 -0.2732 -0.1811  0.1162
  749POPS   C3A10127  17.944   4.933   6.690 -0.1746 -0.0898 -0.0866
  749POPS   C4A10128  18.067   4.574   6.747  0.1412 -0.0633 -0.0065
  749POPS   C1B10129  17.156   4.487   6.325 -0.0423 -0.3388 -0.4010
  749POPS   C2B10130  16.989   4.416   6.810  0.1088 -0.1421 -0.0914
  749POPS   C3B10131  16.939   4.285   7.299 -0.2773 -0.2750  0.0965
  749POPS   C4B10132  16.951   4.508   7.649  0.0201  0.2951  0.1264
  750POPS   CNO10133   2.246  11.903   5.777  0.3652  0.0823 -0.0216
  750POPS   PO410134   2.305  11.712   6.225 -0.2325 -0.1476 -0.1992
  750POPS   GL110135   2.505  11.756   6.686 -0.2986 -0.0619  0.1992
  750POPS   GL210136   2.756  11.558   6.625  0.3122  0.0859 -0.3580
  750POPS   C1A10137   2.615  11.656   7.136 -0.4136 -0.2426  0.1031
  750POPS   D2A10138   2.873  11.581   7.488 -0.1961  0.2698 -0.0981
  750POPS   C3A10139   2.757  11.771   7.972 -0.0115 -0.0908 -0.2333
  750POPS   C4A10140   2.945  12.023   8.372 -0.3093 -0.0833  0.0836
  750POPS   C1B10141   3.046  11.484   6.969 -0.0609  0.1743  0.0717
  750POPS   C2B10142   3.293  11.460   7.199  0.0629 -0.1219 -0.3049
  750POPS   C3B10143   3.340  11.484   7.623 -0.2156  0.1235  0.0432
  750POPS   C4B10144   3.356  11.465   8.086 -0.1006  0.0324 -0.1248
  751POPS   CNO10145  17.931   8.133   5.316 -0.1263  0.1316 -0.2055
  751POPS   PO410146  18.018   7.981   5.748  0.1195  0.3078 -0.1556
  751POPS   GL110147  17.944   7.824   6.190  0.0817  0.1652  0.4359
  751POPS   GL210148  18.225   7.883   6.432  0.1128 -0.2856  0.1833
  751POPS   C1A10149  17.754   7.635   6.532 -0.0634  0.0026 -0.2752
  751POPS   D2A10150  17.481   7.362   6.951 -0.2786  0.1011  0.0293
  751POPS   C3A10151  17.236   7.234   7.108 -0.0266  0.0639 -0.2850
  751POPS   C4A10152  16.925   7.073   7.456 -0.2031  0.0262  0.3574
  751POPS   C1B10153  18.107   7.717   6.841  0.1701 -0.2018 -0.1066
  751POPS   C2B10154  18.062   7.993   7.209  0.0262  0.1248  0.2567
  751POPS   C3B10155  17.897   7.913   7.614  0.1447  0.0536 -0.0099
  751POPS   C4B10156  17.418   7.825   7.903 -0.0795 -0.0488  0.2136
  752POPS   CNO10157  16.282   4.603   5.528  0.0281  0.1911  0.1382
  752POPS   PO410158  15.896   4.295   5.623 -0.0630 -0.0174 -0.0712
  752POPS   GL110159  15.834   4.133   6.109  0.5843 -0.0821 -0.3047
  752POPS   GL210160  15.632   4.178   6.298  0.0884  0.0501 -0.2407
  752POPS   C1A10161  16.106   4.086   6.501  0.0457  0.2734  0.1114
  752POPS   D2A10162  16.168   4.151   6.768 -0.0078 -0.0014  0.0916
  752POPS   C3A10163  16.117   4.020   7.114  0.3515  0.1681  0.1130
  752POPS   C4A10164  15.886   3.969   7.342 -0.2687  0.0139  0.2429
  752POPS   C1B10165  15.354   4.451   6.463 -0.1155  0.0965  0.2408
  752POPS   C2B10166  14.982   4.387   6.515 -0.1627 -0.0454  0.4569
  752POPS   C3B10167  14.785   4.549   6.921  0.2374 -0.0049 -0.2157
  752POPS   C4B10168  14.782   4.526   7.371  0.3755  0.0898 -0.0802
  753POPS   CNO10169  11.637  11.008   5.695 -0.1249 -0.1570 -0.0616
  753POPS   PO410170  11.273  10.909   5.693 -0.0738 -0.0168 -0.3955
  753POPS   GL110171  11.213  11.179   5.974 -0.0939 -0.0542  0.0654
  753POPS   GL210172  10.838  11.176   5.914  0.1267 -0.1959 -0.1769
  753POPS   C1A10173  11.305  11.137   6.398  0.0157  0.2215 -0.2516
  753POPS   D2A10174  11.249  11.285   6.854 -0.0372 -0.3558 -0.2768
  753POPS   C3A10175  11.258  11.013   7.202 -0.2428  0.0020 -0.0483
  753POPS   C4A10176  11.172  10.898   7.664 -0.1912  0.2956  0.0739
  753POPS   C1B10177  10.700  10.863   6.232  0.2436 -0.0607 -0.1089
  753POPS   C2B10178  10.397  10.770   6.480 -0.1841 -0.0024 -0.0373
  753POPS   C3B10179  10.002  10.703   6.753 -0.2163 -0.3702 -0.3747
  753POPS   C4B10180   9.832  11.031   7.050  0.0780 -0.1002 -0.0442
  754POPS   CNO10181   1.427  14.573   5.428  0.1370 -0.0833 -0.1387
  754POPS   PO410182   1.740  14.795   5.534  0.1130 -0.1009 -0.0391
  754POPS   GL110183   1.684  14.922   5.963 -0.0322 -0.0561  0.0312
  754POPS   GL210184   1.958  15.156   6.129 -0.0532 -0.0491  0.2007
  754POPS   C1A10185   1.545  14.889   6.401 -0.2022  0.3562  0.0188
  754POPS   D2A10186   1.586  14.966   6.902  0.3983  0.1029  0.2816
  754POPS   C3A10187   1.374  15.084   7.229  0.2550  0.1976 -0.1959
  754POPS   C4A10188   1.323  15.003   7.644  0.0160 -0.0483 -0.1884
  754POPS   C1B10189   2.020  15.045   6.540 -0.0400  0.1192 -0.0338
  754POPS   C2B10190   2.076  15.178   6.873 -0.2860  0.3044  0.1254
  754POPS   C3B10191   2.079  15.096   7.220 -0.2835 -0.1780 -0.1530
  754POPS   C4B10192   2.088  15.046   7.686 -0.1307  0.2682  0.2207
  755POPS   CNO10193  18.533  18.512   6.171  0.0034  0.0341  0.1856
  755POPS   PO410194  18.336  18.808   5.909  0.1116  0.4196 -0.0792
  755POPS   GL110195  18.061  18.668   6.301  0.1594 -0.0636  0.0635
  755POPS   GL210196  18.153  18.817   6.444  0.1298 -0.4000 -0.3888
  755POPS   C1A10197  17.918  18.465   6.681 -0.0668 -0.1209  0.3799
  755POPS   D2A10198  18.132  18.459   7.116 -0.0745  0.0167  0.0897
  755POPS   C3A10199  18.145  18.841   7.372  0.0449  0.1125 -0.2078
  755POPS   C4A10200  18.357  19.202   7.414  0.1093  0.1564 -0.0686
  755POPS   C1B10201  18.271  18.815   6.748 -0.1607 -0.2109 -0.2124
  755POPS   C2B10202  17.997  18.975   6.969 -0.0298  0.2056  0.0066
  755POPS   C3B10203  17.747  19.218   7.262 -0.2581 -0.4344  0.0043
  755POPS   C4B10204  17.798  19.329   7.588 -0.0369 -0.0583 -0.0237
  756POPS   CNO10205   2.001  12.832   5.752 -0.1097 -0.1597  0.1151
  756POPS   PO410206   1.590  12.781   5.839  0.1031  0.1212 -0.0704
  756POPS   GL110207   1.384  12.826   6.287 -0.3831 -0.1308  0.4632
  756POPS   GL210208   1.202  12.583   6.372 -0.0201 -0.3899  0.1620
  756POPS   C1A10209   1.295  13.201   6.509 -0.0188  0.0785  0.0581
  756POPS   D2A10210   1.248  13.478   6.826 -0.1747 -0.6853  0.3863
  756POPS   C3A10211   1.509  13.774   7.149 -0.3139 -0.2441  0.2231
  756POPS   C4A10212   1.312  14.045   7.445 -0.0383  0.1600 -0.2823
  756POPS   C1B10213   0.903  12.449   6.702  0.0071  0.0459 -0.0324
  756POPS   C2B10214   0.765  12.625   6.988  0.1129 -0.1774  0.2123
  756POPS   C3B10215   0.734  12.811   7.317  0.0890 -0.0936 -0.1548
  756POPS   C4B10216   0.543  12.863   7.718  0.1269 -0.0839 -0.3645
  757POPS   CNO10217   1.433   8.999   5.673  0.0235 -0.1200 -0.4002
  757POPS   PO410218   1.825   9.011   5.658 -0.2833 -0.1731 -0.2477
  757POPS   GL110219   1.654   8.680   5.967 -0.3329  0.2995 -0.0566
  757POPS   GL210220   1.561   8.868   6.131  0.0003 -0.3404  0.1139
  757POPS   C1A10221   1.320   8.392   6.224  0.0838 -0.1397 -0.1750
  757POPS   D2A10222   0.974   8.005   6.334  0.4138  0.0487 -0.1023
  757POPS   C3A10223   0.917   7.472   6.231  0.1129  0.4529 -0.0142
  757POPS   C4A10224   1.290   7.117   6.122 -0.1944  0.1227 -0.3844
  757POPS   C1B10225   1.786   8.585   6.491  0.0940  0.0334 -0.0446
  757POPS   C2B10226   2.076   8.293   6.846  0.1577 -0.0672 -0.1995
  757POPS   C3B10227   2.077   7.990   7.017  0.1268  0.2443  0.4047
  757POPS   C4B10228   2.051   7.541   7.100  0.3104 -0.2987  0.0610
  758POPS   CNO10229   9.821  17.205   5.077  0.3660  0.1387 -0.1866
  758POPS   PO410230   9.678  17.253   5.468 -0.3493 -0.0214 -0.0926
  758POPS   GL110231   9.827  17.187   5.977  0.2404 -0.0657 -0.2255
  758POPS   GL210232   9.602  17.326   6.216 -0.0185  0.4973  0.3085
  758POPS   C1A10233  10.104  17.483   6.250 -0.3542 -0.1399 -0.0348
  758POPS   D2A10234  10.121  17.505   6.727 -0.1131 -0.0480 -0.1414
  758POPS   C3A10235  10.065  17.688   7.099 -0.0368 -0.0023  0.0644
  758POPS   C4A10236  10.262  17.850   7.419 -0.1942  0.2550  0.2978
  758POPS   C1B10237   9.635  17.069   6.517  0.1285  0.1181  0.1065
  758POPS   C2B10238   9.749  16.972   6.882  0.2263  0.1281  0.0892
  758POPS   C3B10239   9.999  17.190   7.235 -0.3371  0.1321 -0.0169
  758POPS   C4B10240  10.035  17.317   7.592  0.0621  0.0959  0.0078
  759POPS   CNO10241  11.802   0.315   5.442 -0.2997  0.0334  0.0738
  759POPS   PO410242  11.439   0.456   5.722 -0.1133  0.0321 -0.4436
  759POPS   GL110243  11.313   0.351   6.175  0.0053 -0.1633 -0.4228
  759POPS   GL210244  11.512   0.523   6.264 -0.2161  0.1286  0.0259
  759POPS   C1A10245  11.317   0.076   6.627  0.2020 -0.1875  0.0998
  759POPS   D2A10246  11.424  -0.075   7.105 -0.2748 -0.3273 -0.0037
  759POPS   C3A10247  11.326   0.171   7.505  0.0714  0.1804 -0.0903
  759POPS   C4A10248  10.960   0.040   7.841  0.0520 -0.0343  0.0654
  759POPS   C1B10249  11.600   0.501   6.721 -0.1126 -0.1265  0.0375
  759POPS   C2B10250  11.324   0.540   7.030  0.2891  0.3331  0.6074
  759POPS   C3B10251  10.884   0.378   7.378 -0.3183 -0.2164 -0.0416
  759POPS   C4B10252  10.622   0.540   7.572 -0.0517 -0.1622  0.2038
  760POPS   CNO10253   2.676  10.669   5.733 -0.2885 -0.2012  0.0878
  760POPS   PO410254   2.940  10.257   5.877 -0.1772 -0.2556 -0.1888
  760POPS   GL110255   2.833  10.191   6.305  0.0686 -0.3971  0.1678
  760POPS   GL210256   2.988  10.164   6.558 -0.1341  0.1443 -0.1863
  760POPS   C1A10257   2.654  10.504   6.695 -0.1316  0.0788 -0.0656
  760POPS   D2A10258   2.750  10.417   7.167 -0.0988  0.2178  0.0085
  760POPS   C3A10259   2.595  10.358   7.452  0.0549 -0.1956 -0.2794
  760POPS   C4A10260   2.296  10.327   7.745 -0.1229 -0.0106 -0.1999
  760POPS   C1B10261   2.774  10.072   6.878  0.4269 -0.0220  0.4229
  760POPS   C2B10262   2.561   9.905   7.283 -0.1205 -0.1098  0.0043
  760POPS   C3B10263   2.350   9.776   7.679  0.1693 -0.0574  0.1762
  760POPS   C4B10264   2.125   9.511   7.818  0.3036 -0.1317  0.1195
  761POPS   CNO10265  15.085  11.457   5.562 -0.2250 -0.1451 -0.0374
  761POPS   PO410266  15.052  11.036   5.779  0.3371 -0.0076 -0.0504
  761POPS   GL110267  15.018  11.329   6.188 -0.1291 -0.1797  0.3226
  761POPS   GL210268  15.014  10.923   6.281 -0.0841 -0.2756  0.0439
  761POPS   C1A10269  14.919  11.706   6.424  0.4679  0.1836 -0.1896
  761POPS   D2A10270  14.887  11.818   6.930  0.1393 -0.0747  0.0080
  761POPS   C3A10271  14.601  11.770   7.184 -0.0951 -0.1996 -0.2245
  761POPS   C4A10272  14.424  11.911   7.513 -0.0163 -0.2625  0.2584
  761POPS   C1B10273  14.740  11.055   6.601 -0.0119  0.1340 -0.0431
  761POPS   C2B10274  14.562  11.375   6.892 -0.1329  0.1659 -0.0102
  761POPS   C3B10275  14.418  11.361   7.385  0.0232 -0.4841 -0.1900
  761POPS   C4B10276  14.526  11.418   7.748  0.2205 -0.0505 -0.2130
  762POPS   CNO10277   8.291   2.597   6.225 -0.1234  0.0154  0.2203
  762POPS   PO410278   8.096   2.839   6.145 -0.1311 -0.0058  0.0140
  762POPS   GL110279   7.933   2.933   6.535  0.1701 -0.1747 -0.1863
  762POPS   GL210280   7.788   2.607   6.590  0.1560 -0.0318  0.0118
  762POPS   C1A10281   7.774   2.929   6.963  0.0897 -0.5358 -0.2450
  762POPS   D2A10282   8.028   3.075   7.345 -0.1201  0.4001  0.0590
  762POPS   C3A10283   8.087   2.965   7.757 -0.1077  0.0507  0.3299
  762POPS   C4A10284   8.027   3.040   8.258 -0.0406  0.2758  0.1711
  762POPS   C1B10285   7.972   2.400   6.945 -0.0388  0.2585 -0.0774
  762POPS   C2B10286   8.136   2.403   7.293  0.0080  0.1298 -0.2067
  762POPS   C3B10287   8.237   2.530   7.682  0.0033  0.3309 -0.1232
  762POPS   C4B10288   8.508   2.750   7.931  0.0518  0.0555  0.4103
  763POPS   CNO10289  16.531   7.482   5.496  0.0503  0.1400 -0.0511
  763POPS   PO410290  16.836   7.326   5.774 -0.0552 -0.4029  0.2102
  763POPS   GL110291  16.660   7.061   6.163 -0.2661  0.3130 -0.1668
  763POPS   GL210292  16.350   6.898   6.164 -0.0722  0.0457 -0.1760
  763POPS   C1A10293  16.504   6.826   6.648  0.0408  0.0193 -0.5860
  763POPS   D2A10294  16.172   6.887   6.970 -0.0384 -0.3270 -0.0337
  763POPS   C3A10295  16.244   6.748   7.434 -0.1411  0.1754 -0.2225
  763POPS   C4A10296  16.219   6.260   7.615  0.0261 -0.1604 -0.0664
  763POPS   C1B10297  16.246   7.209   6.515  0.2511 -0.0287  0.3733
  763POPS   C2B10298  15.975   7.390   6.755  0.0566 -0.4945  0.2740
  763POPS   C3B10299  15.869   7.394   7.169 -0.0759 -0.0799 -0.0486
  763POPS   C4B10300  15.743   7.518   7.409  0.0156  0.2138 -0.0595
  764POPS   CNO10301   9.970  15.503   5.524  0.0341 -0.0604 -0.2129
  764POPS   PO410302  10.090  15.047   5.349  0.0478  0.0469  0.2729
  764POPS   GL110303  10.156  15.185   5.839  0.0423 -0.0549  0.1057
  764POPS   GL210304   9.801  15.335   6.017  0.0061 -0.3207 -0.2823
  764POPS   C1A10305  10.395  15.144   6.280 -0.1035  0.0232 -0.4097
  764POPS   D2A10306  10.344  15.060   6.735  0.1833  0.0150  0.0538
  764POPS   C3A10307  10.617  15.219   7.077 -0.0622 -0.1753 -0.2039
  764POPS   C4A10308  10.730  15.659   7.100 -0.1945 -0.0954 -0.1943
  764POPS   C1B10309   9.945  15.209   6.479  0.1785 -0.3376 -0.0585
  764POPS   C2B10310   9.840  15.204   6.917 -0.2002  0.1216  0.1289
  764POPS   C3B10311  10.148  15.274   7.249  0.0284  0.2709  0.1516
  764POPS   C4B10312  10.336  15.558   7.394 -0.2192 -0.0690  0.0735
  765POPS   CNO10313  15.896  14.547   5.694 -0.0068  0.1489 -0.0089
  765POPS   PO410314  16.018  14.299   5.890 -0.2713  0.1594  0.3099
  765POPS   GL110315  16.061  14.440   6.297  0.2594  0.5247 -0.0617
  765POPS   GL210316  15.840  14.177   6.376  0.2469 -0.1471 -0.0653
  765POPS   C1A10317  16.018  14.429   6.725  0.1510 -0.1032 -0.1279
  765POPS   D2A10318  15.979  14.601   7.152 -0.1603  0.0185  0.0066
  765POPS   C3A10319  16.219  14.781   7.433 -0.2801 -0.0640 -0.3386
  765POPS   C4A10320  16.335  15.220   7.486  0.1276  0.1716  0.1119
  765POPS   C1B10321  15.562  14.300   6.785  0.2147 -0.0115  0.4031
  765POPS   C2B10322  15.204  14.253   7.154 -0.0912  0.0264 -0.0869
  765POPS   C3B10323  14.905  14.473   7.383 -0.0122 -0.0852  0.1977
  765POPS   C4B10324  14.910  14.287   7.720 -0.2612  0.0484  0.4149
  766POPS   CNO10325   7.134   1.712   5.701  0.0184 -0.3663 -0.1529
  766POPS   PO410326   6.993   1.819   6.018  0.1307 -0.0599  0.0034
  766POPS   GL110327   6.985   2.000   6.408 -0.0706 -0.1627 -0.0357
  766POPS   GL210328   7.187   2.292   6.447  0.0624  0.1839 -0.1325
  766POPS   C1A10329   6.888   1.975   6.877 -0.2321  0.0415 -0.1020
  766POPS   D2A10330   7.047   2.121   7.350  0.1491  0.1713 -0.1051
  766POPS   C3A10331   7.367   2.317   7.717 -0.0785  0.1065  0.0334
  766POPS   C4A10332   7.324   2.341   8.172  0.2082  0.1535 -0.0407
  766POPS   C1B10333   7.474   2.281   6.887  0.1972  0.0782 -0.1580
  766POPS   C2B10334   7.598   2.254   7.289  0.1217 -0.0762  0.2525
  766POPS   C3B10335   7.821   2.180   7.716 -0.3424  0.0266 -0.4562
  766POPS   C4B10336   8.041   2.166   8.036 -0.1351 -0.1261 -0.0601
  767POPS   CNO10337   5.393   7.010   5.918  0.3203  0.1982 -0.3407
  767POPS   PO410338   5.003   7.226   5.848 -0.1787  0.0785 -0.2471
  767POPS   GL110339   4.977   7.191   6.307  0.0375 -0.0010  0.1797
  767POPS   GL210340   4.980   6.891   6.344 -0.4237  0.2298  0.0628
  767POPS   C1A10341   4.671   7.113   6.649 -0.3909 -0.1364  0.0926
  767POPS   D2A10342   4.494   6.935   7.004  0.2703  0.0015  0.1137
  767POPS   C3A10343   4.761   6.935   7.435 -0.4992 -0.0939  0.1459
  767POPS   C4A10344   4.633   7.096   7.755 -0.3057  0.1233  0.2012
  767POPS   C1B10345   5.058   6.828   6.845  0.1032  0.4439 -0.0469
  767POPS   C2B10346   5.185   6.798   7.244 -0.3995 -0.1027 -0.0237
  767POPS   C3B10347   5.357   6.556   7.636  0.0374  0.3156 -0.0092
  767POPS   C4B10348   5.513   6.143   7.512 -0.0527 -0.1178 -0.1796
  768POPS   CNO10349  17.845  17.092   5.474 -0.3528  0.0961 -0.1379
  768POPS   PO410350  18.062  17.462   5.692 -0.4323 -0.0930 -0.1693
  768POPS   GL110351  18.013  17.641   6.052  0.0575 -0.1026 -0.2616
  768POPS   GL210352  18.045  17.869   6.126  0.3709  0.0540  0.1884
  768POPS   C1A10353  18.022  17.503   6.512  0.0610  0.2535 -0.0515
  768POPS   D2A10354  17.737  17.421   6.659  0.0223  0.0487  0.5065
  768POPS   C3A10355  17.501  17.715   6.928  0.1672 -0.1408 -0.1880
  768POPS   C4A10356  17.375  17.787   7.388  0.1064  0.1317 -0.1764
  768POPS   C1B10357  18.240  18.222   6.405  0.1530  0.2642  0.1639
  768POPS   C2B10358  18.453  18.328   6.742  0.2024 -0.2415  0.1166
  768POPS   C3B10359  18.504  18.063   7.041 -0.1372  0.4243  0.1014
  768POPS   C4B10360  18.426  17.910   7.383  0.0406 -0.1293 -0.0702
  769POPS   CNO10361  14.974   2.210   6.019 -0.3090 -0.4501 -0.2224
  769POPS   PO410362  14.650   2.454   6.014  0.2962  0.0565 -0.5245
  769POPS   GL110363  14.836   2.573   6.356 -0.2488  0.1149  0.1001
  769POPS   GL210364  14.923   2.932   6.454  0.3507 -0.0957 -0.0579
  769POPS   C1A10365  14.997   2.491   6.740 -0.0596 -0.0570 -0.1484
  769POPS   D2A10366  15.492   2.420   6.869 -0.0450  0.1572 -0.0383
  769POPS   C3A10367  15.520   2.089   7.200 -0.1741 -0.2804 -0.2456
  769POPS   C4A10368  15.351   1.731   7.265  0.0834  0.0407  0.1231
  769POPS   C1B10369  14.848   2.987   6.916  0.1031  0.3337 -0.1750
  769POPS   C2B10370  14.624   2.961   7.296  0.1694 -0.4791 -0.0879
  769POPS   C3B10371  14.575   3.165   7.663  0.4196 -0.3348 -0.2584
  769POPS   C4B10372  14.747   3.344   7.999  0.0173 -0.1677 -0.0655
  770POPS   CNO10373  16.017   1.292   5.609 -0.0505  0.2409  0.4105
  770POPS   PO410374  15.529   1.329   5.574  0.1528 -0.1230  0.0149
  770POPS   GL110375  15.645   1.128   6.098 -0.0875  0.0613 -0.2565
  770POPS   GL210376  15.873   1.263   6.106 -0.0964 -0.0358 -0.0060
  770POPS   C1A10377  15.451   1.341   6.540 -0.1242 -0.0128 -0.0754
  770POPS   D2A10378  15.223   1.480   6.832 -0.0642  0.1732  0.0852
  770POPS   C3A10379  15.431   1.934   6.740  0.2182  0.0117  0.1921
  770POPS   C4A10380  15.320   2.275   6.431  0.0044  0.0295  0.1756
  770POPS   C1B10381  15.993   1.376   6.506 -0.2385  0.2998 -0.1053
  770POPS   C2B10382  16.229   1.428   6.792 -0.2490 -0.0182  0.0603
  770POPS   C3B10383  16.634   1.423   7.104  0.0885 -0.2545  0.4358
  770POPS   C4B10384  16.859   1.438   7.505  0.2130  0.1213 -0.0795
  771POPS   CNO10385   9.116  11.094   4.701 -0.0842 -0.1422  0.1693
  771POPS   PO410386   8.779  11.108   5.100 -0.2945  0.0678  0.2011
  771POPS   GL110387   8.666  11.216   5.471 -0.0087 -0.0001  0.1719
  771POPS   GL210388   8.738  11.501   5.580 -0.2615  0.0834 -0.1928
  771POPS   C1A10389   8.869  11.047   5.815  0.1169 -0.0220  0.0839
  771POPS   D2A10390   8.707  10.951   6.205 -0.2338  0.1436 -0.0412
  771POPS   C3A10391   8.694  10.985   6.631  0.1506 -0.0975  0.0967
  771POPS   C4A10392   8.513  10.971   7.055 -0.0960 -0.0123 -0.1572
  771POPS   C1B10393   8.524  11.489   5.860  0.2528 -0.0588  0.4100
  771POPS   C2B10394   8.547  11.454   6.252  0.0086 -0.1653 -0.1428
  771POPS   C3B10395   8.651  11.501   6.639  0.0097 -0.0823  0.0129
  771POPS   C4B10396   8.979  11.219   6.888 -0.0901 -0.0959  0.0155
  772POPS   CNO10397   2.749  13.942   5.887  0.0361  0.0965  0.1278
  772POPS   PO410398   2.879  13.803   6.293 -0.0907  0.2345 -0.0042
  772POPS   GL110399   2.598  13.398   6.602  0.0458 -0.2225 -0.1601
  772POPS   GL210400   2.306  13.233   6.485 -0.1573  0.4999  0.0224
  772POPS   C1A10401   2.525  13.359   7.071  0.1464 -0.0803  0.0016
  772POPS   D2A10402   2.284  13.132   7.265  0.0996  0.2099 -0.1063
  772POPS   C3A10403   2.216  13.302   7.597  0.0652  0.0360 -0.3641
  772POPS   C4A10404   1.916  13.502   7.811  0.1084  0.1747 -0.2309
  772POPS   C1B10405   2.166  13.185   6.788  0.1367 -0.0240 -0.2197
  772POPS   C2B10406   1.992  12.829   6.989 -0.1792 -0.1761 -0.2547
  772POPS   C3B10407   1.868  12.792   7.361  0.0036 -0.0013  0.1215
  772POPS   C4B10408   1.836  12.726   7.802 -0.0056  0.2723  0.0270
  773POPS   CNO10409  14.184   9.076   5.637 -0.3159 -0.0853  0.0452
  773POPS   PO410410  14.478   9.404   5.783  0.2278 -0.2337 -0.3102
  773POPS   GL110411  14.427   9.174   6.135  0.0764 -0.0258 -0.0584
  773POPS   GL210412  14.677   8.979   6.263  0.0405 -0.0258  0.2891
  773POPS   C1A10413  14.169   9.005   6.381  0.2371  0.1422  0.0256
  773POPS   D2A10414  13.911   8.968   6.677  0.0332 -0.0653 -0.1793
  773POPS   C3A10415  13.934   8.950   7.142 -0.1558  0.1222 -0.0640
  773POPS   C4A10416  13.950   8.742   7.529 -0.5238 -0.1787  0.1504
  773POPS   C1B10417  14.642   8.842   6.609  0.0069  0.2621  0.3033
  773POPS   C2B10418  14.252   8.658   6.873 -0.0367  0.0769  0.1562
  773POPS   C3B10419  14.164   8.374   7.198  0.0230  0.2218 -0.1271
  773POPS   C4B10420  14.158   8.318   7.579 -0.1550 -0.0320 -0.0988
  774POPS   CNO10421   3.138   0.865   5.927 -0.0645 -0.3146 -0.3009
  774POPS   PO410422   3.388   0.729   6.211  0.2651 -0.1660 -0.2392
  774POPS   GL110423   3.387   1.019   6.556  0.2398  0.2720  0.2636
  774POPS   GL210424   3.147   0.905   6.696  0.0101  0.2669  0.0375
  774POPS   C1A10425   3.610   1.058   6.887 -0.2511  0.1456  0.0749
  774POPS   D2A10426   3.789   1.173   7.182 -0.0523 -0.1188  0.5110
  774POPS   C3A10427   3.854   1.232   7.520 -0.1405  0.0278 -0.0787
  774POPS   C4A10428   4.152   1.324   7.762 -0.0820  0.2268 -0.2729
  774POPS   C1B10429   3.197   0.918   7.053 -0.0975 -0.0046  0.3484
  774POPS   C2B10430   3.218   0.734   7.422  0.4219 -0.2372 -0.1744
  774POPS   C3B10431   2.892   0.686   7.739  0.4060 -0.2214  0.2206
  774POPS   C4B10432   2.806   0.369   8.037  0.2689  0.3121  0.2025
  775POPS   CNO10433  13.244   6.005   5.469  0.4211  0.0013 -0.0725
  775POPS   PO410434  13.312   5.706   5.713  0.1663 -0.1272 -0.0573
  775POPS   GL110435  13.312   5.508   6.033 -0.2539  0.1077  0.0470
  775POPS   GL210436  13.121   5.763   6.288 -0.0163  0.1541  0.0437
  775POPS   C1A10437  13.554   5.631   6.425  0.0896 -0.1688 -0.1577
  775POPS   D2A10438  13.428   6.004   6.612  0.1920 -0.1517 -0.2386
  775POPS   C3A10439  12.984   5.941   6.786 -0.5439 -0.0252  0.0863
  775POPS   C4A10440  12.935   5.989   7.205 -0.0675 -0.3167 -0.2635
  775POPS   C1B10441  12.732   5.837   6.322 -0.2465  0.0817 -0.0391
  775POPS   C2B10442  12.481   6.107   6.571  0.0624  0.1127 -0.1715
  775POPS   C3B10443  12.630   6.270   6.957 -0.1173 -0.0946 -0.1056
  775POPS   C4B10444  12.330   6.258   7.316  0.1379 -0.2226  0.0022
  776POPS   CNO10445   4.267  11.740   6.028  0.0046 -0.3293 -0.1373
  776POPS   PO410446   3.797  11.706   6.027  0.3402  0.0838  0.0423
  776POPS   GL110447   3.670  11.677   6.465 -0.1200  0.2735 -0.0114
  776POPS   GL210448   3.662  11.281   6.495 -0.1357  0.1405 -0.2902
  776POPS   C1A10449   3.849  11.919   6.722  0.0186 -0.0258 -0.0402
  776POPS   D2A10450   3.524  12.096   6.941 -0.1412 -0.0807  0.3151
  776POPS   C3A10451   3.672  12.472   7.338  0.1117 -0.0875 -0.3720
  776POPS   C4A10452   3.632  12.688   7.661 -0.2694  0.3496  0.0574
  776POPS   C1B10453   3.797  11.398   6.882  0.0241 -0.1523 -0.2072
  776POPS   C2B10454   3.976  11.270   7.230 -0.0891  0.2421 -0.2470
  776POPS   C3B10455   3.985  11.333   7.651 -0.0062 -0.2671 -0.2323
  776POPS   C4B10456   4.198  11.675   7.635 -0.1627 -0.2218 -0.0054
  777POPS   CNO10457  13.581  14.887   4.500  0.2528  0.2137 -0.1631
  777POPS   PO410458  13.720  14.769   4.957  0.2280  0.4689  0.1912
  777POPS   GL110459  13.460  15.049   5.304 -0.1750 -0.2537 -0.1207
  777POPS   GL210460  13.697  15.172   5.560 -0.2612 -0.1147 -0.1311
  777POPS   C1A10461  13.212  14.888   5.674  0.1422 -0.1514 -0.0383
  777POPS   D2A10462  12.967  14.603   5.998 -0.0356 -0.1842  0.2693
  777POPS   C3A10463  12.922  14.242   6.113  0.0754 -0.2594 -0.0085
  777POPS   C4A10464  12.785  14.207   6.480  0.2238  0.0164  0.1320
  777POPS   C1B10465  13.510  15.332   5.888  0.0970  0.2077 -0.0858
  777POPS   C2B10466  13.291  15.044   6.157  0.5417  0.0689 -0.3288
  777POPS   C3B10467  13.141  15.045   6.568 -0.0077  0.1927 -0.1589
  777POPS   C4B10468  13.093  14.947   6.879  0.2090  0.1146 -0.1977
  778POPS   CNO10469  17.260   7.191   5.916 -0.5119  0.0327 -0.1048
  778POPS   PO410470  17.607   7.030   5.797 -0.0504 -0.2369  0.3289
  778POPS   GL110471  17.676   6.982   6.229  0.2556 -0.0861  0.1886
  778POPS   GL210472  17.519   7.300   6.299  0.1250  0.1452 -0.1860
  778POPS   C1A10473  17.611   6.885   6.656  0.0948 -0.1162 -0.1606
  778POPS   D2A10474  17.501   6.791   7.052  0.0887  0.3166 -0.0851
  778POPS   C3A10475  17.566   6.215   7.028 -0.1483 -0.0524 -0.3089
  778POPS   C4A10476  17.860   5.865   7.220 -0.1658  0.5093 -0.3757
  778POPS   C1B10477  17.249   7.538   6.559  0.2444 -0.0123 -0.2761
  778POPS   C2B10478  16.916   7.667   6.885  0.1053  0.1133  0.1115
  778POPS   C3B10479  16.899   7.605   7.324 -0.0399  0.0825 -0.2451
  778POPS   C4B10480  16.627   7.497   7.667  0.0523  0.2192  0.1964
  779POPS   CNO10481  17.823   4.598   5.016  0.1129 -0.1736  0.0402
  779POPS   PO410482  18.006   4.851   5.319 -0.2084  0.0028  0.1274
  779POPS   GL110483  18.048   4.809   5.723 -0.0273 -0.3577 -0.3503
  779POPS   GL210484  17.807   4.629   5.864 -0.1755  0.0926  0.3304
  779POPS   C1A10485  18.008   5.036   6.173  0.0721  0.0208 -0.2051
  779POPS   D2A10486  18.266   5.307   6.320  0.2964  0.2307 -0.1411
  779POPS   C3A10487  17.975   5.644   6.391  0.2246 -0.3360  0.2284
  779POPS   C4A10488  18.072   6.017   6.640  0.2438 -0.1336  0.0689
  779POPS   C1B10489  17.760   4.588   6.373 -0.1234 -0.2113  0.0611
  779POPS   C2B10490  17.553   4.408   6.730  0.1532  0.2925 -0.0821
  779POPS   C3B10491  17.394   4.142   7.087 -0.0290 -0.0711 -0.0669
  779POPS   C4B10492  17.145   3.906   6.973 -0.2342 -0.1368  0.0019
  780POPS   CNO10493   2.263   4.938   5.404  0.1203 -0.1509 -0.0157
  780POPS   PO410494   1.970   4.765   5.647  0.1491  0.0858  0.0057
  780POPS   GL110495   2.243   4.918   5.932 -0.0273  0.0400  0.3341
  780POPS   GL210496   2.188   5.211   6.015 -0.4096  0.1337  0.2804
  780POPS   C1A10497   2.473   4.772   6.328 -0.2881  0.3353 -0.3168
  780POPS   D2A10498   2.392   4.875   6.808 -0.0527  0.2106  0.0230
  780POPS   C3A10499   2.505   4.489   7.009  0.2701  0.3667  0.0654
  780POPS   C4A10500   2.603   4.346   7.370  0.4123 -0.2471  0.0263
  780POPS   C1B10501   2.067   5.015   6.378 -0.0965  0.0188  0.0611
  780POPS   C2B10502   1.916   5.020   6.767 -0.1635  0.1343  0.2021
  780POPS   C3B10503   2.072   5.178   7.151 -0.2356  0.2167  0.0339
  780POPS   C4B10504   2.125   4.886   7.449 -0.0410  0.5351  0.0108
  781POPS   CNO10505  14.286   3.632   5.570 -0.0068 -0.3135  0.0075
  781POPS   PO410506  13.950   3.561   5.887  0.4450  0.1855  0.1033
  781POPS   GL110507  14.049   3.612   6.230  0.0566  0.2466 -0.1111
  781POPS   GL210508  13.733   3.612   6.387  0.0255 -0.0642  0.0691
  781POPS   C1A10509  14.200   3.768   6.439  0.1343 -0.1760 -0.0347
  781POPS   D2A10510  14.238   3.795   6.828  0.2392  0.0178  0.3025
  781POPS   C3A10511  13.952   3.648   6.993  0.0465  0.0571  0.0444
  781POPS   C4A10512  13.776   3.573   7.317  0.1956 -0.0879 -0.0940
  781POPS   C1B10513  13.661   3.321   6.718 -0.0254  0.0831  0.0653
  781POPS   C2B10514  13.539   3.107   7.051 -0.1991  0.0219  0.0500
  781POPS   C3B10515  13.433   2.588   7.147 -0.3412 -0.0147 -0.1373
  781POPS   C4B10516  12.999   2.504   7.328  0.0345  0.0453 -0.3231
  782POPS   CNO10517  16.753  10.187   5.775 -0.0403 -0.2296  0.1639
  782POPS   PO410518  16.847  10.566   5.823 -0.0315  0.1836  0.1545
  782POPS   GL110519  16.500  10.354   6.147  0.3391 -0.0941  0.2893
  782POPS   GL210520  16.455  10.562   6.285  0.3689  0.5338 -0.0547
  782POPS   C1A10521  16.696  10.194   6.566 -0.0985  0.4533  0.1516
  782POPS   D2A10522  16.962  10.075   6.937  0.2075  0.1433 -0.2400
  782POPS   C3A10523  16.852  10.205   7.376 -0.2006  0.3050 -0.1614
  782POPS   C4A10524  16.731  10.224   7.809 -0.0898  0.2249  0.1606
  782POPS   C1B10525  16.323  10.439   6.695 -0.0168  0.2719  0.0135
  782POPS   C2B10526  16.431  10.214   7.020  0.0007  0.1594  0.0696
  782POPS   C3B10527  16.351  10.272   7.474  0.1523 -0.0542 -0.0831
  782POPS   C4B10528  16.254  10.568   7.796  0.1477 -0.1327  0.1513
  783POPS   CNO10529   9.163   4.879   5.530  0.1888  0.0509  0.5088
  783POPS   PO410530   8.878   5.247   5.625 -0.0944 -0.2081  0.0918
  783POPS   GL110531   8.871   5.188   6.092 -0.3903 -0.0381  0.0387
  783POPS   GL210532   8.689   5.421   6.323  0.1770  0.0017  0.2500
  783POPS   C1A10533   9.257   5.308   6.369 -0.1014  0.0138 -0.1074
  783POPS   D2A10534   9.304   5.471   6.766  0.2322  0.0468 -0.2364
  783POPS   C3A10535   9.023   5.328   6.930  0.2595 -0.3642  0.0658
  783POPS   C4A10536   8.727   5.426   7.155 -0.1468  0.1936 -0.1762
  783POPS   C1B10537   8.559   5.496   6.695  0.3230 -0.2164 -0.3302
  783POPS   C2B10538   8.394   5.816   7.061  0.0556 -0.1889  0.0248
  783POPS   C3B10539   8.244   6.098   7.318  0.1884  0.2046  0.0837
  783POPS   C4B10540   7.813   6.121   7.402  0.2834  0.4358  0.0210
  784POPS   CNO10541  12.315   6.069   5.456  0.0651 -0.0877  0.2422
  784POPS   PO410542  12.460   6.478   5.475 -0.1819 -0.4183 -0.1797
  784POPS   GL110543  12.317   6.507   5.976 -0.0910  0.3534  0.1407
  784POPS   GL210544  12.574   6.359   6.118 -0.1617  0.0837 -0.4128
  784POPS   C1A10545  12.116   6.404   6.381 -0.2183 -0.3628 -0.0203
  784POPS   D2A10546  12.136   6.252   6.879 -0.2715  0.3486  0.3707
  784POPS   C3A10547  11.876   6.461   7.024  0.3648 -0.2731  0.1354
  784POPS   C4A10548  11.512   6.597   7.328 -0.0318 -0.0968  0.0522
  784POPS   C1B10549  12.605   6.572   6.543  0.0563 -0.2155 -0.1194
  784POPS   C2B10550  12.433   6.683   7.008 -0.2917 -0.0625 -0.2703
  784POPS   C3B10551  12.186   6.733   7.371  0.0428  0.3326  0.3780
  784POPS   C4B10552  11.912   6.969   7.469 -0.1610 -0.2139  0.0807
  785POPS   CNO10553  18.386  17.880   5.730 -0.2103 -0.2548 -0.0312
  785POPS   PO410554  18.585  17.514   5.526  0.3418  0.1038 -0.0652
  785POPS   GL110555  18.498  17.453   5.966 -0.1400 -0.0624 -0.2450
  785POPS   GL210556  18.614  17.769   6.187 -0.0538 -0.0555  0.1304
  785POPS   C1A10557  18.482  17.331   6.370  0.2743 -0.3475 -0.0848
  785POPS   D2A10558  18.436  17.279   6.775  0.2645 -0.1333  0.1049
  785POPS   C3A10559  18.710  17.591   7.096  0.1267  0.0812  0.2603
  785POPS   C4A10560  18.921  17.960   7.401  0.0880 -0.1266 -0.2223
  785POPS   C1B10561  18.412  17.804   6.612  0.1037 -0.0493  0.0230
  785POPS   C2B10562  18.186  17.694   6.966  0.1880  0.0112  0.1595
  785POPS   C3B10563  18.281  17.438   7.248 -0.1546  0.0872 -0.1802
  785POPS   C4B10564  18.205  17.198   7.587 -0.2302  0.2399  0.0215
  786POPS   CNO10565   6.210   0.229   5.748 -0.4182 -0.0117 -0.1061
  786POPS   PO410566   6.432   0.171   6.097  0.0507 -0.2913  0.0063
  786POPS   GL110567   6.392  -0.058   6.443  0.2478 -0.1203  0.1045
  786POPS   GL210568   6.643   0.227   6.640 -0.0899 -0.0127  0.0651
  786POPS   C1A10569   6.267  -0.385   6.760  0.0327  0.0623  0.1594
  786POPS   D2A10570   6.320  -0.512   7.138 -0.3858 -0.1862  0.0785
  786POPS   C3A10571   5.995  -0.532   7.330 -0.0239  0.1165  0.0769
  786POPS   C4A10572   5.528  -0.378   7.283 -0.0878 -0.3493  0.0999
  786POPS   C1B10573   6.576   0.002   7.081  0.2419  0.1517 -0.3414
  786POPS   C2B10574   6.453  -0.139   7.478 -0.1730 -0.1176 -0.1180
  786POPS   C3B10575   6.344  -0.620   7.683 -0.0572 -0.1623  0.4217
  786POPS   C4B10576   6.596  -0.970   7.695 -0.5624  0.1371 -0.0496
  787POPS   CNO10577  14.186  15.344   5.457 -0.4045  0.0702 -0.0058
  787POPS   PO410578  14.176  15.684   5.186 -0.1208 -0.0979  0.0917
  787POPS   GL110579  14.069  15.896   5.614  0.2060 -0.1000 -0.2046
  787POPS   GL210580  13.792  15.712   5.603  0.2519 -0.1759  0.2263
  787POPS   C1A10581  14.244  15.788   6.014  0.3536  0.0909 -0.3735
  787POPS   D2A10582  13.949  16.017   6.400 -0.1094  0.5429 -0.0821
  787POPS   C3A10583  13.852  16.186   6.715 -0.1710 -0.2063 -0.0798
  787POPS   C4A10584  13.934  16.329   7.130  0.1203  0.0494  0.1231
  787POPS   C1B10585  13.610  16.143   5.730  0.0459 -0.0252  0.4896
  787POPS   C2B10586  13.531  16.242   6.176 -0.1896 -0.2095  0.2432
  787POPS   C3B10587  13.402  16.491   6.421 -0.2226 -0.3129 -0.1394
  787POPS   C4B10588  13.382  16.292   6.896 -0.2572 -0.1424  0.1321
  788POPS   CNO10589   7.966  17.375   6.055  0.3209 -0.0888  0.1863
  788POPS   PO410590   7.911  17.875   5.915  0.1077  0.2620 -0.0273
  788POPS   GL110591   7.702  17.800   6.290 -0.0727 -0.1994  0.2870
  788POPS   GL210592   7.500  18.005   6.397 -0.0228  0.3452 -0.1262
  788POPS   C1A10593   7.417  17.503   6.390 -0.2213 -0.0420  0.3270
  788POPS   D2A10594   7.502  17.110   6.536 -0.0627  0.1041  0.0708
  788POPS   C3A10595   7.426  17.181   6.972  0.0895 -0.3389  0.0331
  788POPS   C4A10596   7.367  16.866   7.365  0.1572 -0.1651  0.0675
  788POPS   C1B10597   7.258  17.941   6.754  0.2085  0.2077 -0.1093
  788POPS   C2B10598   7.165  17.690   7.082  0.0253  0.0102 -0.0737
  788POPS   C3B10599   7.079  17.641   7.521  0.2767  0.0457 -0.0659
  788POPS   C4B10600   6.947  17.218   7.733 -0.0548  0.0391 -0.5844
  789POPS   CNO10601  13.309  13.503   5.261  0.2694  0.0854  0.3048
  789POPS   PO410602  13.045  13.155   5.409 -0.1639  0.3606  0.1461
  789POPS   GL110603  12.852  13.160   5.793 -0.3474 -0.1310  0.0590
  789POPS   GL210604  12.742  12.875   5.914  0.1940  0.0180  0.1408
  789POPS   C1A10605  12.643  13.319   6.100 -0.1800 -0.0265 -0.0279
  789POPS   D2A10606  12.367  13.524   6.484 -0.0866  0.2767 -0.2112
  789POPS   C3A10607  12.379  13.964   6.566  0.0285  0.2305 -0.2052
  789POPS   C4A10608  12.198  14.321   6.796 -0.1455  0.0735  0.1280
  789POPS   C1B10609  12.580  12.516   6.305 -0.0747 -0.2131 -0.0233
  789POPS   C2B10610  12.692  12.024   6.529  0.0454  0.0072  0.1325
  789POPS   C3B10611  12.812  11.761   6.814  0.2611  0.2306 -0.0320
  789POPS   C4B10612  12.678  11.788   7.251 -0.0245  0.0415  0.0419
  790POPS   CNO10613  14.417  10.481   5.343 -0.1919 -0.1476 -0.1216
  790POPS   PO410614  14.307  10.427   5.734 -0.2783  0.0431 -0.0676
  790POPS   GL110615  14.158  10.263   6.093 -0.2987 -0.0568 -0.0182
  790POPS   GL210616  13.759  10.156   6.208  0.1304 -0.1132  0.3774
  790POPS   C1A10617  14.235  10.030   6.455  0.1781 -0.0509 -0.2509
  790POPS   D2A10618  14.366  10.058   6.896  0.3236 -0.0890 -0.0203
  790POPS   C3A10619  14.047  10.116   7.142 -0.2656  0.1776 -0.0872
  790POPS   C4A10620  13.663   9.890   7.350 -0.1079  0.0573  0.1087
  790POPS   C1B10621  13.659   9.926   6.503  0.1670 -0.2583  0.1031
  790POPS   C2B10622  13.484   9.718   6.834 -0.4222 -0.3431  0.1307
  790POPS   C3B10623  13.266   9.948   7.021 -0.2146  0.1623  0.4445
  790POPS   C4B10624  13.036  10.340   7.078 -0.3251 -0.0391 -0.1498
  791POPS   CNO10625  10.630  17.291   4.742  0.4921  0.4360 -0.0986
  791POPS   PO410626  10.754  17.521   5.062  0.2340  0.0723 -0.0096
  791POPS   GL110627  10.789  17.491   5.606  0.3679  0.0325 -0.0969
  791POPS   GL210628  10.663  17.190   5.757  0.0497  0.3153  0.2287
  791POPS   C1A10629  10.870  17.772   5.887 -0.0621 -0.0833 -0.1301
  791POPS   D2A10630  11.065  18.142   5.856 -0.1494  0.0518  0.0104
  791POPS   C3A10631  11.162  18.475   6.108 -0.0426  0.0913 -0.2732
  791POPS   C4A10632  10.898  18.567   6.514  0.1955 -0.1642 -0.2340
  791POPS   C1B10633  10.363  17.053   6.106  0.0498 -0.2266 -0.0421
  791POPS   C2B10634  10.147  16.976   6.399  0.1869  0.0129 -0.0563
  791POPS   C3B10635  10.278  17.066   6.793 -0.2184  0.0222 -0.3442
  791POPS   C4B10636  10.494  17.252   7.173  0.2091 -0.2737 -0.0716
  792POPS   CNO10637   4.787   8.491   5.324 -0.0902 -0.0409 -0.0780
  792POPS   PO410638   4.680   8.414   5.724  0.0954 -0.0624 -0.2360
  792POPS   GL110639   4.859   8.201   6.037  0.2224 -0.1712 -0.0455
  792POPS   GL210640   5.231   8.033   6.033 -0.2069  0.2525  0.3808
  792POPS   C1A10641   4.787   8.032   6.518  0.0151  0.2016 -0.1777
  792POPS   D2A10642   4.884   7.953   6.965  0.0062  0.1138  0.5628
  792POPS   C3A10643   5.303   7.794   7.164 -0.0818 -0.2525  0.1430
  792POPS   C4A10644   5.657   7.685   7.363 -0.0254 -0.1207  0.0598
  792POPS   C1B10645   5.214   8.317   6.359 -0.1148 -0.2204  0.3243
  792POPS   C2B10646   5.184   8.779   6.385  0.2875  0.0629  0.3219
  792POPS   C3B10647   4.839   8.964   6.584 -0.2555 -0.1465 -0.1127
  792POPS   C4B10648   4.578   8.789   7.020 -0.0457  0.0630 -0.2190
  793POPS   CNO10649   9.010   4.377   5.584  0.3928  0.0636 -0.0460
  793POPS   PO410650   9.307   4.063   5.770 -0.2398  0.0589  0.1567
  793POPS   GL110651   9.454   4.293   6.081 -0.1402 -0.2136  0.1514
  793POPS   GL210652   9.442   4.601   5.983 -0.0371 -0.0329  0.1872
  793POPS   C1A10653   9.463   4.371   6.435 -0.1988  0.1833 -0.1732
  793POPS   D2A10654   9.093   4.312   6.753 -0.0152 -0.2458 -0.1255
  793POPS   C3A10655   9.220   4.337   7.184  0.1710 -0.2326  0.3372
  793POPS   C4A10656   9.389   4.503   7.639  0.1324 -0.0684 -0.1772
  793POPS   C1B10657   9.619   4.829   6.424  0.0512 -0.2362 -0.2035
  793POPS   C2B10658   9.878   4.741   6.785 -0.4101 -0.3345  0.3084
  793POPS   C3B10659  10.000   4.692   7.189 -0.4025 -0.0632 -0.0691
  793POPS   C4B10660   9.960   4.847   7.472  0.0103 -0.0248 -0.2666
  794POPS   CNO10661   6.179   4.246   5.900  0.0729 -0.1883  0.2928
  794POPS   PO410662   5.831   4.022   5.895  0.1861 -0.0208 -0.0536
  794POPS   GL110663   5.700   3.978   6.334  0.2496  0.0846  0.0308
  794POPS   GL210664   5.845   3.766   6.625  0.0712 -0.2363 -0.0562
  794POPS   C1A10665   5.309   3.937   6.471 -0.2215 -0.0392 -0.1994
  794POPS   D2A10666   4.868   3.784   6.364  0.0261 -0.0279 -0.2128
  794POPS   C3A10667   4.545   3.498   6.611  0.0591 -0.0405 -0.0645
  794POPS   C4A10668   4.241   3.767   6.550  0.3152  0.0682 -0.1102
  794POPS   C1B10669   5.538   3.729   6.882 -0.1592  0.1675 -0.3341
  794POPS   C2B10670   5.424   3.776   7.278  0.0668 -0.3436 -0.2888
  794POPS   C3B10671   5.265   4.077   7.587 -0.1887  0.0860 -0.0992
  794POPS   C4B10672   5.088   4.424   7.262  0.4990  0.0643 -0.2813
  795POPS   CNO10673   3.110   8.887   5.170  0.0161 -0.1183  0.0208
  795POPS   PO410674   3.365   8.751   5.396  0.0242 -0.0010 -0.1715
  795POPS   GL110675   3.232   8.479   5.729 -0.3450  0.0131  0.0551
  795POPS   GL210676   3.401   8.520   6.065  0.2135 -0.2409  0.1559
  795POPS   C1A10677   2.969   8.235   5.976 -0.0100  0.0652 -0.0346
  795POPS   D2A10678   2.710   8.125   6.271 -0.1206  0.1708  0.1459
  795POPS   C3A10679   2.465   8.020   6.632 -0.0675  0.0652 -0.2978
  795POPS   C4A10680   2.436   7.636   6.872 -0.3240 -0.1590  0.2480
  795POPS   C1B10681   3.306   8.322   6.410  0.2068  0.1800 -0.2114
  795POPS   C2B10682   3.047   8.044   6.563 -0.1766  0.5465 -0.3566
  795POPS   C3B10683   2.851   7.863   6.945 -0.4287  0.3292  0.1407
  795POPS   C4B10684   2.536   7.994   7.240 -0.1487 -0.0473 -0.2070
  796POPS   CNO10685  13.632  18.421   5.542 -0.1434 -0.3902  0.1069
  796POPS   PO410686  13.792  18.395   5.944  0.2434 -0.1978 -0.0663
  796POPS   GL110687  13.764  18.433   6.303  0.0916 -0.2605 -0.1588
  796POPS   GL210688  13.995  18.349   6.443  0.3456 -0.3054  0.0408
  796POPS   C1A10689  13.644  18.543   6.702 -0.1892 -0.1726 -0.0273
  796POPS   D2A10690  13.665  18.491   7.150  0.5872 -0.0491 -0.2860
  796POPS   C3A10691  13.953  18.132   7.322 -0.5135  0.2262 -0.0334
  796POPS   C4A10692  14.172  17.839   7.444 -0.3504  0.0898  0.5004
  796POPS   C1B10693  14.328  18.280   6.521 -0.2426  0.1207  0.2645
  796POPS   C2B10694  14.581  18.137   6.804  0.1271  0.1369  0.0048
  796POPS   C3B10695  14.827  17.770   7.065  0.1188  0.2220  0.0331
  796POPS   C4B10696  14.907  17.301   7.162 -0.2564 -0.1024  0.1008
  797POPS   CNO10697  11.120  10.210   5.594  0.1927  0.2851 -0.1565
  797POPS   PO410698  11.484  10.473   5.638  0.1407 -0.1441 -0.1775
  797POPS   GL110699  11.578  10.512   5.963  0.1695 -0.0829 -0.0858
  797POPS   GL210700  11.515  10.783   6.146  0.0966  0.3834 -0.0483
  797POPS   C1A10701  11.879  10.440   6.258 -0.0208  0.2286  0.0702
  797POPS   D2A10702  12.046  10.523   6.650 -0.1621  0.1782 -0.0793
  797POPS   C3A10703  11.846  10.356   6.992 -0.1210 -0.2415 -0.1573
  797POPS   C4A10704  11.732  10.242   7.389  0.1703 -0.0222 -0.1482
  797POPS   C1B10705  11.655  10.782   6.495 -0.0754 -0.5283  0.1374
  797POPS   C2B10706  11.658  10.812   6.982  0.1371 -0.0312  0.0451
  797POPS   C3B10707  11.680  10.749   7.415  0.2215  0.1724  0.0040
  797POPS   C4B10708  11.719  10.719   7.789 -0.0203 -0.1459  0.3434
  798POPS   CNO10709   6.805   4.775   5.825 -0.0074  0.1071 -0.3009
  798POPS   PO410710   6.747   5.065   6.146  0.1633  0.2215  0.0933
  798POPS   GL110711   6.515   5.242   6.426  0.3687 -0.0462  0.1453
  798POPS   GL210712   6.275   5.102   6.695 -0.2527  0.0062 -0.1515
  798POPS   C1A10713   6.311   5.596   6.588  0.2321 -0.0944  0.2489
  798POPS   D2A10714   6.276   5.956   6.953  0.0895 -0.0396 -0.0159
  798POPS   C3A10715   6.481   6.002   7.343  0.0438  0.0578  0.7476
  798POPS   C4A10716   6.724   5.943   7.810 -0.1023 -0.1044  0.1858
  798POPS   C1B10717   6.332   4.779   6.982 -0.0022  0.1474  0.2790
  798POPS   C2B10718   6.150   4.670   7.360 -0.0833 -0.1401  0.2885
  798POPS   C3B10719   6.027   4.484   7.629  0.1032  0.0110  0.0970
  798POPS   C4B10720   5.744   4.163   7.856 -0.0590 -0.1779 -0.0591
  799POPS   CNO10721   8.342  10.774   5.053  0.0496 -0.0070  0.2149
  799POPS   PO410722   8.244  10.692   5.414  0.0216  0.0744  0.0261
  799POPS   GL110723   8.428  10.560   5.764  0.0230 -0.0440 -0.2049
  799POPS   GL210724   8.452  10.256   5.759  0.0625 -0.0285  0.3748
  799POPS   C1A10725   8.448  10.528   6.164  0.4324  0.1509  0.3100
  799POPS   D2A10726   8.355  10.602   6.649 -0.0308 -0.0470  0.2154
  799POPS   C3A10727   8.606  10.457   6.918 -0.0548 -0.1611 -0.0107
  799POPS   C4A10728   8.958  10.207   7.167  0.2290  0.1585  0.2667
  799POPS   C1B10729   8.642  10.058   6.123  0.2015 -0.3599  0.0956
  799POPS   C2B10730   8.831  10.022   6.586 -0.0891 -0.1776 -0.2240
  799POPS   C3B10731   9.219  10.123   6.709 -0.0528 -0.1518  0.0217
  799POPS   C4B10732   9.360   9.787   6.984  0.0448  0.0741 -0.2891
  800POPS   CNO10733   5.236   1.551   6.139  0.1019 -0.0181 -0.3038
  800POPS   PO410734   5.110   1.092   6.133  0.0002 -0.0883  0.1427
  800POPS   GL110735   5.330   0.858   6.575  0.0526  0.0275 -0.2632
  800POPS   GL210736   5.092   0.902   6.786  0.1677 -0.0777 -0.0877
  800POPS   C1A10737   5.627   0.641   6.887  0.2951  0.1499 -0.0930
  800POPS   D2A10738   5.954   0.818   7.083 -0.0749 -0.1629  0.1982
  800POPS   C3A10739   6.016   0.856   7.595  0.1572 -0.0007 -0.1053
  800POPS   C4A10740   6.029   1.149   7.836  0.1416 -0.1083 -0.1153
  800POPS   C1B10741   5.103   0.852   7.179  0.0231  0.1722  0.2703
  800POPS   C2B10742   4.911   0.828   7.604  0.0016  0.2979 -0.1284
  800POPS   C3B10743   5.061   0.635   8.021  0.1901 -0.0233  0.0863
  800POPS   C4B10744   5.201   0.770   8.429  0.0047 -0.3781  0.2723
  801POPS   CNO10745  13.450   6.479   5.471  0.1188 -0.1306  0.0882
  801POPS   PO410746  13.085   6.466   5.796  0.1117  0.0034  0.1401
  801POPS   GL110747  13.055   6.417   6.291 -0.1626 -0.1025  0.0049
  801POPS   GL210748  13.340   6.477   6.346  0.0114  0.1897  0.1276
  801POPS   C1A10749  13.099   6.392   6.762 -0.1474  0.0656  0.0626
  801POPS   D2A10750  13.350   6.307   7.071 -0.0671 -0.2881  0.3387
  801POPS   C3A10751  13.421   5.890   7.103 -0.1800 -0.2329  0.0312
  801POPS   C4A10752  13.661   5.544   6.906  0.1854  0.1137  0.2050
  801POPS   C1B10753  13.629   6.508   6.602  0.0835 -0.1258 -0.1607
  801POPS   C2B10754  13.748   6.634   6.982 -0.4681 -0.0200 -0.0617
  801POPS   C3B10755  13.695   7.020   7.200 -0.0130  0.4894 -0.1724
  801POPS   C4B10756  13.423   7.313   7.411 -0.0315  0.2997 -0.2891
  802POPS   CNO10757  16.991  13.294   5.723  0.0752 -0.1969  0.0212
  802POPS   PO410758  17.400  13.518   5.802  0.5039  0.0038  0.1635
  802POPS   GL110759  17.371  13.438   6.202 -0.1852 -0.0206 -0.2645
  802POPS   GL210760  16.979  13.333   6.266  0.1839  0.0516 -0.0873
  802POPS   C1A10761  17.654  13.349   6.554  0.0352  0.0847 -0.1076
  802POPS   D2A10762  17.989  13.370   6.702  0.1538  0.0921 -0.1253
  802POPS   C3A10763  18.335  13.353   6.491  0.0856 -0.1778 -0.0967
  802POPS   C4A10764  18.684  13.430   6.425 -0.2219  0.2125  0.1140
  802POPS   C1B10765  17.198  13.077   6.628  0.1519  0.2515  0.0840
  802POPS   C2B10766  17.144  12.953   6.998  0.1129  0.2472 -0.0878
  802POPS   C3B10767  16.751  12.906   7.246  0.2013  0.5128 -0.0075
  802POPS   C4B10768  16.546  13.146   7.579 -0.1147  0.2547  0.2119
  803POPS   CNO10769   8.911  16.017   5.695  0.1615 -0.2096  0.2469
  803POPS   PO410770   8.623  15.763   5.963  0.1129  0.0025 -0.1264
  803POPS   GL110771   8.546  15.952   6.391 -0.1184 -0.2978 -0.1251
  803POPS   GL210772   8.454  16.321   6.350  0.1935 -0.1869 -0.0252
  803POPS   C1A10773   8.571  15.957   6.845 -0.0142 -0.1758 -0.0819
  803POPS   D2A10774   8.417  15.978   7.265 -0.0621 -0.1375  0.1522
  803POPS   C3A10775   8.579  15.698   7.656  0.0585 -0.3304 -0.0224
  803POPS   C4A10776   8.625  15.455   8.072  0.1224  0.1583  0.0165
  803POPS   C1B10777   8.157  16.336   6.599 -0.2366 -0.0520 -0.0468
  803POPS   C2B10778   8.042  16.267   7.037 -0.0428 -0.0284 -0.2200
  803POPS   C3B10779   8.067  16.201   7.467 -0.0972 -0.1651 -0.2407
  803POPS   C4B10780   8.291  16.150   7.816 -0.0725  0.3036 -0.0085
  804POPS   CNO10781   3.884   4.954   5.935  0.1385 -0.1234 -0.0598
  804POPS   PO410782   3.628   5.347   5.760  0.1111  0.1368  0.1342
  804POPS   GL110783   3.468   5.460   6.098  0.0661  0.0350 -0.3929
  804POPS   GL210784   3.218   5.197   6.166 -0.1020  0.2068 -0.1497
  804POPS   C1A10785   3.334   5.565   6.595  0.2242  0.2195 -0.2561
  804POPS   D2A10786   3.607   5.790   6.951 -0.4124 -0.0493  0.1030
  804POPS   C3A10787   3.581   5.896   7.339 -0.0109 -0.0869 -0.1168
  804POPS   C4A10788   3.353   5.687   7.651  0.0527  0.0802  0.2752
  804POPS   C1B10789   3.292   5.081   6.642  0.0423 -0.1502 -0.1191
  804POPS   C2B10790   3.562   4.885   6.826  0.0578 -0.1741  0.1728
  804POPS   C3B10791   3.873   4.884   7.081 -0.0106 -0.4163  0.2166
  804POPS   C4B10792   4.248   5.055   7.161 -0.1645  0.1801 -0.3901
  805POPS   CNO10793   9.815  16.343   5.150 -0.1774 -0.0338 -0.2698
  805POPS   PO410794   9.694  15.935   5.453 -0.1309 -0.3277  0.2423
  805POPS   GL110795   9.783  15.860   5.946  0.0141 -0.0965  0.1691
  805POPS   GL210796   9.894  16.192   6.078  0.0825 -0.0521 -0.0388
  805POPS   C1A10797   9.620  15.720   6.221  0.5286 -0.1065 -0.1728
  805POPS   D2A10798   9.722  15.668   6.529 -0.1525 -0.1447  0.0179
  805POPS   C3A10799   9.427  15.457   6.823  0.2927 -0.4070  0.1302
  805POPS   C4A10800   9.109  15.266   6.738  0.0283  0.2170  0.1686
  805POPS   C1B10801  10.121  16.125   6.441  0.0816 -0.0182 -0.1933
  805POPS   C2B10802  10.539  16.222   6.700 -0.0389 -0.2191  0.0600
  805POPS   C3B10803  10.569  16.125   7.041 -0.0594 -0.1330  0.2506
  805POPS   C4B10804  10.591  16.194   7.431  0.0639 -0.2254 -0.4754
  806POPS   CNO10805   0.362  11.526   5.624 -0.0090 -0.4337 -0.1350
  806POPS   PO410806   0.101  11.829   5.837 -0.1528 -0.2125 -0.2149
  806POPS   GL110807   0.126  11.901   6.279 -0.2821  0.0194  0.0681
  806POPS   GL210808   0.445  12.131   6.407  0.1010  0.3450  0.0855
  806POPS   C1A10809   0.053  12.099   6.728 -0.0440  0.3588  0.3409
  806POPS   D2A10810  -0.139  11.840   7.001 -0.1370  0.1227 -0.3470
  806POPS   C3A10811  -0.512  11.883   7.238  0.1116 -0.0297  0.0601
  806POPS   C4A10812  -0.680  11.557   7.503 -0.2784 -0.0751  0.2604
  806POPS   C1B10813   0.538  12.173   6.877 -0.0632 -0.2057 -0.1106
  806POPS   C2B10814   0.826  12.206   7.262 -0.0931 -0.1318  0.3442
  806POPS   C3B10815   1.118  12.379   7.414  0.6565  0.0808  0.0989
  806POPS   C4B10816   1.398  12.442   7.600  0.1946  0.0500 -0.0739
  807POPS   CNO10817  15.143   8.694   5.558 -0.1904  0.2012 -0.1909
  807POPS   PO410818  15.288   8.326   5.503 -0.1813 -0.1763  0.0370
  807POPS   GL110819  15.317   8.440   6.007 -0.4374  0.2058  0.0023
  807POPS   GL210820  14.833   8.444   6.084 -0.0079 -0.0877 -0.1130
  807POPS   C1A10821  15.449   8.232   6.413  0.0071 -0.2858  0.0900
  807POPS   D2A10822  15.730   7.826   6.579 -0.0193 -0.1529  0.0014
  807POPS   C3A10823  15.891   7.890   7.025 -0.1059 -0.2295 -0.0230
  807POPS   C4A10824  16.142   7.815   7.402  0.0430 -0.0183 -0.2062
  807POPS   C1B10825  15.074   8.466   6.576 -0.0560  0.0009 -0.1754
  807POPS   C2B10826  15.114   8.707   7.008 -0.2332  0.1529 -0.0904
  807POPS   C3B10827  15.426   8.645   7.267 -0.1404 -0.1253  0.0830
  807POPS   C4B10828  15.663   8.398   7.437  0.2842 -0.0917 -0.5392
  808POPS   CNO10829   3.542   1.299   6.109 -0.2056  0.2578  0.0382
  808POPS   PO410830   3.361   1.554   6.385 -0.2685 -0.1545  0.0232
  808POPS   GL110831   3.511   1.807   6.663 -0.1187 -0.3241 -0.0504
  808POPS   GL210832   3.849   1.884   6.552  0.1827  0.1976 -0.0771
  808POPS   C1A10833   3.714   1.734   7.036 -0.0235 -0.0833 -0.0320
  808POPS   D2A10834   3.757   1.691   7.343  0.0017 -0.0948 -0.0482
  808POPS   C3A10835   4.006   1.850   7.617 -0.2028 -0.1078 -0.2752
  808POPS   C4A10836   3.923   1.942   7.990 -0.0121  0.0424 -0.1331
  808POPS   C1B10837   3.867   2.129   6.814  0.2561 -0.0017 -0.0220
  808POPS   C2B10838   3.684   2.346   7.031  0.1324 -0.0375 -0.0640
  808POPS   C3B10839   3.533   2.244   7.453  0.2561  0.1712 -0.0420
  808POPS   C4B10840   3.512   2.228   7.981 -0.1814  0.2186  0.2618
  809POPS   CNO10841  10.438   8.919   4.914 -0.1260 -0.2303 -0.2570
  809POPS   PO410842  10.459   8.851   5.363  0.0570 -0.0058  0.1382
  809POPS   GL110843  10.660   8.885   5.767 -0.0549 -0.1640  0.1102
  809POPS   GL210844  10.425   8.875   6.005 -0.0438 -0.0506  0.1744
  809POPS   C1A10845  10.867   8.720   6.183  0.0833  0.2980  0.1467
  809POPS   D2A10846  10.901   8.886   6.523  0.0892 -0.1749 -0.0418
  809POPS   C3A10847  11.042   8.753   6.985  0.0275  0.0946 -0.2174
  809POPS   C4A10848  11.098   8.549   7.371 -0.2602 -0.2058 -0.2152
  809POPS   C1B10849  10.220   8.681   6.363  0.0774  0.1107 -0.2059
  809POPS   C2B10850  10.074   8.822   6.817  0.2223 -0.2784  0.1651
  809POPS   C3B10851  10.085   8.990   7.199  0.0119 -0.2401  0.0814
  809POPS   C4B10852  10.175   8.904   7.621  0.1309  0.3475  0.2917
  810POPS   CNO10853   2.388  16.504   5.687 -0.1358  0.2010  0.0623
  810POPS   PO410854   2.835  16.522   5.822 -0.3541  0.2899 -0.0086
  810POPS   GL110855   2.851  16.267   6.280 -0.1202  0.3713  0.4950
  810POPS   GL210856   2.914  15.833   6.363  0.1105 -0.1495  0.2970
  810POPS   C1A10857   2.913  16.316   6.637  0.1206 -0.3552  0.1190
  810POPS   D2A10858   2.854  16.128   6.971  0.3166  0.0704  0.3496
  810POPS   C3A10859   3.076  16.119   7.391  0.0164  0.2406  0.0050
  810POPS   C4A10860   3.293  16.156   7.736 -0.1116  0.0551 -0.0196
  810POPS   C1B10861   2.773  15.680   6.777  0.3874 -0.0316 -0.1601
  810POPS   C2B10862   2.730  15.774   7.248 -0.0872  0.0485  0.0390
  810POPS   C3B10863   2.582  15.906   7.467 -0.0061 -0.1042  0.1641
  810POPS   C4B10864   2.656  16.152   7.761 -0.1205 -0.1325  0.1282
  811POPS   CNO10865   7.379  13.177   5.217  0.1049  0.1155 -0.2226
  811POPS   PO410866   7.296  13.599   5.492  0.2861 -0.4737  0.0584
  811POPS   GL110867   7.318  13.766   5.975  0.4094 -0.0204  0.1367
  811POPS   GL210868   7.550  13.821   6.039 -0.1374 -0.5062  0.0968
  811POPS   C1A10869   7.064  14.082   6.306 -0.4002  0.0669  0.2185
  811POPS   D2A10870   7.314  14.182   6.617 -0.2248  0.2181  0.0257
  811POPS   C3A10871   7.325  13.983   6.991 -0.4047  0.2252 -0.3493
  811POPS   C4A10872   6.956  14.114   7.354  0.0988  0.5089  0.3397
  811POPS   C1B10873   7.567  13.620   6.431 -0.2515 -0.4714  0.0996
  811POPS   C2B10874   7.732  13.533   6.833 -0.0045  0.0570  0.0355
  811POPS   C3B10875   7.805  13.749   7.229 -0.0416  0.2936  0.2987
  811POPS   C4B10876   7.821  13.616   7.624  0.1640 -0.1441 -0.1001
  812YOPS   CNO10877  14.699  13.410   5.449  0.2564  0.0665  0.0995
  812YOPS   PO410878  14.448  13.552   5.806 -0.1805  0.0570  0.2305
  812YOPS   GL110879  14.358  13.496   6.230 -0.4805 -0.3631 -0.2503
  812YOPS   GL210880  14.115  13.808   6.385  0.0282  0.1119  0.2128
  812YOPS   C1A10881  14.156  13.240   6.602  0.0803 -0.1269 -0.1167
  812YOPS   D2A10882  14.207  13.192   7.083 -0.1713  0.2339 -0.4534
  812YOPS   C3A10883  14.521  13.316   7.424  0.1460 -0.0107 -0.0864
  812YOPS   C4A10884  14.742  13.032   7.677  0.0673  0.1846  0.2139
  812YOPS   C1B10885  13.915  13.876   6.775  0.0673 -0.4252 -0.1040
  812YOPS   C2B10886  13.675  14.258   7.004  0.3207  0.2400 -0.2003
  812YOPS   D3B10887  13.432  14.176   7.374  0.2010  0.2283  0.2241
  812YOPS   C4B10888  12.950  14.020   7.435  0.2326  0.1152  0.1025
  813YOPS   CNO10889   7.656  15.310   5.250  0.2231  0.0076  0.2073
  813YOPS   PO410890   7.600  15.023   5.646 -0.1594  0.1902 -0.0988
  813YOPS   GL110891   7.785  15.021   6.107  0.1278 -0.0666 -0.0698
  813YOPS   GL210892   7.478  15.004   6.245 -0.1140  0.1074 -0.0189
  813YOPS   C1A10893   7.999  14.854   6.390  0.0102  0.2148  0.4217
  813YOPS   D2A10894   8.177  14.489   6.466 -0.0784  0.1544 -0.0852
  813YOPS   C3A10895   8.384  14.030   6.640  0.1747 -0.2442 -0.1595
  813YOPS   C4A10896   8.110  13.712   6.495 -0.0190  0.0850 -0.2549
  813YOPS   C1B10897   7.538  14.993   6.574 -0.0479  0.0383  0.2468
  813YOPS   C2B10898   7.541  14.977   7.045 -0.1489 -0.1041 -0.1145
  813YOPS   D3B10899   7.656  14.722   7.403  0.4016  0.1219 -0.1210
  813YOPS   C4B10900   7.758  14.735   7.854 -0.1982 -0.1324  0.0419
  814YOPS   CNO10901  16.199   9.156   6.002 -0.0630  0.3962  0.1515
  814YOPS   PO410902  16.552   9.260   6.022 -0.1398  0.3374  0.1124
  814YOPS   GL110903  16.619   9.025   6.330 -0.1118 -0.1468 -0.1930
  814YOPS   GL210904  16.446   8.801   6.283 -0.2358 -0.0461  0.1751
  814YOPS   C1A10905  16.614   9.041   6.724  0.1358 -0.2800  0.5103
  814YOPS   D2A10906  16.566   9.168   7.102 -0.2384 -0.1588 -0.2844
  814YOPS   C3A10907  16.680   9.321   7.457 -0.2632  0.5001  0.0723
  814YOPS   C4A10908  17.136   9.289   7.523 -0.1620 -0.4376  0.0236
  814YOPS   C1B10909  16.056   8.840   6.584 -0.4766 -0.1712 -0.1810
  814YOPS   C2B10910  15.922   8.726   7.056  0.3558 -0.2264  0.1721
  814YOPS   D3B10911  16.308   8.801   7.304  0.2841  0.1063 -0.2040
  814YOPS   C4B10912  16.352   9.044   7.683  0.0930  0.1433  0.0210
  815YOPS   CNO10913   6.080   9.750   5.616 -0.2100  0.1280 -0.0583
  815YOPS   PO410914   5.712   9.563   5.722  0.2429  0.2656  0.4697
  815YOPS   GL110915   5.752   9.439   6.153  0.2100  0.2809  0.2382
  815YOPS   GL210916   5.641   9.635   6.296 -0.3170 -0.2836  0.1734
  815YOPS   C1A10917   6.004   9.192   6.443  0.2928  0.2262  0.3918
  815YOPS   D2A10918   6.064   9.427   6.771  0.1928  0.0648 -0.0561
  815YOPS   C3A10919   6.209   9.548   7.154 -0.0535  0.2253  0.0096
  815YOPS   C4A10920   6.194   9.186   7.428 -0.1177 -0.0086 -0.1387
  815YOPS   C1B10921   5.714   9.792   6.673 -0.0029  0.2963  0.3135
  815YOPS   C2B10922   5.679   9.621   7.065 -0.1520  0.0440 -0.1284
  815YOPS   D3B10923   5.851   9.511   7.480  0.2120  0.1857 -0.1691
  815YOPS   C4B10924   5.539   9.258   7.759 -0.0436 -0.2570 -0.1781
  816YOPS   CNO10925   6.622  11.517   5.504  0.0260  0.2332  0.1077
  816YOPS   PO410926   6.385  11.906   5.693  0.1149 -0.1623 -0.1243
  816YOPS   GL110927   6.589  11.860   6.094  0.0424  0.1244  0.2215
  816YOPS   GL210928   6.695  11.471   5.993  0.0779 -0.2199 -0.0348
  816YOPS   C1A10929   6.753  12.021   6.414  0.0244  0.2493  0.0028
  816YOPS   D2A10930   7.056  12.094   6.883  0.0996 -0.0092  0.0097
  816YOPS   C3A10931   7.349  12.025   7.251 -0.2782 -0.0916  0.0186
  816YOPS   C4A10932   7.464  12.219   7.546 -0.2027 -0.0059 -0.0270
  816YOPS   C1B10933   7.110  11.548   6.157  0.2032  0.1719  0.0848
  816YOPS   C2B10934   7.523  11.738   6.305 -0.2214 -0.2451  0.5364
  816YOPS   D3B10935   7.560  11.913   6.762  0.0244 -0.0153 -0.3508
  816YOPS   C4B10936   7.690  11.516   6.923  0.0318  0.0117 -0.0604
  817YOPS   CNO10937  15.995  16.061   5.433 -0.0833  0.0137 -0.1108
  817YOPS   PO410938  16.243  16.226   5.735  0.1102  0.1222 -0.0033
  817YOPS   GL110939  16.097  16.239   6.147 -0.1730  0.0765  0.4702
  817YOPS   GL210940  15.920  16.695   6.120 -0.0863  0.0992 -0.0255
  817YOPS   C1A10941  15.910  16.296   6.632 -0.0333  0.1190  0.1738
  817YOPS   D2A10942  15.951  16.257   7.070  0.1053 -0.0067  0.1708
  817YOPS   C3A10943  16.104  16.231   7.485  0.3755 -0.2763  0.3020
  817YOPS   C4A10944  16.328  16.501   7.670  0.0898 -0.0173  0.1304
  817YOPS   C1B10945  15.865  16.880   6.455  0.1452  0.1257  0.0794
  817YOPS   C2B10946  15.865  16.836   6.879  0.2385 -0.1659 -0.0591
  817YOPS   D3B10947  15.958  16.696   7.219  0.0416  0.0514  0.0786
  817YOPS   C4B10948  15.892  16.814   7.548  0.3268 -0.3108  0.0455
  818YOPS   CNO10949   5.570  12.507   5.366  0.4776 -0.1160 -0.5377
  818YOPS   PO410950   5.735  12.556   5.743  0.0099 -0.4409 -0.3111
  818YOPS   GL110951   5.535  12.636   6.059 -0.0732  0.1367  0.1112
  818YOPS   GL210952   5.406  12.376   6.202  0.1771  0.1823  0.0288
  818YOPS   C1A10953   5.175  12.767   6.425  0.0645  0.4482 -0.0241
  818YOPS   D2A10954   5.090  12.687   6.909 -0.1765  0.2724 -0.0819
  818YOPS   C3A10955   4.824  12.482   7.124  0.1706  0.1802  0.2362
  818YOPS   C4A10956   4.500  12.716   7.476  0.1507 -0.0612 -0.0758
  818YOPS   C1B10957   5.511  12.490   6.661 -0.1897 -0.0342 -0.1189
  818YOPS   C2B10958   5.795  12.474   6.974 -0.0958  0.0074  0.1475
  818YOPS   D3B10959   6.236  12.265   7.038 -0.0571  0.0229  0.2311
  818YOPS   C4B10960   6.210  12.138   6.656  0.2032  0.0919 -0.0705
  819YOPS   CNO10961   3.117  18.457   6.150  0.0964  0.0941  0.1628
  819YOPS   PO410962   3.293  18.847   6.269  0.2021  0.3303  0.2927
  819YOPS   GL110963   3.160  18.648   6.643 -0.0553 -0.2157  0.0752
  819YOPS   GL210964   2.889  18.829   6.607  0.2072 -0.3653 -0.0398
  819YOPS   C1A10965   3.155  18.483   6.989  0.3000 -0.1234  0.2956
  819YOPS   D2A10966   2.986  18.211   7.358  0.1002 -0.0948  0.3169
  819YOPS   C3A10967   3.042  17.842   7.612  0.1735  0.2562  0.2142
  819YOPS   C4A10968   3.219  17.719   8.027  0.4003  0.2417  0.1405
  819YOPS   C1B10969   2.714  18.772   6.974  0.0242  0.2083  0.1556
  819YOPS   C2B10970   2.649  18.630   7.352  0.1554  0.0400  0.1371
  819YOPS   D3B10971   2.582  18.783   7.718  0.2726 -0.0431 -0.1909
  819YOPS   C4B10972   2.732  18.610   8.014 -0.0041  0.1734 -0.4711
  820YOPS   CNO10973  10.965   2.924   5.662  0.0426  0.1684  0.0594
  820YOPS   PO410974  11.416   2.890   5.889  0.1212 -0.0400 -0.0279
  820YOPS   GL110975  11.455   2.480   6.149  0.2869 -0.1765  0.1145
  820YOPS   GL210976  11.750   2.557   6.352  0.1989 -0.1772 -0.3946
  820YOPS   C1A10977  11.322   2.334   6.465 -0.0889  0.4631 -0.0492
  820YOPS   D2A10978  11.199   2.164   6.883  0.1847  0.0079  0.1368
  820YOPS   C3A10979  11.028   2.111   7.354 -0.2303  0.4038  0.3789
  820YOPS   C4A10980  10.948   2.520   7.675 -0.1451 -0.1032 -0.1421
  820YOPS   C1B10981  11.468   2.798   6.606 -0.0943 -0.1881 -0.1368
  820YOPS   C2B10982  11.429   2.691   6.987 -0.1131  0.4360 -0.0859
  820YOPS   D3B10983  11.289   2.515   7.308  0.0260 -0.1431  0.0519
  820YOPS   C4B10984  10.843   2.594   7.204 -0.1899 -0.0597  0.1970
  821YOPS   CNO10985   7.481   6.947   5.549 -0.0845 -0.1678  0.3061
  821YOPS   PO410986   7.645   7.310   5.618  0.2020  0.1387 -0.2388
  821YOPS   GL110987   7.368   7.338   5.940  0.0033  0.2570  0.2507
  821YOPS   GL210988   7.114   7.528   6.022 -0.2859 -0.1332 -0.1999
  821YOPS   C1A10989   7.382   7.456   6.407  0.2432  0.1227 -0.1665
  821YOPS   D2A10990   7.422   7.793   6.756 -0.0759  0.1646  0.3701
  821YOPS   C3A10991   7.220   8.164   6.966 -0.2589  0.0333  0.0601
  821YOPS   C4A10992   6.895   8.358   6.769 -0.0834  0.2192  0.1954
  821YOPS   C1B10993   7.261   7.971   6.167  0.0218 -0.0907 -0.2666
  821YOPS   C2B10994   7.406   8.282   6.463 -0.0230  0.3183  0.1779
  821YOPS   D3B10995   7.459   8.568   6.769  0.0389  0.0374  0.2071
  821YOPS   C4B10996   7.287   8.891   6.674  0.3004 -0.0636  0.1931
  822YOPS   CNO10997   2.167  10.784   5.913  0.0321  0.1369 -0.2159
  822YOPS   PO410998   1.741  10.780   6.024 -0.4174 -0.0690  0.1977
  822YOPS   GL110999   1.548  10.483   6.310  0.0727 -0.6923 -0.2684
  822YOPS   GL211000   1.734  10.356   6.549  0.1038 -0.2709  0.1341
  822YOPS   C1A11001   1.237  10.306   6.605  0.0292  0.1723  0.1802
  822YOPS   D2A11002   1.121  10.487   6.994  0.1458 -0.0708 -0.0739
  822YOPS   C3A11003   1.160  10.637   7.322 -0.0687  0.2902  0.2093
  822YOPS   C4A11004   0.803  10.830   7.531  0.2748  0.0052 -0.0951
  822YOPS   C1B11005   1.609  10.391   7.051  0.1223  0.0555 -0.0962
  822YOPS   C2B11006   1.620  10.415   7.535 -0.0239  0.0126  0.0673
  822YOPS   D3B11007   1.710  10.547   7.922 -0.0628  0.0711  0.1395
  822YOPS   C4B11008   1.750  10.391   8.305 -0.0971 -0.0963  0.0460
  823YOPS   CNO11009  15.575  13.129   5.792  0.2210  0.1722 -0.0961
  823YOPS   PO411010  15.561  13.533   5.776 -0.0577 -0.0580  0.3670
  823YOPS   GL111011  15.441  13.614   6.164 -0.3120 -0.1039  0.1037
  823YOPS   GL211012  15.751  13.559   6.324  0.1432 -0.2240 -0.1285
  823YOPS   C1A11013  15.217  13.824   6.629  0.0813  0.2472  0.0609
  823YOPS   D2A11014  14.995  13.759   7.067  0.0971 -0.0860  0.0283
  823YOPS   C3A11015  14.804  13.945   7.400 -0.0611 -0.0116 -0.0344
  823YOPS   C4A11016  14.483  13.857   7.697  0.3211 -0.0852  0.1195
  823YOPS   C1B11017  15.756  13.845   6.709 -0.0579  0.1236  0.2114
  823YOPS   C2B11018  15.510  13.846   6.989  0.0559  0.1823 -0.2451
  823YOPS   D3B11019  15.338  13.877   7.459  0.0771  0.1010  0.0377
  823YOPS   C4B11020  15.520  13.946   7.777  0.1464 -0.0914 -0.2021
  824YOPS   CNO11021  18.556  10.172   5.231  0.1523  0.0966  0.0345
  824YOPS   PO411022  19.024  10.200   5.422 -0.0165 -0.0652  0.2336
  824YOPS   GL111023  18.975  10.200   5.880 -0.3415 -0.0136  0.0486
  824YOPS   GL211024  19.111   9.974   6.088  0.2704  0.3433 -0.5294
  824YOPS   C1A11025  19.062  10.487   6.229 -0.0555 -0.0607  0.0113
  824YOPS   D2A11026  19.216  10.926   6.213  0.4131 -0.1044  0.1141
  824YOPS   C3A11027  19.410  11.102   6.504 -0.3060  0.0920 -0.0125
  824YOPS   C4A11028  19.732  11.426   6.568  0.0927  0.1523  0.1516
  824YOPS   C1B11029  19.263   9.576   6.331  0.1406  0.0974  0.3545
  824YOPS   C2B11030  19.673   9.364   6.471 -0.3626 -0.1017  0.1697
  824YOPS   D3B11031  19.711   9.091   6.877 -0.0913 -0.1133 -0.3775
  824YOPS   C4B11032  19.771   9.093   7.344  0.1435  0.0278  0.1016
  825YOPS   CNO11033  17.984  11.066   6.005 -0.1481 -0.1897 -0.0987
  825YOPS   PO411034  18.212  10.675   5.915  0.1873 -0.2139 -0.2124
  825YOPS   GL111035  18.136  10.600   6.365  0.1326  0.1908 -0.2955
  825YOPS   GL211036  17.864  10.492   6.597 -0.1495 -0.2674  0.4612
  825YOPS   C1A11037  18.308  10.749   6.705 -0.0055  0.0006 -0.4592
  825YOPS   D2A11038  18.540  10.865   7.052 -0.0242  0.1841 -0.2974
  825YOPS   C3A11039  18.570  10.965   7.452  0.0076  0.1591  0.3251
  825YOPS   C4A11040  18.947  11.088   7.705 -0.0551  0.0406 -0.2985
  825YOPS   C1B11041  17.606  10.051   6.670 -0.0977 -0.2669  0.0686
  825YOPS   C2B11042  17.468   9.782   6.904 -0.0528 -0.0291 -0.2187
  825YOPS   D3B11043  17.524   9.642   7.271  0.0266 -0.4130 -0.0701
  825YOPS   C4B11044  17.454   9.680   7.741  0.2085 -0.2830  0.0096
  826YOPS   CNO11045  17.998   6.754   5.633 -0.3994  0.0323 -0.0464
  826YOPS   PO411046  18.086   6.764   6.089  0.1580 -0.0152 -0.0295
  826YOPS   GL111047  18.189   6.703   6.441  0.0367 -0.3435 -0.1118
  826YOPS   GL211048  18.529   6.819   6.517  0.1094 -0.3213  0.2824
  826YOPS   C1A11049  17.937   6.543   6.847  0.0481  0.2425  0.0478
  826YOPS   D2A11050  17.967   6.527   7.319 -0.0840  0.1567 -0.2432
  826YOPS   C3A11051  17.671   6.613   7.560 -0.4708 -0.1230  0.1454
  826YOPS   C4A11052  17.485   7.057   7.546 -0.3039 -0.0876  0.0149
  826YOPS   C1B11053  18.550   6.802   6.862 -0.0588  0.2337 -0.2126
  826YOPS   C2B11054  18.512   6.681   7.355  0.4999  0.0552 -0.0186
  826YOPS   D3B11055  18.517   6.997   7.651  0.1273  0.0709  0.1488
  826YOPS   C4B11056  18.242   7.395   7.742 -0.2701 -0.0009 -0.4108
  827YOPS   CNO11057   1.684   6.176   5.597 -0.0013  0.1685  0.2086
  827YOPS   PO411058   1.972   5.978   5.859  0.0773  0.0780 -0.0260
  827YOPS   GL111059   2.053   5.881   6.153  0.0312  0.0651 -0.4757
  827YOPS   GL211060   1.826   5.919   6.356  0.1866  0.1035  0.1328
  827YOPS   C1A11061   2.265   5.899   6.601  0.0416  0.4407 -0.0929
  827YOPS   D2A11062   2.306   6.109   6.990  0.1115 -0.1661 -0.0121
  827YOPS   C3A11063   2.548   6.172   7.406 -0.2566  0.1381  0.3637
  827YOPS   C4A11064   2.840   6.317   7.517 -0.0480  0.1006  0.2936
  827YOPS   C1B11065   1.887   5.510   6.431 -0.0092 -0.2197  0.1578
  827YOPS   C2B11066   1.612   5.140   6.318  0.2734  0.2373 -0.0681
  827YOPS   D3B11067   1.508   4.725   6.775 -0.0042  0.0086  0.1912
  827YOPS   C4B11068   1.561   4.769   7.143  0.0620  0.1263  0.1360
  828YOPS   CNO11069  16.082  16.559   5.268 -0.2229  0.1768 -0.0623
  828YOPS   PO411070  15.812  16.464   5.673 -0.0448 -0.0380 -0.2406
  828YOPS   GL111071  15.601  16.357   6.081  0.2072  0.3046 -0.0226
  828YOPS   GL211072  15.455  16.582   6.312  0.1161  0.2639  0.0200
  828YOPS   C1A11073  15.546  16.085   6.399  0.0067 -0.3494 -0.0476
  828YOPS   D2A11074  15.411  15.907   6.776 -0.1674 -0.0669  0.0017
  828YOPS   C3A11075  15.566  15.711   7.131 -0.2759  0.1951 -0.6929
  828YOPS   C4A11076  15.752  15.331   7.327 -0.0070  0.4729 -0.0820
  828YOPS   C1B11077  15.445  16.410   6.812  0.2536 -0.2808  0.3384
  828YOPS   C2B11078  15.461  16.360   7.165  0.1029  0.1171  0.5224
  828YOPS   D3B11079  15.591  16.412   7.657 -0.0452 -0.0123 -0.0447
  828YOPS   C4B11080  15.819  16.545   7.920 -0.3118  0.6345 -0.2387
  829YOPS   CNO11081   3.716   6.350   5.628  0.0277 -0.0895  0.1347
  829YOPS   PO411082   4.033   6.608   5.675 -0.1842 -0.3003 -0.3816
  829YOPS   GL111083   3.796   6.510   6.087 -0.0476  0.1055  0.1138
  829YOPS   GL211084   3.577   6.314   6.181  0.0837 -0.0746  0.0183
  829YOPS   C1A11085   3.976   6.352   6.434 -0.2201 -0.1132  0.2435
  829YOPS   D2A11086   4.178   6.351   6.868  0.0078 -0.4206 -0.1065
  829YOPS   C3A11087   4.191   6.556   7.204  0.3375 -0.1413  0.0773
  829YOPS   C4A11088   4.192   6.860   7.453 -0.0066 -0.0131  0.0011
  829YOPS   C1B11089   3.551   5.975   6.457  0.0067 -0.0587 -0.0590
  829YOPS   C2B11090   3.885   5.664   6.515  0.1277  0.1488 -0.1447
  829YOPS   D3B11091   4.194   5.481   6.311 -0.1654  0.0833  0.3777
  829YOPS   C4B11092   4.336   5.087   6.485  0.0033  0.1941  0.1810
  830YOPS   CNO11093   5.917   8.801   5.384  0.1520  0.0624 -0.0427
  830YOPS   PO411094   5.690   8.635   5.631 -0.0553  0.0788  0.1208
  830YOPS   GL111095   5.898   8.527   5.955 -0.3223 -0.2318  0.1831
  830YOPS   GL211096   5.759   8.721   6.333  0.4682 -0.1652 -0.1858
  830YOPS   C1A11097   6.204   8.838   6.190 -0.0244  0.3342 -0.2941
  830YOPS   D2A11098   6.575   8.747   6.519 -0.0174  0.0821 -0.0197
  830YOPS   C3A11099   6.801   8.863   6.908 -0.1127 -0.0909 -0.1931
  830YOPS   C4A11100   6.886   8.578   7.252  0.0786  0.0197  0.2313
  830YOPS   C1B11101   5.519   8.615   6.740 -0.1433  0.0620  0.0748
  830YOPS   C2B11102   5.334   8.464   7.132 -0.0064 -0.2257 -0.3073
  830YOPS   D3B11103   5.379   8.288   7.551  0.0348 -0.0142  0.1171
  830YOPS   C4B11104   5.328   8.512   7.933  0.0463  0.2038 -0.0627
  831YOPS   CNO11105   2.296  18.637   6.104 -0.3510  0.0610  0.1601
  831YOPS   PO411106   2.091  18.910   6.255 -0.0096 -0.0798  0.0220
  831YOPS   GL111107   2.390  18.798   6.537 -0.0239 -0.0322 -0.2978
  831YOPS   GL211108   2.383  19.125   6.644 -0.0924  0.0668  0.6408
  831YOPS   C1A11109   2.234  18.712   7.011  0.3005 -0.1874 -0.0147
  831YOPS   D2A11110   2.142  18.637   7.482 -0.1375  0.0423  0.4313
  831YOPS   C3A11111   2.149  18.574   7.900  0.0032 -0.2619 -0.2291
  831YOPS   C4A11112   1.678  18.732   8.028 -0.3823  0.0295 -0.2503
  831YOPS   C1B11113   2.404  19.126   7.152 -0.3373 -0.1506  0.0460
  831YOPS   C2B11114   2.437  19.232   7.572  0.0973  0.0073  0.0590
  831YOPS   D3B11115   2.292  19.144   8.005  0.1775  0.0907 -0.3161
  831YOPS   C4B11116   2.389  18.881   8.307 -0.0424  0.2342  0.5322
  832YOPS   CNO11117   4.440  13.264   5.801 -0.0887  0.1154 -0.1227
  832YOPS   PO411118   4.379  13.204   6.224 -0.2450  0.2910  0.3022
  832YOPS   GL111119   4.541  12.935   6.513  0.0036 -0.0070 -0.1753
  832YOPS   GL211120   4.656  12.699   6.373 -0.1080  0.1094 -0.1203
  832YOPS   C1A11121   4.528  12.889   6.987 -0.1438 -0.1048 -0.1618
  832YOPS   D2A11122   4.469  13.172   7.310  0.2901  0.3909 -0.1848
  832YOPS   C3A11123   4.389  13.155   7.655 -0.2383 -0.4049 -0.1451
  832YOPS   C4A11124   4.247  13.311   8.039 -0.4208 -0.1118 -0.0287
  832YOPS   C1B11125   4.567  12.386   6.724  0.0119  0.0596  0.3774
  832YOPS   C2B11126   4.764  11.935   6.899  0.1806 -0.1935 -0.0408
  832YOPS   D3B11127   4.856  11.888   7.262 -0.2870 -0.2765 -0.0354
  832YOPS   C4B11128   4.651  11.514   7.463 -0.1096 -0.0791 -0.1483
  833YOPS   CNO11129   9.369  12.060   5.252  0.2218 -0.0101  0.0162
  833YOPS   PO411130   9.141  11.785   5.561  0.0018  0.0805 -0.2853
  833YOPS   GL111131   9.339  11.905   5.875 -0.2247  0.0551 -0.2309
  833YOPS   GL211132   9.519  11.982   5.816 -0.2243  0.0630  0.0827
  833YOPS   C1A11133   9.241  12.017   6.318 -0.0263  0.0179  0.2975
  833YOPS   D2A11134   9.268  12.216   6.764 -0.3104  0.0822  0.0188
  833YOPS   C3A11135   9.186  12.362   7.268 -0.1603 -0.1313 -0.3217
  833YOPS   C4A11136   9.007  12.753   7.539 -0.0796 -0.0080 -0.1978
  833YOPS   C1B11137   9.745  11.960   6.185 -0.0140 -0.2277  0.0077
  833YOPS   C2B11138  10.080  12.196   6.494  0.0310 -0.1489 -0.0024
  833YOPS   D3B11139  10.399  12.421   6.743  0.2499  0.1277 -0.0837
  833YOPS   C4B11140  10.896  12.390   6.739  0.0923  0.0271  0.2131
  834YOPS   CNO11141  10.393  10.716   4.896  0.4820 -0.0885 -0.1678
  834YOPS   PO411142  10.047  10.713   5.187 -0.4784 -0.6303 -0.3446
  834YOPS   GL111143  10.174  10.689   5.686 -0.1256  0.0439 -0.3643
  834YOPS   GL211144   9.990  10.954   5.781 -0.3413 -0.0133  0.1609
  834YOPS   C1A11145  10.194  10.574   6.113 -0.1088  0.1875  0.0675
  834YOPS   D2A11146  10.608  10.292   6.202  0.0659 -0.0726  0.1250
  834YOPS   C3A11147  10.743  10.146   6.547 -0.2382  0.1247  0.3625
  834YOPS   C4A11148  10.510  10.466   6.865 -0.1675 -0.0114  0.0475
  834YOPS   C1B11149  10.151  11.066   6.195 -0.0865  0.0847 -0.1340
  834YOPS   C2B11150  10.335  11.343   6.508  0.3094  0.2258  0.2435
  834YOPS   D3B11151  10.344  11.440   7.011  0.3816 -0.0095  0.0547
  834YOPS   C4B11152   9.971  11.604   7.113  0.2050  0.0436  0.1248
  835YOPS   CNO11153  12.904   1.082   5.654 -0.3166  0.1981  0.4971
  835YOPS   PO411154  12.951   1.015   6.024  0.2787  0.2201 -0.1264
  835YOPS   GL111155  12.894   0.951   6.411  0.1048 -0.0448 -0.2955
  835YOPS   GL211156  12.556   0.982   6.480  0.2621  0.0812  0.0083
  835YOPS   C1A11157  12.959   1.012   6.792  0.2363 -0.0395  0.2973
  835YOPS   D2A11158  13.025   1.021   7.264  0.3370  0.3022  0.0617
  835YOPS   C3A11159  12.960   1.096   7.697  0.2907  0.3572 -0.1328
  835YOPS   C4A11160  12.566   1.218   7.879  0.1212  0.2944 -0.0901
  835YOPS   C1B11161  12.482   1.024   6.998  0.1703  0.2480 -0.0174
  835YOPS   C2B11162  12.603   0.893   7.379  0.2360 -0.3458 -0.3117
  835YOPS   D3B11163  12.647   0.617   7.763 -0.0968  0.3358 -0.2212
  835YOPS   C4B11164  12.800   0.264   7.610  0.1606 -0.0992  0.0152
  836YOPS   CNO11165   9.852  12.791   5.392  0.0803 -0.2318 -0.1826
  836YOPS   PO411166   9.605  12.465   5.624  0.0519  0.2512  0.0061
  836YOPS   GL111167   9.551  12.561   6.020  0.2625  0.0268 -0.0128
  836YOPS   GL211168   9.172  12.456   6.147 -0.1341  0.1129  0.2757
  836YOPS   C1A11169   9.604  12.474   6.459  0.3568 -0.1117 -0.0145
  836YOPS   D2A11170   9.746  12.557   6.870 -0.0664 -0.1002 -0.1892
  836YOPS   C3A11171   9.809  12.891   7.152  0.0423 -0.4031  0.0985
  836YOPS   C4A11172   9.817  13.047   7.593 -0.0806 -0.1130 -0.0876
  836YOPS   C1B11173   8.912  12.377   6.432  0.0016 -0.1680  0.3561
  836YOPS   C2B11174   8.729  12.472   6.852  0.2390 -0.1309 -0.1191
  836YOPS   D3B11175   8.675  12.347   7.256 -0.2390 -0.1969  0.1492
  836YOPS   C4B11176   8.784  12.124   7.583  0.1189 -0.2201  0.0928
  837YOPS   CNO11177  13.046  11.377   5.925  0.1084 -0.0489 -0.0319
  837YOPS   PO411178  13.349  11.501   5.760  0.0870 -0.1215  0.0510
  837YOPS   GL111179  13.610  11.514   5.987  0.2183 -0.0670 -0.0208
  837YOPS   GL211180  13.710  11.761   6.065 -0.1723 -0.2796  0.1044
  837YOPS   C1A11181  13.845  11.343   6.334 -0.0804  0.3892  0.0387
  837YOPS   D2A11182  14.115  11.342   6.751  0.2167 -0.4633  0.1159
  837YOPS   C3A11183  14.344  10.917   6.897  0.0984  0.3058  0.1059
  837YOPS   C4A11184  14.037  10.709   7.225  0.0578  0.0391 -0.1607
  837YOPS   C1B11185  13.859  11.764   6.648 -0.0057  0.1942  0.0954
  837YOPS   C2B11186  13.971  11.712   7.048 -0.1001 -0.0498 -0.0450
  837YOPS   D3B11187  13.977  11.698   7.483 -0.0556 -0.2185  0.1397
  837YOPS   C4B11188  13.680  11.550   7.767  0.1111  0.0064 -0.0725
  838YOPS   CNO11189  18.595  13.024   5.606  0.2879  0.0602 -0.0584
  838YOPS   PO411190  18.942  13.308   5.400  0.1193  0.1274 -0.1000
  838YOPS   GL111191  19.247  13.442   5.753 -0.0748 -0.2549  0.0308
  838YOPS   GL211192  19.510  13.278   5.994 -0.4402 -0.1445 -0.0452
  838YOPS   C1A11193  19.111  13.661   6.255  0.2223  0.2648  0.1535
  838YOPS   D2A11194  19.471  13.886   6.296  0.0153 -0.1144  0.0797
  838YOPS   C3A11195  19.598  14.114   6.697 -0.0921  0.2847  0.0542
  838YOPS   C4A11196  19.873  13.949   6.836 -0.2421  0.0006  0.0491
  838YOPS   C1B11197  19.551  13.403   6.431 -0.1842  0.2676  0.0532
  838YOPS   C2B11198  19.460  13.646   6.862  0.0767  0.0675 -0.0210
  838YOPS   D3B11199  19.689  13.746   7.207 -0.0995 -0.0456  0.1424
  838YOPS   C4B11200  19.925  13.343   7.350  0.3092 -0.2017 -0.1832
  839YOPS   CNO11201   7.135   9.218   5.050  0.2822  0.2052  0.1905
  839YOPS   PO411202   7.214   8.882   5.142  0.0193 -0.2436  0.1957
  839YOPS   GL111203   7.395   8.994   5.605  0.0009  0.2553 -0.0311
  839YOPS   GL211204   7.235   9.260   5.554  0.1116  0.4809 -0.0163
  839YOPS   C1A11205   7.669   9.228   5.886  0.0408  0.2556 -0.1917
  839YOPS   D2A11206   7.539   9.252   6.336 -0.1003  0.2200  0.0822
  839YOPS   C3A11207   7.694   9.337   6.706 -0.3544 -0.4928  0.2698
  839YOPS   C4A11208   7.575   9.010   7.026 -0.1523 -0.1947 -0.0023
  839YOPS   C1B11209   7.114   9.211   5.960  0.4163  0.1793 -0.0317
  839YOPS   C2B11210   7.035   8.771   6.235  0.0069  0.2411 -0.2160
  839YOPS   D3B11211   6.790   8.318   6.260 -0.1872 -0.1801 -0.1396
  839YOPS   C4B11212   6.898   7.845   6.461  0.0052 -0.0876 -0.1991
  840YOPS   CNO11213   2.653  12.585   5.431 -0.0337  0.2826 -0.1273
  840YOPS   PO411214   2.611  12.602   5.810  0.4210 -0.3941  0.0935
  840YOPS   GL111215   2.811  12.512   6.213 -0.0211 -0.0026 -0.2636
  840YOPS   GL211216   3.095  12.636   6.397 -0.0551 -0.0099  0.1556
  840YOPS   C1A11217   2.708  12.236   6.629  0.0932 -0.0049 -0.0059
  840YOPS   D2A11218   2.589  12.178   7.045 -0.4421  0.3720  0.0081
  840YOPS   C3A11219   2.256  12.030   7.183 -0.0582 -0.1910 -0.0850
  840YOPS   C4A11220   2.145  11.645   6.978  0.1457  0.2735 -0.0216
  840YOPS   C1B11221   3.152  12.478   6.803  0.0190 -0.3033  0.1724
  840YOPS   C2B11222   3.062  12.423   7.173  0.1175 -0.0409  0.0873
  840YOPS   D3B11223   2.713  12.333   7.502  0.1153  0.3060 -0.0390
  840YOPS   C4B11224   2.551  11.991   7.582 -0.2069  0.4028  0.1816
  841YOPS   CNO11225  16.219  11.928   5.610  0.1126 -0.0800  0.0426
  841YOPS   PO411226  16.441  11.835   5.976 -0.3069  0.0917 -0.1857
  841YOPS   GL111227  16.279  11.873   6.295 -0.2703  0.0083  0.0024
  841YOPS   GL211228  16.360  12.154   6.413  0.0243  0.0270  0.2390
  841YOPS   C1A11229  16.429  11.823   6.772  0.3166  0.0863  0.1071
  841YOPS   D2A11230  16.565  11.577   6.998  0.0958  0.1574  0.1362
  841YOPS   C3A11231  16.360  11.441   7.413 -0.1516  0.0093 -0.1772
  841YOPS   C4A11232  16.554  11.732   7.761 -0.1198  0.2353 -0.0071
  841YOPS   C1B11233  16.175  12.279   6.785 -0.1057  0.0954  0.0341
  841YOPS   C2B11234  16.026  12.364   7.069 -0.0535 -0.2478  0.1262
  841YOPS   D3B11235  16.045  12.288   7.461  0.0372  0.0135  0.1394
  841YOPS   C4B11236  15.651  12.441   7.697  0.0464 -0.0474  0.3750
  842POPE   NH311237   5.316   7.170   5.423  0.1901 -0.2527  0.0844
  842POPE   PO411238   5.786   7.150   5.403  0.1794 -0.0091  0.1870
  842POPE   GL111239   5.897   7.010   5.786 -0.0766  0.2970 -0.0642
  842POPE   GL211240   6.169   6.996   5.912 -0.2220  0.0973  0.1880
  842POPE   C1A11241   5.801   6.989   6.204  0.3276 -0.2651  0.2169
  842POPE   D2A11242   5.866   7.177   6.644 -0.3416  0.1322 -0.1668
  842POPE   C3A11243   5.666   6.878   6.952  0.1649 -0.3820 -0.1445
  842POPE   C4A11244   5.743   6.600   7.330 -0.3365 -0.3885 -0.1421
  842POPE   C1B11245   6.320   6.992   6.408 -0.0198  0.2908  0.1991
  842POPE   C2B11246   6.269   6.870   6.825  0.0986 -0.1669  0.0054
  842POPE   C3B11247   6.072   6.916   7.189 -0.0930  0.0707 -0.0985
  842POPE   C4B11248   5.972   7.336   7.131 -0.1168 -0.0154 -0.1165
  843POPE   NH311249   6.483  16.936   6.073 -0.0917  0.0983 -0.0122
  843POPE   PO411250   6.081  17.055   5.956 -0.0800  0.1737 -0.1134
  843POPE   GL111251   5.969  17.020   6.347 -0.0025  0.3168 -0.0297
  843POPE   GL211252   5.732  17.174   6.305  0.0719  0.0008 -0.0719
  843POPE   C1A11253   6.032  17.319   6.753  0.1179  0.0164 -0.1925
  843POPE   D2A11254   6.132  17.246   7.194  0.1014 -0.0847 -0.0009
  843POPE   C3A11255   6.401  16.959   7.272  0.0264  0.0260  0.0196
  843POPE   C4A11256   6.818  16.787   7.489 -0.1204  0.2097 -0.4242
  843POPE   C1B11257   5.589  16.991   6.711  0.1351 -0.1313  0.1482
  843POPE   C2B11258   5.663  17.103   7.121 -0.0244 -0.1462 -0.1949
  843POPE   C3B11259   5.586  17.296   7.435  0.2534  0.2712  0.0917
  843POPE   C4B11260   5.739  17.513   7.832  0.1278 -0.4783  0.3470
  844POPE   NH311261   7.680  12.355   5.470  0.3411  0.2133 -0.0438
  844POPE   PO411262   7.821  11.999   5.604  0.1794  0.0443 -0.0997
  844POPE   GL111263   7.943  12.170   5.947 -0.0983 -0.0689  0.0424
  844POPE   GL211264   8.268  11.992   5.925  0.1811  0.1024 -0.2581
  844POPE   C1A11265   7.920  12.053   6.442 -0.1098  0.1409 -0.1493
  844POPE   D2A11266   8.003  12.204   6.827  0.0000  0.3192 -0.0968
  844POPE   C3A11267   7.712  12.442   6.958 -0.1485 -0.1185 -0.3003
  844POPE   C4A11268   7.272  12.522   7.101 -0.1156 -0.0883  0.0090
  844POPE   C1B11269   8.433  11.961   6.400 -0.3602  0.2020  0.2310
  844POPE   C2B11270   8.853  11.896   6.605  0.0036  0.1567 -0.2426
  844POPE   C3B11271   9.228  11.633   6.788 -0.0289 -0.1472  0.0263
  844POPE   C4B11272   9.502  11.426   6.966 -0.0672 -0.1905 -0.1409
  845POPE   NH311273  16.626   8.803   5.791  0.2213  0.0436 -0.1345
  845POPE   PO411274  16.781   8.408   5.707  0.7870 -0.0431 -0.0922
  845POPE   GL111275  16.659   8.221   6.134 -0.0080  0.0277 -0.1892
  845POPE   GL211276  16.872   8.445   6.459 -0.0557  0.2152  0.0321
  845POPE   C1A11277  16.390   8.306   6.425  0.0687 -0.1666  0.0041
  845POPE   D2A11278  16.416   8.553   6.862  0.0831 -0.1446  0.2577
  845POPE   C3A11279  16.166   8.322   7.223  0.0970  0.0693 -0.0929
  845POPE   C4A11280  16.103   8.551   7.676 -0.0774  0.0918 -0.3197
  845POPE   C1B11281  16.816   8.243   6.906 -0.0673  0.0968  0.0838
  845POPE   C2B11282  16.680   8.194   7.263 -0.2038 -0.1419  0.0796
  845POPE   C3B11283  16.464   8.113   7.578 -0.1114 -0.1551 -0.3483
  845POPE   C4B11284  16.304   7.808   7.936  0.2585  0.0759  0.2949
  846POPE   NH311285  11.755   9.125   5.365 -0.0193  0.2808  0.0316
  846POPE   PO411286  11.435   9.356   5.428  0.0295  0.2634  0.1320
  846POPE   GL111287  11.164   9.443   5.806  0.1910 -0.0073 -0.0316
  846POPE   GL211288  11.428   9.557   6.071  0.3291 -0.0570  0.2350
  846POPE   C1A11289  10.840   9.271   6.087  0.1147  0.1114 -0.4568
  846POPE   D2A11290  11.009   9.383   6.462  0.1267 -0.2558 -0.0635
  846POPE   C3A11291  11.068   9.749   6.782  0.0658  0.0864 -0.5374
  846POPE   C4A11292  10.928  10.081   7.017 -0.2523  0.0765  0.2050
  846POPE   C1B11293  11.453   9.645   6.529  0.3174  0.1981 -0.1292
  846POPE   C2B11294  11.421   9.452   6.921 -0.1964  0.0727  0.1701
  846POPE   C3B11295  11.604   9.315   7.334  0.0714 -0.4294 -0.0616
  846POPE   C4B11296  11.693   9.057   7.629  0.0964  0.1018  0.1116
  847POPE   NH311297  16.234  16.728   5.739 -0.1064  0.1049 -0.1723
  847POPE   PO411298  15.981  17.063   5.744  0.0129 -0.1055 -0.2671
  847POPE   GL111299  15.664  17.310   6.088 -0.0943 -0.2586  0.2873
  847POPE   GL211300  15.410  17.056   6.235  0.0192  0.1709  0.1627
  847POPE   C1A11301  15.718  17.374   6.662  0.1147 -0.3816  0.0357
  847POPE   D2A11302  15.801  17.629   6.986  0.2913  0.2662  0.1736
  847POPE   C3A11303  15.691  17.710   7.390 -0.1628  0.0613 -0.1337
  847POPE   C4A11304  15.717  17.695   7.800 -0.1848 -0.0214 -0.1632
  847POPE   C1B11305  15.372  17.020   6.682 -0.2586  0.0017 -0.3026
  847POPE   C2B11306  15.306  16.853   7.102  0.3127  0.0674 -0.1443
  847POPE   C3B11307  15.344  16.877   7.566 -0.2123  0.1378  0.1262
  847POPE   C4B11308  15.220  16.561   7.892 -0.1614  0.5580  0.0565
  848POPE   NH311309   2.486   1.367   6.345 -0.1622 -0.2191  0.2517
  848POPE   PO411310   2.434   1.825   6.230 -0.0342 -0.3430 -0.0544
  848POPE   GL111311   2.362   1.795   6.560  0.0216 -0.0404  0.0650
  848POPE   GL211312   2.142   2.152   6.472 -0.0463  0.1445  0.0924
  848POPE   C1A11313   2.355   1.958   6.976  0.0180  0.2769 -0.1211
  848POPE   D2A11314   2.196   2.239   7.391  0.2057  0.0839  0.1770
  848POPE   C3A11315   2.545   2.243   7.675  0.1591  0.1958  0.0384
  848POPE   C4A11316   2.545   2.045   8.101 -0.2580 -0.1269  0.1337
  848POPE   C1B11317   2.214   2.384   6.821  0.2243 -0.2192 -0.5292
  848POPE   C2B11318   1.977   2.634   7.157  0.1349 -0.1424  0.0303
  848POPE   C3B11319   2.011   2.998   7.163 -0.3584 -0.0977 -0.0519
  848POPE   C4B11320   2.093   3.210   7.591  0.0750  0.0705 -0.0925
  849POPE   NH311321  10.689   2.512   5.640 -0.3042  0.2435 -0.3492
  849POPE   PO411322  10.288   2.594   5.883  0.0652  0.2138 -0.4232
  849POPE   GL111323  10.505   2.741   6.238  0.1983 -0.1578 -0.1803
  849POPE   GL211324  10.653   2.933   6.053 -0.1544  0.0579  0.2176
  849POPE   C1A11325  10.557   2.804   6.744  0.3350  0.0841  0.1623
  849POPE   D2A11326  10.612   3.034   7.077  0.1471 -0.4064 -0.2764
  849POPE   C3A11327  11.016   2.984   7.341  0.1287  0.2554 -0.0519
  849POPE   C4A11328  11.199   3.423   7.413  0.2011  0.2337  0.2576
  849POPE   C1B11329  10.945   2.916   6.285 -0.1091  0.1733 -0.2001
  849POPE   C2B11330  11.224   3.231   6.357 -0.2276  0.0307  0.0897
  849POPE   C3B11331  11.526   3.458   6.525  0.1731  0.0634 -0.0420
  849POPE   C4B11332  11.876   3.758   6.288 -0.0874  0.3266  0.2509
  850POPE   NH311333  10.580  15.168   4.965  0.0858 -0.3057 -0.1929
  850POPE   PO411334  10.364  14.781   4.765 -0.0798 -0.3042  0.3261
  850POPE   GL111335  10.502  14.690   5.170  0.0130 -0.0935 -0.2387
  850POPE   GL211336  10.450  14.293   5.259 -0.0143  0.0637  0.0610
  850POPE   C1A11337  10.758  14.881   5.491 -0.1360  0.2053 -0.0126
  850POPE   D2A11338  10.628  15.197   5.779  0.0585  0.0458  0.2266
  850POPE   C3A11339  10.817  15.327   6.139  0.2287  0.1767  0.2473
  850POPE   C4A11340  10.783  15.304   6.567 -0.1493  0.1878  0.0731
  850POPE   C1B11341  10.390  14.538   5.634 -0.2530 -0.2044  0.0143
  850POPE   C2B11342  10.686  14.574   5.964 -0.2327 -0.1433  0.0839
  850POPE   C3B11343  11.225  14.402   6.048 -0.1316  0.2200 -0.0874
  850POPE   C4B11344  11.547  14.030   5.838  0.1180 -0.2099 -0.0369
  851POPE   NH311345   6.538   0.709   6.179  0.1501  0.2592  0.1482
  851POPE   PO411346   6.293   1.213   6.032  0.1518 -0.0809 -0.2172
  851POPE   GL111347   6.430   0.955   6.574  0.3131 -0.2299 -0.0653
  851POPE   GL211348   6.308   0.602   6.582  0.1385 -0.1119 -0.0812
  851POPE   C1A11349   6.652   1.082   6.794 -0.0731  0.2731 -0.1816
  851POPE   D2A11350   6.686   1.285   7.231  0.0073  0.2014 -0.1047
  851POPE   C3A11351   6.642   1.189   7.688  0.2088 -0.2526  0.1560
  851POPE   C4A11352   6.627   1.102   8.101 -0.2625 -0.2137  0.0585
  851POPE   C1B11353   6.070   0.257   6.812  0.0069 -0.1048  0.2600
  851POPE   C2B11354   5.944  -0.041   7.123  0.1341  0.3953  0.2086
  851POPE   C3B11355   5.970  -0.069   7.628  0.0992 -0.1167  0.0429
  851POPE   C4B11356   6.042   0.313   7.756  0.0992  0.0399 -0.1636
  852POPE   NH311357   4.306   6.882   5.359 -0.2732 -0.0502  0.2593
  852POPE   PO411358   4.456   7.014   5.639 -0.0847 -0.0250  0.0740
  852POPE   GL111359   4.547   7.178   6.058 -0.0505  0.2087 -0.0430
  852POPE   GL211360   4.349   7.150   6.281 -0.1095 -0.1983  0.4548
  852POPE   C1A11361   4.518   7.635   6.387  0.1572  0.0246  0.2134
  852POPE   D2A11362   4.338   7.866   6.734 -0.0194  0.1213 -0.3583
  852POPE   C3A11363   4.369   7.776   7.161 -0.0577 -0.0767 -0.3078
  852POPE   C4A11364   4.360   7.341   7.311 -0.1593 -0.0711  0.1406
  852POPE   C1B11365   4.240   7.415   6.754  0.1127  0.0968  0.1664
  852POPE   C2B11366   3.930   7.688   6.985 -0.2593 -0.2280 -0.0576
  852POPE   C3B11367   3.943   7.668   7.437 -0.0037 -0.0101 -0.0675
  852POPE   C4B11368   3.884   7.858   7.876 -0.1488 -0.0341  0.0255
  853POPE   NH311369   9.125   6.707   5.196 -0.1050 -0.0229 -0.5477
  853POPE   PO411370   9.320   6.538   5.604  0.0145  0.1500  0.2351
  853POPE   GL111371   9.394   6.838   5.841 -0.1862 -0.0778  0.0803
  853POPE   GL211372   9.669   7.050   5.810 -0.1159  0.5200  0.2166
  853POPE   C1A11373   9.477   6.838   6.281 -0.2332 -0.1794 -0.1812
  853POPE   D2A11374   9.455   6.856   6.734  0.4291  0.0854 -0.0386
  853POPE   C3A11375   9.428   7.149   6.982 -0.0632  0.1617 -0.1796
  853POPE   C4A11376   9.622   7.171   7.364  0.0065  0.0557 -0.3681
  853POPE   C1B11377   9.981   7.044   6.194 -0.0650 -0.0464  0.0357
  853POPE   C2B11378  10.138   7.355   6.415  0.1890 -0.2341  0.0267
  853POPE   C3B11379  10.506   7.264   6.786 -0.0067 -0.1173 -0.1620
  853POPE   C4B11380  10.616   7.599   7.158 -0.2055 -0.2086  0.0544
  854POPE   NH311381  14.195   2.651   5.873  0.3137  0.0453  0.0091
  854POPE   PO411382  14.328   2.802   6.273 -0.1143 -0.1574  0.0834
  854POPE   GL111383  14.197   2.743   6.705 -0.1667 -0.2001  0.1602
  854POPE   GL211384  14.459   2.736   6.848  0.0112  0.0800  0.0954
  854POPE   C1A11385  13.974   2.649   7.131 -0.1364 -0.0246  0.0291
  854POPE   D2A11386  13.732   2.746   7.532 -0.0264  0.0388 -0.1051
  854POPE   C3A11387  13.586   3.154   7.549  0.5986  0.0333  0.0005
  854POPE   C4A11388  13.148   3.434   7.404  0.2559 -0.1563  0.0480
  854POPE   C1B11389  14.699   2.526   7.152  0.1287 -0.0144  0.2518
  854POPE   C2B11390  14.773   2.496   7.546  0.1531  0.1915 -0.0657
  854POPE   C3B11391  14.879   2.671   7.965  0.6045  0.0284  0.0242
  854POPE   C4B11392  15.040   2.906   8.209  0.0353 -0.1723  0.2085
  855POPE   NH311393  13.233  12.802   5.733 -0.1761 -0.2505  0.0109
  855POPE   PO411394  13.387  12.418   5.815  0.0148  0.2315 -0.2313
  855POPE   GL111395  13.424  12.210   6.141  0.1183  0.0572 -0.0735
  855POPE   GL211396  13.175  12.317   6.330  0.1269  0.0816 -0.2141
  855POPE   C1A11397  13.500  12.026   6.493  0.2395 -0.1111 -0.0149
  855POPE   D2A11398  13.296  11.904   6.879 -0.0437  0.2875 -0.3898
  855POPE   C3A11399  13.524  11.852   7.304  0.1927  0.2236  0.0880
  855POPE   C4A11400  13.663  12.048   7.693 -0.4017  0.1857  0.1095
  855POPE   C1B11401  13.035  12.318   6.697  0.1650  0.4433  0.1224
  855POPE   C2B11402  12.904  12.229   7.065  0.0509 -0.1639  0.3877
  855POPE   C3B11403  13.113  12.116   7.513 -0.0702  0.2245 -0.1658
  855POPE   C4B11404  13.096  11.646   7.573 -0.1163  0.0201  0.0612
  856POPE   NH311405   6.657   9.498   5.586 -0.1417  0.2231  0.0752
  856POPE   PO411406   6.394   9.241   5.618  0.0758  0.1650  0.0441
  856POPE   GL111407   6.421   9.222   6.029  0.1413  0.2687 -0.0667
  856POPE   GL211408   6.234   9.530   6.012  0.1965  0.0834 -0.2217
  856POPE   C1A11409   6.492   9.299   6.498 -0.1525 -0.1147 -0.0146
  856POPE   D2A11410   6.668   9.450   6.882 -0.1944  0.1261  0.2757
  856POPE   C3A11411   6.632   9.360   7.213  0.3069  0.1080 -0.0089
  856POPE   C4A11412   6.636   8.944   7.394  0.3537 -0.0406 -0.1070
  856POPE   C1B11413   6.213   9.777   6.414  0.0415 -0.2369 -0.0981
  856POPE   C2B11414   6.347  10.062   6.829 -0.2463  0.2692 -0.0165
  856POPE   C3B11415   6.485   9.958   7.235 -0.0166 -0.2033 -0.3335
  856POPE   C4B11416   6.413   9.750   7.574  0.1668 -0.2597  0.0910
  857POPE   NH311417   7.063  12.639   5.359  0.1466  0.1492  0.1306
  857POPE   PO411418   6.600  12.576   5.310  0.2009 -0.4271 -0.0733
  857POPE   GL111419   6.665  12.944   5.731 -0.0719 -0.2047 -0.2022
  857POPE   GL211420   6.591  12.831   5.994 -0.2499 -0.2434 -0.1951
  857POPE   C1A11421   6.710  13.277   6.068  0.2334  0.1169 -0.2111
  857POPE   D2A11422   7.078  13.467   6.302  0.0317  0.0765 -0.0007
  857POPE   C3A11423   7.075  13.610   6.676 -0.0793  0.1610 -0.2937
  857POPE   C4A11424   7.114  13.507   7.087  0.2038  0.0383  0.0788
  857POPE   C1B11425   6.413  12.661   6.376 -0.0721  0.3796 -0.0850
  857POPE   C2B11426   6.186  12.673   6.787 -0.1808 -0.0779  0.0963
  857POPE   C3B11427   6.111  12.719   7.251 -0.0933  0.1435  0.2911
  857POPE   C4B11428   5.835  12.512   7.487  0.2094 -0.2402 -0.1078
  858POPE   NH311429  13.888   1.540   5.792 -0.1556 -0.1214 -0.1179
  858POPE   PO411430  14.320   1.450   5.793 -0.1000  0.0872  0.1789
  858POPE   GL111431  14.161   1.041   6.074  0.3097 -0.1153 -0.0557
  858POPE   GL211432  13.839   1.199   6.160 -0.1013 -0.0136 -0.0859
  858POPE   C1A11433  13.914   0.736   6.343  0.1880 -0.2884 -0.3448
  858POPE   D2A11434  13.997   0.524   6.767 -0.3508  0.0355  0.4967
  858POPE   C3A11435  13.841   0.252   7.135 -0.1860  0.1250 -0.0613
  858POPE   C4A11436  13.996  -0.050   7.503 -0.1857 -0.2332 -0.0251
  858POPE   C1B11437  14.034   1.250   6.584  0.1354  0.2190  0.2948
  858POPE   C2B11438  13.985   1.003   6.905 -0.0615  0.4494  0.3507
  858POPE   C3B11439  13.824   0.842   7.237  0.0971  0.1095 -0.0367
  858POPE   C4B11440  13.850   0.544   7.638  0.1886  0.3167 -0.2421
  859POPE   NH311441   9.105   2.467   6.163 -0.0316 -0.1591 -0.0280
  859POPE   PO411442   9.017   1.944   6.009  0.1961  0.0365 -0.0614
  859POPE   GL111443   9.099   1.966   6.420 -0.0521 -0.2157 -0.2189
  859POPE   GL211444   9.202   2.268   6.686  0.1276  0.2713  0.1941
  859POPE   C1A11445   9.033   1.701   6.862  0.1148  0.1567 -0.3227
  859POPE   D2A11446   9.033   1.744   7.335  0.1062 -0.1725 -0.1383
  859POPE   C3A11447   9.113   1.455   7.688  0.0893  0.2866  0.1098
  859POPE   C4A11448   9.283   1.296   8.097 -0.0697 -0.0574  0.1242
  859POPE   C1B11449   8.905   2.321   7.036  0.0083  0.3937 -0.1320
  859POPE   C2B11450   8.839   2.214   7.538  0.0095  0.1134  0.3768
  859POPE   C3B11451   8.654   2.270   7.866  0.1142 -0.2279 -0.0110
  859POPE   C4B11452   8.501   2.297   8.272  0.0831  0.0338 -0.1343
  860POPE   NH311453   2.943  17.832   6.074 -0.0700  0.0344  0.1688
  860POPE   PO411454   2.566  17.695   6.021 -0.2454 -0.3078 -0.2495
  860POPE   GL111455   2.713  17.427   6.438 -0.0785  0.0286  0.2476
  860POPE   GL211456   3.038  17.381   6.457 -0.2693 -0.0878 -0.0001
  860POPE   C1A11457   2.736  17.237   6.845 -0.1587  0.2373 -0.0414
  860POPE   D2A11458   2.896  17.125   7.196 -0.2691  0.2011  0.0201
  860POPE   C3A11459   3.220  17.393   7.454 -0.0661  0.1412  0.0302
  860POPE   C4A11460   3.362  17.780   7.223 -0.3396 -0.1061 -0.1904
  860POPE   C1B11461   3.141  17.030   6.653 -0.1169  0.0351 -0.2622
  860POPE   C2B11462   3.463  16.925   7.020 -0.0344 -0.2225  0.1106
  860POPE   C3B11463   3.564  16.911   7.537  0.0312 -0.4829 -0.1755
  860POPE   C4B11464   3.624  16.881   8.035  0.3758 -0.2409  0.0467
  861POPE   NH311465   3.698   0.399   6.153 -0.1478 -0.1805  0.0947
  861POPE   PO411466   4.177   0.310   6.297  0.3773 -0.1833 -0.1219
  861POPE   GL111467   4.056   0.430   6.614  0.1117 -0.1376  0.5598
  861POPE   GL211468   3.765   0.561   6.669  0.1234 -0.1023 -0.0092
  861POPE   C1A11469   4.007   0.217   7.072 -0.4752  0.0825 -0.1939
  861POPE   D2A11470   4.156   0.169   7.436  0.0239  0.0484  0.0092
  861POPE   C3A11471   4.128   0.367   7.758 -0.1803  0.2489 -0.3303
  861POPE   C4A11472   4.251   0.557   8.143  0.0654  0.1127 -0.0808
  861POPE   C1B11473   3.636   0.573   6.998 -0.3156 -0.6563 -0.0402
  861POPE   C2B11474   3.721   0.612   7.393  0.1188 -0.1326 -0.0061
  861POPE   C3B11475   3.712   0.829   7.755  0.0983  0.2838 -0.0791
  861POPE   C4B11476   3.933   0.919   8.092  0.2466  0.1379 -0.1026
  862POPE   NH311477   9.701  17.634   5.779 -0.1926 -0.0360  0.0850
  862POPE   PO411478   9.599  18.172   5.858  0.1290 -0.3363  0.2237
  862POPE   GL111479   9.463  18.287   6.307  0.0998 -0.2058  0.1466
  862POPE   GL211480   9.261  18.153   6.362  0.2546 -0.2397 -0.2200
  862POPE   C1A11481   9.784  18.306   6.594 -0.1553 -0.0301  0.1304
  862POPE   D2A11482   9.995  18.534   7.051  0.3585 -0.0781  0.3116
  862POPE   C3A11483  10.324  18.698   7.113  0.1060 -0.0292 -0.4511
  862POPE   C4A11484  10.469  19.101   7.040 -0.0017 -0.2353 -0.0424
  862POPE   C1B11485   9.286  18.126   6.887 -0.3217  0.2641 -0.2494
  862POPE   C2B11486   9.064  17.967   7.122 -0.0657 -0.2080 -0.0745
  862POPE   C3B11487   8.838  17.783   7.343  0.1622 -0.3156 -0.0826
  862POPE   C4B11488   8.458  17.650   7.574 -0.2264  0.1061  0.1972
  863POPE   NH311489  11.568  17.006   5.477  0.0752 -0.1464  0.4797
  863POPE   PO411490  11.188  17.163   5.778 -0.1645 -0.0068  0.1031
  863POPE   GL111491  11.517  17.338   5.966  0.0890  0.1254 -0.2425
  863POPE   GL211492  11.681  17.141   5.996  0.0268 -0.0229 -0.1384
  863POPE   C1A11493  11.374  17.237   6.423  0.2288 -0.0545 -0.0435
  863POPE   D2A11494  11.475  16.888   6.755 -0.0001  0.2280  0.1228
  863POPE   C3A11495  11.449  16.686   7.046 -0.1301  0.1780  0.2808
  863POPE   C4A11496  11.371  16.708   7.453  0.1484 -0.0067 -0.3244
  863POPE   C1B11497  11.599  16.738   6.237 -0.0413 -0.2572 -0.0701
  863POPE   C2B11498  11.923  16.542   6.606  0.1812  0.2608 -0.0635
  863POPE   C3B11499  11.695  16.238   6.805 -0.4412  0.1803  0.0956
  863POPE   C4B11500  11.445  15.937   6.688 -0.2048  0.3529  0.1302
  864POPE   NH311501   9.872   2.893   5.788 -0.0782  0.3444  0.0300
  864POPE   PO411502   9.507   3.051   5.660 -0.0325  0.3989  0.4922
  864POPE   GL111503   9.462   3.059   6.079  0.1761 -0.0375 -0.1854
  864POPE   GL211504   9.697   3.290   6.146 -0.2244  0.0055 -0.0358
  864POPE   C1A11505   9.309   3.301   6.503  0.0293 -0.4026  0.2515
  864POPE   D2A11506   9.387   3.415   6.958 -0.2947  0.2051  0.1320
  864POPE   C3A11507   9.582   3.204   7.262 -0.3627 -0.2530  0.2195
  864POPE   C4A11508   9.346   3.100   7.623  0.0125 -0.0649 -0.0259
  864POPE   C1B11509   9.897   3.347   6.481  0.1350 -0.0449 -0.1668
  864POPE   C2B11510  10.280   3.356   6.823  0.3384  0.0306  0.2246
  864POPE   C3B11511  10.460   3.563   7.005  0.4218 -0.0229 -0.1168
  864POPE   C4B11512  10.854   3.562   7.053 -0.0265  0.0043  0.0256
  865POPE   NH311513   3.065   6.481   5.636 -0.0082 -0.0426 -0.1213
  865POPE   PO411514   3.059   6.089   5.883  0.0800 -0.0002  0.0488
  865POPE   GL111515   3.093   6.121   6.190  0.2715  0.3143 -0.0974
  865POPE   GL211516   3.063   5.829   6.316  0.0113  0.1524 -0.2582
  865POPE   C1A11517   3.164   6.145   6.719  0.2356  0.3308  0.0099
  865POPE   D2A11518   3.066   6.020   7.144  0.0914  0.0627 -0.1419
  865POPE   C3A11519   3.153   5.600   7.199 -0.2220 -0.0105  0.2283
  865POPE   C4A11520   3.472   5.328   7.084 -0.0463  0.2464 -0.3279
  865POPE   C1B11521   2.737   5.764   6.687  0.6903 -0.1380  0.1249
  865POPE   C2B11522   2.601   5.765   7.085  0.0628  0.1370  0.0085
  865POPE   C3B11523   2.417   5.445   7.341 -0.2417 -0.1004  0.0539
  865POPE   C4B11524   2.139   5.384   7.591 -0.0203  0.3536 -0.3446
  866POPE   NH311525   3.752   8.788   5.812  0.3294  0.1518 -0.0350
  866POPE   PO411526   3.836   8.275   5.730  0.1368 -0.3806  0.1714
  866POPE   GL111527   3.949   8.423   6.071  0.0355  0.1754  0.0834
  866POPE   GL211528   4.276   8.582   6.106 -0.1753 -0.0371 -0.0940
  866POPE   C1A11529   3.798   8.555   6.482 -0.0046  0.1022 -0.1935
  866POPE   D2A11530   3.520   8.572   6.872  0.3163 -0.0512  0.0554
  866POPE   C3A11531   3.605   8.627   7.265  0.1186  0.1375 -0.1596
  866POPE   C4A11532   3.528   8.856   7.695 -0.0421 -0.2825  0.1861
  866POPE   C1B11533   4.289   8.283   6.477  0.1759 -0.2458  0.1909
  866POPE   C2B11534   4.474   8.322   6.882  0.0346  0.2638 -0.2740
  866POPE   C3B11535   4.854   8.337   7.243  0.1165 -0.0619  0.0909
  866POPE   C4B11536   5.024   8.662   7.424 -0.2663  0.1112  0.1186
  867POPE   NH311537  15.215   6.100   5.180  0.1424 -0.0651 -0.2127
  867POPE   PO411538  15.124   6.267   5.534  0.0527 -0.1638 -0.3153
  867POPE   GL111539  14.989   6.416   6.000 -0.2854 -0.0326  0.1216
  867POPE   GL211540  14.670   6.644   6.148  0.3029  0.1920  0.0032
  867POPE   C1A11541  15.162   6.238   6.338  0.0025 -0.0037 -0.3094
  867POPE   D2A11542  15.316   6.356   6.711 -0.1023 -0.0445 -0.0506
  867POPE   C3A11543  15.288   6.127   7.053  0.1344 -0.1378  0.0617
  867POPE   C4A11544  15.354   5.851   7.318  0.2475  0.1589 -0.0483
  867POPE   C1B11545  14.735   6.520   6.641 -0.0089 -0.2163  0.1021
  867POPE   C2B11546  14.869   6.370   7.084  0.2626  0.2794  0.2356
  867POPE   C3B11547  15.159   6.270   7.488 -0.0634  0.2482  0.0710
  867POPE   C4B11548  15.412   6.397   7.926 -0.0127  0.0195  0.1385
  868POPE   NH311549   4.911   7.718   5.849  0.0385  0.1109 -0.1139
  868POPE   PO411550   5.272   7.641   5.584 -0.1601  0.0448 -0.2436
  868POPE   GL111551   5.621   7.467   5.818 -0.1497 -0.0141  0.0984
  868POPE   GL211552   5.377   7.489   6.080  0.0508  0.2999 -0.1249
  868POPE   C1A11553   5.824   7.467   6.240  0.0388 -0.3147 -0.2124
  868POPE   D2A11554   5.970   7.652   6.572  0.0229  0.1216 -0.2808
  868POPE   C3A11555   5.609   7.566   6.824 -0.1454  0.0781  0.0825
  868POPE   C4A11556   5.347   7.243   7.067  0.0343  0.1190 -0.2287
  868POPE   C1B11557   5.208   7.639   6.482 -0.1306 -0.0096 -0.0191
  868POPE   C2B11558   4.976   7.509   6.735  0.0947 -0.1518 -0.2832
  868POPE   C3B11559   4.826   7.334   7.041 -0.0770 -0.0635 -0.0041
  868POPE   C4B11560   5.063   7.363   7.482 -0.2856 -0.2800  0.0089
  869POPE   NH311561  17.562  14.352   5.790  0.0552  0.1288 -0.2374
  869POPE   PO411562  17.516  14.777   5.797 -0.1538  0.2591  0.0417
  869POPE   GL111563  17.618  14.675   6.191  0.1987  0.0177 -0.2051
  869POPE   GL211564  17.735  14.447   6.291  0.2365  0.2147  0.1096
  869POPE   C1A11565  17.617  14.874   6.638  0.1517  0.1475  0.3541
  869POPE   D2A11566  17.674  14.694   7.088 -0.1915  0.0935 -0.1916
  869POPE   C3A11567  17.528  14.240   7.249 -0.1063  0.0220  0.1351
  869POPE   C4A11568  17.208  13.873   7.291  0.0789 -0.1505  0.0194
  869POPE   C1B11569  17.515  14.359   6.690 -0.1873 -0.1388  0.1959
  869POPE   C2B11570  17.072  14.300   7.007  0.1864 -0.3641  0.1337
  869POPE   C3B11571  17.038  14.263   7.458  0.1574  0.0957 -0.2518
  869POPE   C4B11572  17.080  13.984   7.757  0.2447 -0.5133 -0.0086
  870POPE   NH311573   8.318  18.325   6.019  0.0275  0.1265  0.1985
  870POPE   PO411574   8.396  17.959   5.783  0.0464 -0.0739 -0.2095
  870POPE   GL111575   8.357  17.661   6.158  0.0116  0.3771 -0.2783
  870POPE   GL211576   8.635  17.528   6.338 -0.0533 -0.0241 -0.0797
  870POPE   C1A11577   8.097  17.551   6.511  0.0441  0.0413 -0.3157
  870POPE   D2A11578   7.701  17.563   6.763  0.1702  0.2302 -0.2074
  870POPE   C3A11579   7.693  17.626   7.188  0.0028  0.1100 -0.0386
  870POPE   C4A11580   7.665  17.559   7.620 -0.0047  0.1265 -0.2467
  870POPE   C1B11581   8.540  17.374   6.753 -0.1714  0.0122 -0.1329
  870POPE   C2B11582   8.505  17.350   7.154 -0.0856  0.0745 -0.1506
  870POPE   C3B11583   8.753  17.089   7.459  0.0491  0.0267 -0.1072
  870POPE   C4B11584   9.186  16.890   7.639  0.3087  0.3854 -0.1643
  871POPE   NH311585  15.870   3.431   5.458 -0.2871 -0.1446  0.0676
  871POPE   PO411586  15.905   3.082   5.358  0.2940 -0.1624 -0.0187
  871POPE   GL111587  16.112   3.310   5.853 -0.0936  0.2267 -0.0777
  871POPE   GL211588  16.189   2.925   5.853 -0.0914  0.1930  0.1423
  871POPE   C1A11589  16.182   3.255   6.282 -0.1624 -0.2464  0.2101
  871POPE   D2A11590  16.112   3.576   6.586  0.0050  0.4472  0.0595
  871POPE   C3A11591  16.302   3.617   6.955  0.1450  0.3665 -0.2902
  871POPE   C4A11592  16.224   3.499   7.399 -0.3658  0.1692 -0.3026
  871POPE   C1B11593  16.563   2.908   6.062 -0.0910 -0.0012  0.1831
  871POPE   C2B11594  16.705   2.980   6.388  0.0713  0.0886  0.0078
  871POPE   C3B11595  17.046   3.206   6.700 -0.1343 -0.0305 -0.2013
  871POPE   C4B11596  16.960   3.470   7.081 -0.2765  0.0109 -0.0424
  872YOPE   NH311597   6.258  11.409   5.798  0.0268  0.2449 -0.0648
  872YOPE   PO411598   5.848  11.400   5.861  0.0270 -0.0728  0.3296
  872YOPE   GL111599   5.756  11.362   6.202  0.0613  0.2514 -0.0356
  872YOPE   GL211600   5.402  11.313   6.309  0.1778  0.1496  0.0641
  872YOPE   C1A11601   5.855  11.564   6.703  0.0042  0.0311 -0.0300
  872YOPE   D2A11602   5.935  11.846   7.051 -0.1813  0.2649 -0.0932
  872YOPE   C3A11603   5.566  12.062   7.428  0.0613  0.3066  0.0973
  872YOPE   C4A11604   5.131  12.211   7.569 -0.1141  0.2616  0.0727
  872YOPE   C1B11605   5.675  11.059   6.617  0.0246 -0.0055  0.1054
  872YOPE   C2B11606   5.955  10.756   6.861  0.0360 -0.0754 -0.3215
  872YOPE   D3B11607   6.097  10.344   7.119  0.2827  0.1149  0.1215
  872YOPE   C4B11608   5.925  10.083   7.480 -0.0264 -0.2502 -0.0212
  873YOPE   NH311609   7.934  14.651   5.783  0.1549 -0.2668  0.1276
  873YOPE   PO411610   7.787  14.458   5.467 -0.2787  0.0101 -0.2694
  873YOPE   GL111611   7.618  14.322   5.893  0.0719 -0.3479  0.0988
  873YOPE   GL211612   7.428  14.535   6.080 -0.1459 -0.2599 -0.1767
  873YOPE   C1A11613   7.817  14.147   6.320 -0.0401 -0.0972  0.3551
  873YOPE   D2A11614   7.837  14.020   6.814 -0.3721  0.1883 -0.1919
  873YOPE   C3A11615   8.255  13.983   7.117  0.3272 -0.1693 -0.1813
  873YOPE   C4A11616   8.574  14.372   7.193 -0.2594  0.1876 -0.0262
  873YOPE   C1B11617   7.651  14.532   6.572 -0.1335  0.5214 -0.0931
  873YOPE   C2B11618   7.590  14.468   6.937  0.2818 -0.3459  0.3308
  873YOPE   D3B11619   7.763  14.272   7.260 -0.0304  0.1701  0.0671
  873YOPE   C4B11620   7.785  14.193   7.666 -0.0628  0.1604 -0.2830
  874YOPE   NH311621  17.891  17.953   5.627  0.2390  0.1715 -0.0373
  874YOPE   PO411622  17.591  17.633   5.557 -0.1205  0.2362 -0.1898
  874YOPE   GL111623  17.451  17.952   6.028  0.1007  0.2079  0.1128
  874YOPE   GL211624  17.675  18.181   6.040  0.0785 -0.2621 -0.2011
  874YOPE   C1A11625  17.254  18.339   6.259 -0.0903  0.0417 -0.0934
  874YOPE   D2A11626  16.955  18.472   6.605 -0.1452 -0.1073 -0.0589
  874YOPE   C3A11627  16.870  18.371   7.034 -0.0873  0.3248  0.3253
  874YOPE   C4A11628  16.695  18.655   7.409 -0.3826  0.1370  0.0327
  874YOPE   C1B11629  17.693  18.101   6.454  0.1636 -0.2007  0.0899
  874YOPE   C2B11630  17.858  18.042   6.963 -0.1149 -0.2762 -0.0199
  874YOPE   D3B11631  17.862  17.817   7.341 -0.1266  0.3808 -0.0054
  874YOPE   C4B11632  18.039  17.870   7.740 -0.1165  0.2409  0.1585
  875YOPE   NH311633  14.779  14.715   5.492  0.3470  0.0437 -0.4092
  875YOPE   PO411634  14.585  15.113   5.648 -0.1577 -0.1809 -0.2769
  875YOPE   GL111635  14.279  15.124   5.854 -0.2430 -0.3974 -0.0890
  875YOPE   GL211636  14.446  15.335   6.052 -0.1094  0.0355  0.0462
  875YOPE   C1A11637  13.940  15.358   6.101  0.0971 -0.2231  0.3698
  875YOPE   D2A11638  14.100  15.499   6.431  0.0098  0.0263 -0.2918
  875YOPE   C3A11639  14.228  15.738   6.694  0.2194  0.1046 -0.3114
  875YOPE   C4A11640  14.223  15.876   7.145  0.3003  0.1442  0.4017
  875YOPE   C1B11641  14.914  15.273   6.232 -0.0624 -0.2014  0.4231
  875YOPE   C2B11642  15.335  15.169   6.458  0.0440 -0.2886  0.1602
  875YOPE   D3B11643  15.678  15.460   6.716 -0.1234 -0.0714  0.1257
  875YOPE   C4B11644  16.051  15.250   6.831  0.1113 -0.1135 -0.3119
  876YOPE   NH311645   3.969   7.048   5.860  0.0971 -0.1212  0.3436
  876YOPE   PO411646   3.915   7.402   5.909  0.0979  0.1452  0.0678
  876YOPE   GL111647   3.920   7.554   6.260 -0.1538  0.0933 -0.1676
  876YOPE   GL211648   3.977   7.792   6.251 -0.2180 -0.1900  0.1498
  876YOPE   C1A11649   3.784   7.344   6.567 -0.1384 -0.3030 -0.0391
  876YOPE   D2A11650   3.419   7.081   6.742 -0.0184 -0.1403 -0.2357
  876YOPE   C3A11651   3.266   7.153   7.156  0.5910  0.2316 -0.0907
  876YOPE   C4A11652   3.161   7.179   7.598 -0.1628  0.1300  0.2453
  876YOPE   C1B11653   3.839   8.089   6.556  0.3378 -0.0432 -0.0382
  876YOPE   C2B11654   3.456   8.013   6.897  0.0458 -0.0755 -0.1026
  876YOPE   D3B11655   3.570   8.120   7.367 -0.1755  0.0456  0.1192
  876YOPE   C4B11656   3.506   8.258   7.871 -0.1603 -0.2958  0.0490
  877YOPE   NH311657  16.969   6.837   5.771  0.0756  0.2801  0.0331
  877YOPE   PO411658  16.564   6.560   5.819 -0.2219 -0.2091 -0.2326
  877YOPE   GL111659  16.761   6.448   6.081 -0.1982  0.0625  0.2264
  877YOPE   GL211660  16.496   6.437   6.310  0.1605  0.0320  0.2012
  877YOPE   C1A11661  16.995   6.236   6.345 -0.2173  0.0276  0.0933
  877YOPE   D2A11662  17.051   5.995   6.707  0.0289 -0.0648 -0.0704
  877YOPE   C3A11663  16.908   6.156   7.052 -0.2301  0.1988 -0.2298
  877YOPE   C4A11664  16.967   6.126   7.465 -0.0616 -0.1019  0.1911
  877YOPE   C1B11665  16.608   6.309   6.664  0.1928 -0.0685 -0.1173
  877YOPE   C2B11666  16.414   6.274   7.148 -0.1971  0.0981 -0.1377
  877YOPE   D3B11667  16.072   6.025   7.196 -0.1321  0.2738 -0.0047
  877YOPE   C4B11668  15.679   6.100   7.475  0.1911 -0.3199 -0.4067
  878YOPE   NH311669   8.345  16.188   5.881  0.1581  0.1181 -0.1372
  878YOPE   PO411670   8.683  16.421   5.854 -0.0349 -0.0911 -0.1685
  878YOPE   GL111671   9.063  16.229   6.149 -0.2205  0.0323 -0.0179
  878YOPE   GL211672   9.148  15.859   6.075  0.0154  0.0204 -0.0195
  878YOPE   C1A11673   9.356  16.365   6.462  0.0704 -0.1536 -0.0463
  878YOPE   D2A11674   9.691  16.135   6.755  0.2642 -0.0243 -0.1647
  878YOPE   C3A11675   9.817  16.270   7.254 -0.5134  0.2668  0.1067
  878YOPE   C4A11676  10.014  16.588   7.321 -0.0981  0.2110 -0.0664
  878YOPE   C1B11677   9.032  15.689   6.543 -0.0628  0.0567  0.1859
  878YOPE   C2B11678   8.962  15.677   6.991  0.2697 -0.0517  0.1032
  878YOPE   D3B11679   8.883  15.310   7.265 -0.0564 -0.1643  0.2159
  878YOPE   C4B11680   8.921  15.226   7.606 -0.1357 -0.1994  0.0338
  879YOPE   NH311681  17.718  16.265   5.983  0.1690  0.4714 -0.1250
  879YOPE   PO411682  17.432  16.122   5.758 -0.1049 -0.3123  0.1280
  879YOPE   GL111683  17.233  16.285   6.115 -0.1501 -0.1875 -0.1333
  879YOPE   GL211684  17.063  16.041   6.135  0.3952 -0.3930  0.4123
  879YOPE   C1A11685  17.151  16.532   6.522  0.0997 -0.0151 -0.0531
  879YOPE   D2A11686  17.066  16.591   6.974 -0.1665 -0.0932 -0.0370
  879YOPE   C3A11687  16.840  16.536   7.395 -0.0656 -0.1192 -0.0159
  879YOPE   C4A11688  16.797  16.719   7.798  0.0349 -0.0636  0.3832
  879YOPE   C1B11689  16.912  16.113   6.556  0.3958  0.0184  0.0114
  879YOPE   C2B11690  16.895  16.073   6.952  0.3733 -0.0525  0.4717
  879YOPE   D3B11691  17.119  15.987   7.367 -0.0126 -0.0756  0.1424
  879YOPE   C4B11692  17.438  15.794   7.519 -0.0708 -0.3294  0.1063
  880YOPE   NH311693   2.474   3.437   5.866 -0.1848 -0.2311  0.0813
  880YOPE   PO411694   2.239   3.843   5.912 -0.0488 -0.0898  0.0993
  880YOPE   GL111695   2.107   3.511   6.271  0.0863  0.5734 -0.2069
  880YOPE   GL211696   1.983   3.292   6.006  0.1051 -0.2321 -0.0113
  880YOPE   C1A11697   2.090   3.658   6.706 -0.0899 -0.1750  0.1858
  880YOPE   D2A11698   2.235   3.974   7.038 -0.3366  0.0476  0.0094
  880YOPE   C3A11699   2.418   3.860   7.379 -0.2765 -0.3677  0.4266
  880YOPE   C4A11700   2.366   3.672   7.731 -0.0217  0.2603 -0.0185
  880YOPE   C1B11701   1.678   3.440   6.404 -0.0944  0.2238 -0.1990
  880YOPE   C2B11702   1.168   3.437   6.536 -0.1902  0.0752  0.0323
  880YOPE   D3B11703   0.758   3.253   6.332 -0.2392  0.0424 -0.1759
  880YOPE   C4B11704   0.287   3.215   6.348 -0.0341 -0.1445  0.0560
  881YOPE   NH311705   0.568   3.519   5.750  0.5049 -0.2511 -0.3358
  881YOPE   PO411706   0.409   3.166   5.454 -0.2171 -0.1399 -0.0050
  881YOPE   GL111707   0.486   2.962   5.873 -0.1415 -0.0297  0.1232
  881YOPE   GL211708   0.311   2.686   5.870 -0.0191  0.4119  0.1387
  881YOPE   C1A11709   0.531   2.724   6.256 -0.3040  0.0350  0.0260
  881YOPE   D2A11710   0.540   2.876   6.650 -0.0384  0.0529  0.2294
  881YOPE   C3A11711   0.122   2.864   6.909  0.1168  0.1858  0.1620
  881YOPE   C4A11712  -0.188   2.751   6.996  0.2616  0.1506  0.2147
  881YOPE   C1B11713   0.047   2.776   6.132 -0.0520 -0.0131 -0.0556
  881YOPE   C2B11714  -0.123   2.999   6.491  0.4308 -0.0382 -0.3789
  881YOPE   D3B11715  -0.338   3.230   6.840 -0.2821 -0.1354 -0.1411
  881YOPE   C4B11716  -0.393   3.573   7.213  0.0223  0.1040  0.0735
  882YOPE   NH311717   4.461  16.258   6.250 -0.2246 -0.1938  0.1606
  882YOPE   PO411718   4.772  16.237   6.358  0.0304 -0.0977  0.2407
  882YOPE   GL111719   4.797  15.999   6.697 -0.1889 -0.2898  0.0476
  882YOPE   GL211720   4.533  16.163   6.859  0.1212 -0.0522  0.2650
  882YOPE   C1A11721   4.999  16.139   7.155 -0.1363 -0.0515 -0.0472
  882YOPE   D2A11722   5.080  16.432   7.568 -0.0416 -0.1467  0.2011
  882YOPE   C3A11723   4.801  16.709   7.794  0.3842 -0.0803  0.0427
  882YOPE   C4A11724   4.493  16.342   7.937 -0.0116 -0.0411  0.0766
  882YOPE   C1B11725   4.164  16.232   7.057 -0.2257 -0.0321  0.0596
  882YOPE   C2B11726   4.121  16.111   7.440 -0.1804  0.0117  0.1069
  882YOPE   D3B11727   3.962  16.382   7.679 -0.2133 -0.0342  0.0388
  882YOPE   C4B11728   3.886  16.446   8.171  0.0222 -0.1948 -0.0376
  883YOPE   NH311729   6.886   3.057   6.493  0.1369 -0.1792  0.1087
  883YOPE   PO411730   7.277   2.813   6.437 -0.1697 -0.0649  0.0499
  883YOPE   GL111731   7.034   2.687   6.874 -0.0589  0.0817 -0.1430
  883YOPE   GL211732   6.678   2.810   6.979 -0.1336 -0.0627 -0.1299
  883YOPE   C1A11733   7.212   2.728   7.280  0.1067  0.0129  0.1725
  883YOPE   D2A11734   7.556   2.952   7.472 -0.0997 -0.0750 -0.0036
  883YOPE   C3A11735   7.577   3.113   7.807 -0.2400 -0.0138 -0.0503
  883YOPE   C4A11736   7.355   2.929   8.060  0.1022  0.0079 -0.0801
  883YOPE   C1B11737   6.674   2.406   7.105  0.0295 -0.2532  0.0513
  883YOPE   C2B11738   6.478   2.241   7.536 -0.2111  0.2464 -0.0450
  883YOPE   D3B11739   6.466   1.978   7.968  0.1176  0.1433 -0.0459
  883YOPE   C4B11740   6.752   1.717   8.191 -0.0586 -0.1800 -0.2870
  884YOPE   NH311741   5.051   6.079   5.736  0.2441  0.0096  0.1594
  884YOPE   PO411742   4.652   6.414   5.645 -0.2802  0.1686  0.1402
  884YOPE   GL111743   4.749   6.313   6.115  0.1072 -0.0538 -0.1061
  884YOPE   GL211744   4.441   6.292   6.281  0.0350  0.0261  0.2477
  884YOPE   C1A11745   4.822   6.061   6.446 -0.0132  0.1830 -0.0223
  884YOPE   D2A11746   4.822   5.823   6.833  0.0587 -0.1094  0.5311
  884YOPE   C3A11747   4.641   5.971   7.086 -0.2152  0.0069  0.1842
  884YOPE   C4A11748   4.614   5.937   7.548 -0.3596  0.0999  0.0471
  884YOPE   C1B11749   4.331   5.949   6.544 -0.0582 -0.1015  0.2340
  884YOPE   C2B11750   4.081   5.916   6.970  0.2399  0.1214 -0.1071
  884YOPE   D3B11751   4.112   5.995   7.370 -0.0850 -0.1045 -0.1144
  884YOPE   C4B11752   4.310   6.236   7.814 -0.0052  0.0884 -0.3390
  885YOPE   NH311753   7.725   6.441   5.570 -0.2178  0.1135 -0.2756
  885YOPE   PO411754   7.948   6.709   5.525 -0.0763 -0.1139 -0.0248
  885YOPE   GL111755   7.985   7.014   5.866 -0.4235 -0.5774  0.4179
  885YOPE   GL211756   7.765   7.100   6.118  0.1455  0.1129  0.0904
  885YOPE   C1A11757   8.234   6.880   6.210  0.1073  0.0382 -0.0651
  885YOPE   D2A11758   8.645   7.007   6.499  0.1276  0.1830 -0.0257
  885YOPE   C3A11759   9.071   7.218   6.464 -0.0985  0.0917 -0.3414
  885YOPE   C4A11760   9.157   7.589   6.568  0.1183  0.0255 -0.2955
  885YOPE   C1B11761   7.841   7.000   6.527 -0.1706  0.0124  0.2012
  885YOPE   C2B11762   7.870   6.941   6.942 -0.0597  0.1994 -0.0825
  885YOPE   D3B11763   7.563   6.902   7.175 -0.3277  0.0019 -0.0786
  885YOPE   C4B11764   7.245   6.910   7.446  0.0614  0.5352 -0.0867
  886YOPE   NH311765   6.802  10.018   5.130 -0.1755 -0.1694 -0.1553
  886YOPE   PO411766   6.614  10.053   5.553  0.3346 -0.2286  0.3207
  886YOPE   GL111767   6.627   9.915   5.943 -0.2093  0.1282  0.0503
  886YOPE   GL211768   6.599  10.121   6.209  0.0037 -0.4405  0.1434
  886YOPE   C1A11769   6.804   9.655   6.260  0.1391 -0.1349 -0.2195
  886YOPE   D2A11770   7.022   9.306   6.424  0.1266 -0.1845 -0.3121
  886YOPE   C3A11771   7.192   9.385   6.885  0.0088 -0.1010  0.1069
  886YOPE   C4A11772   7.180   9.133   7.288 -0.1092 -0.2107 -0.1444
  886YOPE   C1B11773   6.769  10.206   6.548 -0.1268 -0.1939 -0.1204
  886YOPE   C2B11774   6.786  10.360   6.895  0.1207  0.0966  0.0450
  886YOPE   D3B11775   6.942  10.610   7.038  0.3762 -0.3032 -0.1963
  886YOPE   C4B11776   6.859  10.950   7.333  0.4875 -0.2735 -0.0379
  887YOPE   NH311777   3.688  14.299   6.144  0.0167  0.2080 -0.0821
  887YOPE   PO411778   3.229  14.139   6.141 -0.2192  0.0024  0.0251
  887YOPE   GL111779   3.435  14.144   6.578  0.2127  0.2120  0.2192
  887YOPE   GL211780   3.710  14.026   6.598  0.1668  0.0761  0.0332
  887YOPE   C1A11781   3.503  13.945   7.052  0.0503  0.0411  0.1091
  887YOPE   D2A11782   3.498  13.601   7.360 -0.3234 -0.0260 -0.1611
  887YOPE   C3A11783   3.661  13.755   7.684 -0.0849 -0.2764 -0.1216
  887YOPE   C4A11784   3.935  13.725   8.096 -0.1077  0.1608  0.1736
  887YOPE   C1B11785   4.021  13.745   6.758  0.1809  0.3761 -0.3816
  887YOPE   C2B11786   4.114  13.566   7.150  0.0091 -0.0757 -0.2743
  887YOPE   D3B11787   4.152  13.618   7.645  0.1600  0.2797 -0.3297
  887YOPE   C4B11788   4.501  13.834   7.891 -0.0623 -0.2442 -0.0416
  888YOPE   NH311789  17.424  18.121   5.526 -0.0762  0.2224  0.0044
  888YOPE   PO411790  17.747  18.431   5.589  0.1860 -0.0303  0.1926
  888YOPE   GL111791  17.642  18.669   6.012  0.3332 -0.1425 -0.3355
  888YOPE   GL211792  17.448  18.923   5.859 -0.0024 -0.0940  0.2103
  888YOPE   C1A11793  17.571  18.715   6.423 -0.0838 -0.0167  0.1317
  888YOPE   D2A11794  17.419  18.584   6.806 -0.0165 -0.1198  0.0725
  888YOPE   C3A11795  17.688  18.688   7.170 -0.0478 -0.0257  0.0406
  888YOPE   C4A11796  17.600  18.798   7.629  0.2409  0.1887  0.0229
  888YOPE   C1B11797  17.377  19.293   6.184  0.2773  0.0523  0.0314
  888YOPE   C2B11798  17.418  19.654   6.570 -0.0882 -0.2024  0.3861
  888YOPE   D3B11799  17.597  19.760   6.945  0.0814  0.5346 -0.0775
  888YOPE   C4B11800  17.717  19.766   7.447  0.1270  0.0980 -0.1547
  889YOPE   NH311801  18.323  11.812   5.651  0.1637  0.2473  0.2072
  889YOPE   PO411802  17.963  11.668   5.949 -0.1004 -0.1481 -0.2167
  889YOPE   GL111803  17.917  11.539   6.394 -0.0432  0.0008  0.2927
  889YOPE   GL211804  17.541  11.427   6.357  0.2073 -0.0745  0.0432
  889YOPE   C1A11805  17.934  11.076   6.609  0.2790 -0.4626 -0.5788
  889YOPE   D2A11806  17.806  10.848   6.997 -0.1114  0.2852 -0.0709
  889YOPE   C3A11807  17.982  10.587   7.279 -0.1554  0.3785  0.0027
  889YOPE   C4A11808  17.683  10.577   7.527 -0.1525  0.0049 -0.0040
  889YOPE   C1B11809  17.563  11.740   6.702  0.1287  0.2521 -0.0427
  889YOPE   C2B11810  17.610  11.771   7.269 -0.1180  0.0336  0.1890
  889YOPE   D3B11811  17.331  12.048   7.594  0.1814  0.2558  0.0281
  889YOPE   C4B11812  16.877  12.109   7.630 -0.1010  0.2269  0.0280
  890YOPE   NH311813  18.404  16.634   5.253 -0.2456 -0.2372  0.3307
  890YOPE   PO411814  18.527  16.584   5.617  0.0134 -0.0768  0.2471
  890YOPE   GL111815  18.476  16.613   6.004 -0.1616  0.0986  0.1806
  890YOPE   GL211816  18.654  16.873   6.082  0.2783  0.0316 -0.1044
  890YOPE   C1A11817  18.432  16.380   6.328 -0.1904  0.1858  0.2069
  890YOPE   D2A11818  18.277  16.167   6.716  0.1423 -0.1757  0.0554
  890YOPE   C3A11819  18.588  16.132   7.090 -0.1910 -0.0083  0.0030
  890YOPE   C4A11820  18.762  16.322   7.480  0.0438 -0.1463  0.2429
  890YOPE   C1B11821  18.507  16.823   6.466  0.0247  0.0608 -0.0949
  890YOPE   C2B11822  18.065  16.986   6.633 -0.1485  0.2192 -0.0154
  890YOPE   D3B11823  17.997  17.112   7.004  0.3370 -0.0600 -0.1065
  890YOPE   C4B11824  17.715  17.371   7.251 -0.3450  0.4168 -0.0677
  891YOPE   NH311825   7.268   4.945   5.978 -0.0337  0.1067 -0.1526
  891YOPE   PO411826   7.499   4.657   6.255 -0.1766  0.2999  0.1156
  891YOPE   GL111827   7.634   4.622   6.549 -0.1438  0.1048  0.1020
  891YOPE   GL211828   7.714   5.078   6.614  0.0779 -0.0582  0.1425
  891YOPE   C1A11829   7.470   4.717   6.901 -0.1255 -0.1764  0.2248
  891YOPE   D2A11830   7.124   4.696   6.963 -0.5512  0.0052  0.2002
  891YOPE   C3A11831   7.206   4.682   7.424  0.0574 -0.3299 -0.4028
  891YOPE   C4A11832   7.252   4.853   7.825  0.4521  0.3001  0.2766
  891YOPE   C1B11833   7.364   5.201   6.849 -0.0918 -0.1568  0.3223
  891YOPE   C2B11834   7.148   5.185   7.252  0.1150  0.0738  0.2521
  891YOPE   D3B11835   6.907   5.171   7.645  0.0639  0.2268 -0.2086
  891YOPE   C4B11836   6.528   5.310   7.883 -0.1297  0.0964 -0.1616
  892YOPE   NH311837  13.065   7.267   5.528 -0.0027  0.0534 -0.0043
  892YOPE   PO411838  12.724   7.301   5.659  0.0490  0.3123  0.2225
  892YOPE   GL111839  12.964   7.260   6.070 -0.2222 -0.1927  0.1543
  892YOPE   GL211840  12.977   6.948   6.197 -0.2538 -0.1201  0.0192
  892YOPE   C1A11841  13.113   7.448   6.440  0.1463  0.0065 -0.0053
  892YOPE   D2A11842  13.224   7.436   6.898  0.4268  0.2762 -0.0041
  892YOPE   C3A11843  13.501   7.775   6.946  0.0049 -0.1426  0.0151
  892YOPE   C4A11844  13.768   8.086   6.863 -0.1336 -0.4624  0.3989
  892YOPE   C1B11845  12.794   7.083   6.532 -0.0159 -0.1979  0.4080
  892YOPE   C2B11846  12.594   7.206   6.983  0.0940 -0.0905 -0.1015
  892YOPE   D3B11847  12.363   7.187   7.299 -0.1011  0.1745  0.0950
  892YOPE   C4B11848  11.991   7.450   7.277  0.3124  0.2790 -0.1725
  893YOPE   NH311849   7.215   9.785   4.931 -0.2006  0.0577  0.0416
  893YOPE   PO411850   7.023   9.634   5.275 -0.5597 -0.3018 -0.1235
  893YOPE   GL111851   7.284   9.804   5.674  0.1594 -0.1230 -0.1821
  893YOPE   GL211852   7.065  10.205   5.689  0.0317 -0.1080  0.1474
  893YOPE   C1A11853   7.343   9.640   6.133  0.1442 -0.2546 -0.4548
  893YOPE   D2A11854   7.582   9.780   6.486 -0.0553 -0.1058  0.1086
  893YOPE   C3A11855   7.487   9.824   6.979 -0.3476 -0.1890  0.0114
  893YOPE   C4A11856   7.565   9.510   7.175 -0.0479 -0.2899 -0.0780
  893YOPE   C1B11857   7.069  10.077   6.131  0.1194  0.0010 -0.3334
  893YOPE   C2B11858   7.133   9.829   6.612 -0.2888 -0.0716 -0.0040
  893YOPE   D3B11859   6.962   9.878   7.005  0.0446 -0.0846 -0.2781
  893YOPE   C4B11860   6.989   9.681   7.363  0.0592 -0.0281  0.1237
  894YOPE   NH311861  15.601  10.097   6.152  0.0115 -0.2645 -0.2259
  894YOPE   PO411862  15.871  10.484   6.102  0.0749 -0.1770 -0.0041
  894YOPE   GL111863  16.096  10.102   6.455 -0.1542  0.0202 -0.4130
  894YOPE   GL211864  16.309   9.957   6.380  0.2437  0.0870 -0.3124
  894YOPE   C1A11865  16.074   9.965   6.876 -0.3143  0.3978  0.0847
  894YOPE   D2A11866  15.979   9.964   7.294  0.1823  0.0337 -0.0341
  894YOPE   C3A11867  16.005  10.020   7.665  0.1377  0.0728 -0.5837
  894YOPE   C4A11868  16.027   9.756   8.083 -0.0122 -0.0885 -0.1843
  894YOPE   C1B11869  16.499   9.781   6.738 -0.0044 -0.0650  0.0557
  894YOPE   C2B11870  16.420   9.695   7.106 -0.2167  0.0553  0.1587
  894YOPE   D3B11871  16.357   9.771   7.446 -0.2790  0.4637 -0.0740
  894YOPE   C4B11872  16.368   9.544   7.763  0.0140 -0.1207 -0.1905
  895YOPE   NH311873   8.434   5.148   5.952 -0.0109 -0.2214  0.1050
  895YOPE   PO411874   8.029   5.191   5.704 -0.0745  0.1503 -0.1007
  895YOPE   GL111875   8.078   5.457   6.188  0.2917  0.1869 -0.1248
  895YOPE   GL211876   8.202   5.208   6.381 -0.2107  0.3093 -0.1240
  895YOPE   C1A11877   8.087   5.785   6.530  0.1864 -0.3739 -0.3576
  895YOPE   D2A11878   7.929   6.007   6.907  0.2489  0.1483  0.0183
  895YOPE   C3A11879   8.071   6.428   7.018 -0.0968  0.0858 -0.1344
  895YOPE   C4A11880   8.036   6.570   7.374  0.2759 -0.2348  0.1860
  895YOPE   C1B11881   8.127   5.330   6.856 -0.2518  0.0634  0.0135
  895YOPE   C2B11882   7.953   5.592   7.243 -0.1237 -0.2211  0.0622
  895YOPE   D3B11883   8.225   5.710   7.617  0.1310  0.2912  0.1299
  895YOPE   C4B11884   8.402   5.466   8.090  0.3139 -0.0703 -0.0984
  896YOPE   NH311885   7.773  10.828   5.404  0.2371  0.0502 -0.0519
  896YOPE   PO411886   7.791  10.409   5.301  0.0918 -0.1876  0.0059
  896YOPE   GL111887   7.621  10.309   5.683 -0.1479 -0.0769  0.0630
  896YOPE   GL211888   7.972  10.402   5.755 -0.1901  0.2001 -0.1706
  896YOPE   C1A11889   7.582  10.143   6.124 -0.0004 -0.2057  0.1837
  896YOPE   D2A11890   7.874  10.107   6.608  0.0787 -0.0556 -0.5040
  896YOPE   C3A11891   7.953   9.710   6.910  0.1419  0.0065 -0.0363
  896YOPE   C4A11892   8.237   9.652   7.250  0.1984 -0.0851  0.0463
  896YOPE   C1B11893   8.087  10.173   6.092 -0.0975  0.1010 -0.2009
  896YOPE   C2B11894   8.321  10.073   6.547  0.0394 -0.0332  0.1803
  896YOPE   D3B11895   8.380  10.051   6.998 -0.2338  0.1467 -0.0734
  896YOPE   C4B11896   8.530  10.209   7.379  0.0868  0.2973 -0.2133
  897YOPE   NH311897   8.737  17.633   5.806 -0.1558 -0.2138 -0.0908
  897YOPE   PO411898   9.275  17.815   5.960  0.0254 -0.3473 -0.2830
  897YOPE   GL111899   9.138  17.676   6.305  0.3016  0.1701 -0.1463
  897YOPE   GL211900   9.111  17.370   6.197  0.0006  0.0278  0.1832
  897YOPE   C1A11901   8.990  17.579   6.737  0.0414  0.0293  0.1568
  897YOPE   D2A11902   9.270  17.208   6.933  0.0655  0.1134 -0.2044
  897YOPE   C3A11903   9.178  17.352   7.377  0.2243  0.0014 -0.0296
  897YOPE   C4A11904   9.004  17.518   7.733 -0.1029 -0.1291  0.1059
  897YOPE   C1B11905   8.819  17.076   6.512 -0.1483 -0.0078 -0.0487
  897YOPE   C2B11906   8.836  16.973   6.945 -0.2131 -0.0970 -0.0697
  897YOPE   D3B11907   8.933  16.567   7.171  0.3480 -0.3999  0.2798
  897YOPE   C4B11908   8.865  16.134   7.297 -0.0413 -0.0874  0.1327
  898YOPE   NH311909   9.588   7.450   5.546 -0.2162 -0.1343 -0.0381
  898YOPE   PO411910   9.192   7.307   5.846  0.2708  0.0563  0.0221
  898YOPE   GL111911   9.557   7.381   6.211  0.2943 -0.0398 -0.0041
  898YOPE   GL211912   9.785   7.664   6.057  0.3014  0.3013 -0.0070
  898YOPE   C1A11913   9.653   7.414   6.656  0.3226  0.1941 -0.0792
  898YOPE   D2A11914   9.423   7.605   6.954 -0.2108 -0.1474 -0.0744
  898YOPE   C3A11915   9.535   7.655   7.350 -0.0538  0.1829 -0.2613
  898YOPE   C4A11916   9.655   7.496   7.779 -0.1393 -0.2161  0.1672
  898YOPE   C1B11917   9.902   7.840   6.491 -0.0035 -0.2193 -0.0041
  898YOPE   C2B11918  10.169   7.760   6.829 -0.0234  0.0733  0.2912
  898YOPE   D3B11919  10.092   7.776   7.338  0.3286 -0.1269  0.2342
  898YOPE   C4B11920   9.827   7.996   7.726 -0.2007 -0.0761 -0.1728
  899YOPE   NH311921   5.749  10.874   5.981  0.1740 -0.0078 -0.1548
  899YOPE   PO411922   6.054  10.731   5.799 -0.1029 -0.1076 -0.2972
  899YOPE   GL111923   6.304  10.902   6.029  0.1832  0.0583 -0.0586
  899YOPE   GL211924   6.105  10.917   6.317  0.0978 -0.0267 -0.1552
  899YOPE   C1A11925   6.533  11.235   6.357 -0.3190  0.1483  0.2129
  899YOPE   D2A11926   6.712  11.556   6.576 -0.1474  0.1269 -0.0523
  899YOPE   C3A11927   6.503  11.831   6.880 -0.2745 -0.2285 -0.2093
  899YOPE   C4A11928   6.681  11.927   7.186  0.3433 -0.0513 -0.2277
  899YOPE   C1B11929   6.217  11.183   6.690 -0.3083  0.1300 -0.0898
  899YOPE   C2B11930   6.173  11.361   7.056 -0.0437  0.0384  0.1520
  899YOPE   D3B11931   6.300  11.651   7.384  0.0292 -0.2088 -0.2439
  899YOPE   C4B11932   6.291  12.072   7.502  0.4204 -0.2341 -0.0149
  900YOPE   NH311933   8.883  12.805   5.580 -0.3212 -0.1068 -0.1661
  900YOPE   PO411934   9.232  12.847   5.701 -0.1777  0.1147 -0.1540
  900YOPE   GL111935   9.285  13.121   5.931 -0.2700 -0.2194 -0.0435
  900YOPE   GL211936   9.367  12.922   6.326  0.1541 -0.1253 -0.1051
  900YOPE   C1A11937   9.498  13.438   6.214  0.1212  0.1008 -0.3851
  900YOPE   D2A11938   9.672  13.909   6.269  0.0043  0.3100 -0.0789
  900YOPE   C3A11939   9.739  13.959   6.718 -0.1960  0.0312 -0.1746
  900YOPE   C4A11940   9.461  13.922   7.140 -0.1581 -0.3869  0.3835
  900YOPE   C1B11941   9.215  12.746   6.651  0.1924  0.0530  0.1722
  900YOPE   C2B11942   9.290  12.822   7.077  0.3554  0.0520 -0.2477
  900YOPE   D3B11943   9.349  13.065   7.319 -0.0215 -0.3267 -0.1443
  900YOPE   C4B11944   9.085  13.234   7.594 -0.0314 -0.3381 -0.0986
  901YOPE   NH311945   8.617  14.649   5.318  0.4178 -0.2144 -0.0070
  901YOPE   PO411946   8.901  14.869   5.613 -0.0864 -0.0007  0.1107
  901YOPE   GL111947   9.009  14.961   5.978  0.0081  0.2359  0.0615
  901YOPE   GL211948   9.063  14.899   6.365  0.0962  0.1569 -0.1085
  901YOPE   C1A11949   9.174  15.379   6.094  0.3634  0.2667 -0.1272
  901YOPE   D2A11950   9.441  15.225   6.369  0.0059 -0.2943 -0.2136
  901YOPE   C3A11951   9.587  14.788   6.306  0.5530 -0.2683 -0.0489
  901YOPE   C4A11952   9.660  14.423   6.434 -0.2722 -0.2063  0.1164
  901YOPE   C1B11953   9.330  14.821   6.712 -0.0031  0.1342  0.0120
  901YOPE   C2B11954   9.426  14.982   7.018  0.0425  0.0089  0.0142
  901YOPE   D3B11955   9.608  15.274   7.366 -0.0672 -0.0250 -0.0605
  901YOPE   C4B11956   9.844  15.487   7.760 -0.1281  0.3893 -0.0517
  902YOPE   NH311957  14.674   6.127   5.771 -0.0434  0.1289  0.1415
  902YOPE   PO411958  14.431   6.189   6.130 -0.0625  0.0440 -0.3955
  902YOPE   GL111959  14.541   6.075   6.592  0.0742 -0.1247 -0.0377
  902YOPE   GL211960  14.783   5.882   6.702  0.1060  0.1868 -0.3142
  902YOPE   C1A11961  14.485   6.000   7.125 -0.0127  0.0502  0.1339
  902YOPE   D2A11962  14.271   5.764   7.518 -0.2142 -0.1262 -0.2200
  902YOPE   C3A11963  14.451   5.971   7.907  0.3397  0.1245  0.1410
  902YOPE   C4A11964  14.650   6.065   8.388  0.0234  0.0874  0.0616
  902YOPE   C1B11965  14.922   5.796   7.118 -0.0866  0.2904  0.3664
  902YOPE   C2B11966  15.000   5.414   7.415 -0.2648  0.2236 -0.0684
  902YOPE   D3B11967  15.376   5.397   7.630  0.0210  0.2467 -0.0039
  902YOPE   C4B11968  15.636   5.486   7.865  0.3593  0.1256 -0.1732
  903YOPE   NH311969  13.879  10.340   5.477 -0.0050  0.4179  0.5133
  903YOPE   PO411970  13.560  10.527   5.537  0.4533 -0.1489 -0.0295
  903YOPE   GL111971  13.390  10.082   5.765  0.2129 -0.1731  0.1105
  903YOPE   GL211972  13.310   9.784   5.724 -0.1690  0.2565  0.1611
  903YOPE   C1A11973  13.179  10.042   6.148 -0.4459 -0.2529  0.0956
  903YOPE   D2A11974  13.273  10.243   6.551  0.1254  0.1417 -0.0158
  903YOPE   C3A11975  13.280  10.611   6.750 -0.1508 -0.1330 -0.0602
  903YOPE   C4A11976  12.996  10.982   6.939 -0.0772  0.1671  0.0118
  903YOPE   C1B11977  13.524   9.615   6.123 -0.1696  0.3678  0.0746
  903YOPE   C2B11978  13.589   9.367   6.459 -0.0749 -0.1399  0.1049
  903YOPE   D3B11979  13.501   9.202   6.967  0.0160  0.0264 -0.1167
  903YOPE   C4B11980  13.406   9.004   7.366  0.4180 -0.0809  0.1300
  904YOPE   NH311981  17.510  13.075   5.597 -0.2394 -0.1261 -0.1399
  904YOPE   PO411982  17.911  13.037   5.790 -0.0740  0.0159  0.0400
  904YOPE   GL111983  18.097  13.040   6.194  0.0678 -0.1228  0.1774
  904YOPE   GL211984  18.368  12.822   6.265 -0.0410 -0.3547  0.1221
  904YOPE   C1A11985  17.921  12.906   6.624  0.1532  0.2597 -0.0060
  904YOPE   D2A11986  18.049  12.789   7.046 -0.3739  0.0724  0.0037
  904YOPE   C3A11987  17.929  12.869   7.473  0.0475 -0.0100 -0.0414
  904YOPE   C4A11988  17.810  12.997   7.794  0.1542  0.2193 -0.0125
  904YOPE   C1B11989  18.620  12.950   6.517 -0.3117 -0.0317 -0.0005
  904YOPE   C2B11990  18.541  13.058   7.013  0.1124  0.1570 -0.1170
  904YOPE   D3B11991  18.428  13.211   7.387  0.1757  0.1426  0.0457
  904YOPE   C4B11992  18.294  13.371   7.784  0.2203 -0.1885  0.3278
  905YOPE   NH311993   5.345   9.943   6.027  0.0319 -0.0029  0.1605
  905YOPE   PO411994   5.579  10.388   5.958  0.1255  0.4668 -0.3436
  905YOPE   GL111995   5.624  10.212   6.437 -0.2690  0.0238 -0.0268
  905YOPE   GL211996   5.263  10.062   6.543  0.0401 -0.0974  0.1901
  905YOPE   C1A11997   5.596  10.227   6.915  0.2436 -0.1219 -0.0919
  905YOPE   D2A11998   5.294  10.059   7.245 -0.3268 -0.2331 -0.1464
  905YOPE   C3A11999   5.420  10.381   7.444  0.0900 -0.1330  0.1359
  905YOPE   C4A12000   5.300  10.541   7.767  0.2764  0.0463  0.1063
  905YOPE   C1B12001   5.232   9.729   6.827  0.1836  0.1947 -0.2035
  905YOPE   C2B12002   5.040   9.390   6.942  0.0642 -0.0778  0.2610
  905YOPE   D3B12003   4.827   9.225   7.331 -0.0828 -0.0550 -0.1845
  905YOPE   C4B12004   4.626   8.814   7.598  0.2367 -0.3032 -0.0281
  906YOPE   NH312005  17.401   0.890   5.233  0.0434 -0.0848 -0.0143
  906YOPE   PO412006  17.503   0.587   5.505 -0.0183  0.2276  0.4814
  906YOPE   GL112007  17.772   0.677   5.991  0.2581 -0.1163  0.1748
  906YOPE   GL212008  17.945   0.395   6.066 -0.1973  0.0258 -0.1534
  906YOPE   C1A12009  17.854   0.968   6.356  0.1780 -0.0415 -0.1811
  906YOPE   D2A12010  18.018   1.256   6.686  0.0146  0.1695  0.2299
  906YOPE   C3A12011  18.475   1.266   6.890  0.1134  0.0233 -0.2677
  906YOPE   C4A12012  18.513   1.284   7.359  0.1505  0.1429 -0.1560
  906YOPE   C1B12013  17.773   0.448   6.459  0.1162  0.0699 -0.1293
  906YOPE   C2B12014  17.490   0.393   6.842  0.1015 -0.1370  0.4124
  906YOPE   D3B12015  17.254   0.246   7.163 -0.2119 -0.3899 -0.0989
  906YOPE   C4B12016  17.189  -0.108   7.407  0.2195 -0.2465 -0.1300
  907YOPE   NH312017  10.048   8.997   5.609 -0.1123 -0.1908 -0.1757
  907YOPE   PO412018   9.959   9.124   5.239 -0.3055 -0.2382 -0.2692
  907YOPE   GL112019   9.771   9.410   5.443 -0.2178 -0.1130 -0.0870
  907YOPE   GL212020  10.108   9.533   5.662  0.1140  0.0299  0.0655
  907YOPE   C1A12021   9.352   9.527   5.772 -0.3155 -0.2202 -0.0282
  907YOPE   D2A12022   9.135   9.434   6.127 -0.1945 -0.1474  0.2709
  907YOPE   C3A12023   8.894   9.072   6.065  0.1551 -0.1964 -0.0984
  907YOPE   C4A12024   8.613   8.860   5.818  0.1910 -0.0154  0.2884
  907YOPE   C1B12025   9.877   9.868   5.821 -0.0413 -0.4829 -0.4038
  907YOPE   C2B12026  10.143  10.100   6.070 -0.0929  0.1102  0.1816
  907YOPE   D3B12027  10.192  10.240   6.463 -0.1601  0.0899  0.0860
  907YOPE   C4B12028  10.117  10.062   6.887  0.2541  0.0790  0.0971
  908YOPE   NH312029  10.342   6.149   5.320  0.0092  0.0830 -0.1011
  908YOPE   PO412030  10.509   6.533   5.454 -0.0840  0.2429 -0.2024
  908YOPE   GL112031  10.582   6.410   5.930  0.0197  0.1949  0.0199
  908YOPE   GL212032  10.282   6.371   5.885 -0.2435 -0.1190  0.2766
  908YOPE   C1A12033  10.574   6.511   6.273 -0.0224  0.1375 -0.1008
  908YOPE   D2A12034  10.401   6.749   6.537 -0.1946 -0.1332 -0.1026
  908YOPE   C3A12035  10.246   6.556   7.015 -0.0974  0.3334 -0.0902
  908YOPE   C4A12036  10.435   6.402   7.425  0.2015  0.2092 -0.0181
  908YOPE   C1B12037  10.214   6.182   6.362 -0.1006  0.0135 -0.2349
  908YOPE   C2B12038  10.229   6.073   6.766  0.0110 -0.3217 -0.2362
  908YOPE   D3B12039  10.043   5.766   7.048  0.2265 -0.2832 -0.0056
  908YOPE   C4B12040  10.349   5.505   7.253  0.2418  0.2111  0.3480
  909YOPE   NH312041  17.054  17.742   5.619  0.0606 -0.2597 -0.2683
  909YOPE   PO412042  16.890  18.212   5.383 -0.2746 -0.0856 -0.1570
  909YOPE   GL112043  16.782  18.146   5.879  0.0020  0.3285 -0.0650
  909YOPE   GL212044  16.829  18.512   6.094 -0.3032  0.0998 -0.3045
  909YOPE   C1A12045  16.837  18.064   6.325  0.3085  0.0225 -0.0731
  909YOPE   D2A12046  16.774  17.979   6.695 -0.3220 -0.0489  0.2822
  909YOPE   C3A12047  16.983  17.867   7.077  0.0580  0.1708  0.0249
  909YOPE   C4A12048  17.050  18.091   7.561 -0.0987 -0.0880  0.0719
  909YOPE   C1B12049  17.128  18.831   6.254  0.0016  0.0278 -0.0259
  909YOPE   C2B12050  17.003  19.180   6.474  0.0667 -0.1505  0.1709
  909YOPE   D3B12051  16.953  19.591   6.250  0.0689 -0.0432  0.1575
  909YOPE   C4B12052  16.884  20.067   6.161  0.1894  0.1664  0.0558
  910YOPE   NH312053  13.775  14.608   5.539 -0.0122 -0.0571  0.2938
  910YOPE   PO412054  14.249  14.704   5.597  0.1889  0.3844  0.2789
  910YOPE   GL112055  13.994  14.553   6.000 -0.1643  0.2016 -0.1276
  910YOPE   GL212056  14.189  14.379   6.146  0.0486 -0.3026 -0.1639
  910YOPE   C1A12057  13.738  14.880   6.160 -0.1546  0.3179 -0.1263
  910YOPE   D2A12058  13.591  15.164   6.482  0.1191 -0.2640  0.1934
  910YOPE   C3A12059  13.416  15.456   6.410 -0.2186  0.0636 -0.0636
  910YOPE   C4A12060  13.624  15.740   6.142  0.2260 -0.1194  0.0654
  910YOPE   C1B12061  14.336  14.201   6.560  0.2592 -0.1832 -0.2371
  910YOPE   C2B12062  14.216  14.224   6.955 -0.1151  0.1798  0.2009
  910YOPE   D3B12063  14.314  14.197   7.371  0.1443  0.0102  0.4039
  910YOPE   C4B12064  14.488  14.459   7.610 -0.1180 -0.2732  0.2231
  911YOPE   NH312065  15.695   2.859   5.793 -0.0205 -0.3185  0.1701
  911YOPE   PO412066  15.440   3.286   5.663  0.0381 -0.0201 -0.2193
  911YOPE   GL112067  15.644   3.362   6.042  0.2453 -0.2676 -0.4320
  911YOPE   GL212068  15.611   3.644   6.221  0.1487  0.1889 -0.3449
  911YOPE   C1A12069  15.742   3.225   6.514  0.0186  0.0208 -0.2195
  911YOPE   D2A12070  16.063   3.098   6.770 -0.0528  0.2592  0.0720
  911YOPE   C3A12071  15.940   3.060   7.189 -0.1173 -0.3530 -0.3487
  911YOPE   C4A12072  16.150   2.753   7.505 -0.0219  0.4478  0.0431
  911YOPE   C1B12073  15.689   3.793   6.629 -0.0067 -0.0888  0.0355
  911YOPE   C2B12074  15.786   3.608   6.994  0.3673 -0.2502  0.2226
  911YOPE   D3B12075  15.626   3.526   7.397 -0.0044  0.1642 -0.0171
  911YOPE   C4B12076  15.363   3.357   7.713 -0.0952  0.0713  0.2923
  912YOPE   NH312077  13.259  13.675   5.732 -0.3953  0.1147 -0.1531
  912YOPE   PO412078  13.516  13.288   5.752  0.1729 -0.1539 -0.0713
  912YOPE   GL112079  13.508  13.022   6.182 -0.2167 -0.1898 -0.0748
  912YOPE   GL212080  13.294  12.864   6.253  0.2440  0.2670  0.0597
  912YOPE   C1A12081  13.753  13.006   6.610 -0.2241  0.0065 -0.2127
  912YOPE   D2A12082  13.805  12.905   7.056  0.3451  0.0962  0.0037
  912YOPE   C3A12083  13.696  12.593   7.418 -0.3319 -0.3991 -0.0648
  912YOPE   C4A12084  13.456  12.568   7.773  0.0103  0.4607  0.1218
  912YOPE   C1B12085  12.909  12.882   6.398  0.0216  0.1763 -0.0041
  912YOPE   C2B12086  12.437  12.952   6.409  0.1473  0.2517 -0.0041
  912YOPE   D3B12087  12.055  13.137   6.628 -0.0385 -0.0915  0.1444
  912YOPE   C4B12088  12.125  13.279   7.075 -0.3119 -0.0974  0.0734
  913YOPE   NH312089  15.068  13.639   5.790  0.1093 -0.2956 -0.2078
  913YOPE   PO412090  15.045  14.058   5.824 -0.1621 -0.1768  0.1437
  913YOPE   GL112091  15.086  13.979   6.214 -0.1266  0.2232  0.2246
  913YOPE   GL212092  15.332  14.180   6.246  0.0522 -0.1032  0.1045
  913YOPE   C1A12093  14.958  14.227   6.554  0.0408  0.1920  0.0247
  913YOPE   D2A12094  14.758  14.240   6.916  0.2107 -0.0097 -0.0864
  913YOPE   C3A12095  14.532  14.551   7.121 -0.3083  0.1100 -0.0722
  913YOPE   C4A12096  14.420  14.949   7.457 -0.1666  0.4165  0.1895
  913YOPE   C1B12097  15.253  14.656   6.399  0.1397  0.2241 -0.1945
  913YOPE   C2B12098  14.972  14.872   6.683  0.1897  0.0249  0.1289
  913YOPE   D3B12099  14.946  14.892   7.123 -0.3211  0.0013 -0.0510
  913YOPE   C4B12100  14.912  14.944   7.529  0.2372  0.0662  0.2976
  914YOPE   NH312101   0.472   2.325   5.509 -0.1699 -0.1249  0.2609
  914YOPE   PO412102   0.713   2.615   5.479  0.2287  0.1057  0.0632
  914YOPE   GL112103   0.939   2.681   5.930  0.0937  0.0633  0.0448
  914YOPE   GL212104   1.240   2.452   6.083 -0.1996 -0.1470 -0.1538
  914YOPE   C1A12105   1.034   2.786   6.415 -0.1666  0.0022  0.2597
  914YOPE   D2A12106   0.987   3.044   6.803  0.3059  0.1078 -0.0127
  914YOPE   C3A12107   0.888   2.824   7.137  0.0095  0.2825 -0.2422
  914YOPE   C4A12108   0.853   2.540   7.476  0.4010 -0.1583 -0.0573
  914YOPE   C1B12109   1.376   2.349   6.554 -0.1033 -0.1424 -0.2437
  914YOPE   C2B12110   1.652   2.323   6.924 -0.3893 -0.0338 -0.0560
  914YOPE   D3B12111   1.607   2.355   7.421 -0.0854 -0.0520  0.1441
  914YOPE   C4B12112   1.342   2.480   7.801 -0.0213  0.3257  0.3919
  915YOPE   NH312113  13.919   7.635   5.550 -0.2768  0.0857  0.1563
  915YOPE   PO412114  13.523   7.411   5.512  0.1045  0.1167  0.2461
  915YOPE   GL112115  13.634   7.350   5.979  0.3626 -0.0558  0.0799
  915YOPE   GL212116  13.436   7.605   6.024 -0.1832  0.2149 -0.0331
  915YOPE   C1A12117  13.725   7.374   6.458  0.4291  0.0661 -0.1711
  915YOPE   D2A12118  13.661   7.260   6.785  0.0946  0.0739 -0.0414
  915YOPE   C3A12119  13.834   7.500   7.158  0.1041  0.1424 -0.1725
  915YOPE   C4A12120  14.060   7.304   7.507 -0.3515  0.1828 -0.0038
  915YOPE   C1B12121  13.483   7.849   6.460 -0.0905  0.1630 -0.0713
  915YOPE   C2B12122  13.418   8.367   6.528  0.2270 -0.2042 -0.2067
  915YOPE   D3B12123  13.578   8.796   6.378  0.1236 -0.1588  0.3793
  915YOPE   C4B12124  13.808   9.030   5.993 -0.0716 -0.1113 -0.0871
  916YOPE   NH312125   8.048   0.459   6.192  0.1784 -0.0171 -0.0830
  916YOPE   PO412126   8.156   0.831   6.074 -0.1022 -0.0339  0.1980
  916YOPE   GL112127   8.285   0.795   6.562 -0.1429  0.0769 -0.0230
  916YOPE   GL212128   8.231   0.610   6.641  0.1151 -0.1444  0.2746
  916YOPE   C1A12129   8.425   0.880   7.017 -0.1372  0.0868 -0.0465
  916YOPE   D2A12130   8.251   0.860   7.312  0.0201 -0.1279 -0.0165
  916YOPE   C3A12131   8.642   0.820   7.532  0.0937 -0.2234  0.0504
  916YOPE   C4A12132   9.076   0.949   7.722  0.0678  0.2904 -0.0882
  916YOPE   C1B12133   8.136   0.480   7.053  0.1477 -0.1608  0.0033
  916YOPE   C2B12134   7.901   0.329   7.323  0.1733 -0.0567  0.1682
  916YOPE   D3B12135   8.067   0.086   7.630  0.0434 -0.0983 -0.0972
  916YOPE   C4B12136   8.110  -0.276   7.930 -0.0714  0.1104  0.0924
  917YOPE   NH312137   0.535  15.292   5.878  0.0891  0.0600  0.0686
  917YOPE   PO412138   0.883  15.404   5.942  0.0181 -0.0876 -0.2450
  917YOPE   GL112139   0.672  15.378   6.350  0.0076 -0.0020 -0.0216
  917YOPE   GL212140   0.456  15.517   6.361  0.1179 -0.3388 -0.0433
  917YOPE   C1A12141   0.759  15.404   6.834 -0.1100 -0.1007  0.2047
  917YOPE   D2A12142   0.662  15.466   7.259 -0.0983 -0.2155 -0.3074
  917YOPE   C3A12143   0.804  15.209   7.429  0.0101 -0.0142  0.2833
  917YOPE   C4A12144   0.878  14.758   7.374  0.1144  0.3080  0.0212
  917YOPE   C1B12145   0.201  15.447   6.665  0.0746 -0.0311 -0.1615
  917YOPE   C2B12146  -0.106  15.179   6.904 -0.1828  0.3893  0.1227
  917YOPE   D3B12147  -0.294  15.108   7.216 -0.0697  0.0173  0.2234
  917YOPE   C4B12148  -0.836  15.077   7.273 -0.2484 -0.0101 -0.0321
  918YOPE   NH312149  18.227  17.023   5.821 -0.0016 -0.4648  0.0005
  918YOPE   PO412150  17.985  16.639   5.798  0.0474  0.3236 -0.2584
  918YOPE   GL112151  17.957  16.650   6.222  0.3351 -0.1971 -0.1226
  918YOPE   GL212152  17.620  16.713   6.260  0.3403  0.2730  0.0620
  918YOPE   C1A12153  17.857  16.470   6.630  0.1042 -0.1031 -0.0676
  918YOPE   D2A12154  18.096  16.525   7.043 -0.1293 -0.0741  0.1966
  918YOPE   C3A12155  18.605  16.593   6.943  0.0099  0.0348  0.4900
  918YOPE   C4A12156  19.001  16.499   6.963 -0.1763  0.0594 -0.1843
  918YOPE   C1B12157  17.546  16.864   6.659  0.0623 -0.1565  0.0674
  918YOPE   C2B12158  17.634  16.740   7.034  0.1013  0.1885 -0.1282
  918YOPE   D3B12159  17.316  16.664   7.376  0.0316  0.0722  0.0655
  918YOPE   C4B12160  17.240  16.331   7.660  0.0587 -0.3015  0.1292
  919YOPE   NH312161  17.130   8.932   6.022 -0.0557 -0.0169  0.2353
  919YOPE   PO412162  17.583   8.946   5.744 -0.0479 -0.1007  0.0386
  919YOPE   GL112163  17.644   8.931   6.254  0.3659 -0.0030  0.4201
  919YOPE   GL212164  17.892   8.757   6.391  0.1546 -0.0858  0.2621
  919YOPE   C1A12165  17.512   9.095   6.573  0.2663 -0.2965  0.0614
  919YOPE   D2A12166  17.525   9.277   6.896  0.0962 -0.0318 -0.3444
  919YOPE   C3A12167  17.500   9.035   7.218  0.0274  0.2865  0.0518
  919YOPE   C4A12168  17.383   8.748   7.531 -0.0720 -0.1568  0.1602
  919YOPE   C1B12169  17.842   8.629   6.826  0.2329  0.0442 -0.2675
  919YOPE   C2B12170  17.743   8.383   7.265 -0.0092 -0.0794 -0.0839
  919YOPE   D3B12171  17.531   8.320   7.708  0.3082  0.5183 -0.0614
  919YOPE   C4B12172  17.110   8.364   7.838  0.1200 -0.2507 -0.4003
  920YOPE   NH312173  12.383   0.856   5.972  0.0761 -0.2754 -0.1888
  920YOPE   PO412174  12.270   1.296   6.045 -0.2633  0.2325  0.2407
  920YOPE   GL112175  12.482   1.468   6.479  0.0344 -0.1429  0.1542
  920YOPE   GL212176  12.794   1.473   6.493 -0.0790  0.1932  0.2344
  920YOPE   C1A12177  12.527   1.495   6.923 -0.2376  0.2968 -0.2086
  920YOPE   D2A12178  12.464   1.429   7.361  0.0961  0.2305  0.2216
  920YOPE   C3A12179  12.418   1.734   7.661  0.1122  0.0397  0.1527
  920YOPE   C4A12180  12.022   1.774   7.913 -0.0492  0.0165 -0.3195
  920YOPE   C1B12181  13.033   1.560   6.849 -0.4825 -0.1454 -0.2864
  920YOPE   C2B12182  12.995   1.512   7.259 -0.4580 -0.0451 -0.0042
  920YOPE   D3B12183  12.932   1.574   7.633 -0.1311 -0.1279  0.0348
  920YOPE   C4B12184  13.145   1.826   7.927 -0.1224  0.0090  0.1326
  921YOPE   NH312185   6.939   0.257   6.219 -0.0047  0.2711  0.1096
  921YOPE   PO412186   7.036   0.694   6.173  0.0527 -0.3486  0.0456
  921YOPE   GL112187   6.904   0.685   6.637  0.1477 -0.0908  0.0502
  921YOPE   GL212188   7.212   0.478   6.706  0.1857 -0.0154 -0.1022
  921YOPE   C1A12189   6.658   0.607   7.063 -0.3371 -0.0244 -0.0583
  921YOPE   D2A12190   6.465   0.837   7.324 -0.2103 -0.0306 -0.0937
  921YOPE   C3A12191   6.421   0.726   7.787  0.2167 -0.1542  0.1355
  921YOPE   C4A12192   6.230   0.764   8.101  0.1569 -0.2520 -0.0121
  921YOPE   C1B12193   7.497   0.405   7.106  0.0053  0.1575  0.0080
  921YOPE   C2B12194   7.513   0.557   7.466  0.0354  0.2163  0.1020
  921YOPE   D3B12195   7.729   0.503   7.797  0.0971  0.2289 -0.1528
  921YOPE   C4B12196   7.963   0.287   8.052 -0.1082  0.1019  0.1605
  922YOPE   NH312197  16.720  17.305   5.410  0.1032  0.0007  0.1991
  922YOPE   PO412198  16.575  17.042   5.601 -0.0068 -0.0621 -0.0057
  922YOPE   GL112199  16.629  17.124   6.029 -0.1419 -0.2360 -0.2216
  922YOPE   GL212200  16.338  16.980   6.168 -0.1352 -0.1432 -0.0200
  922YOPE   C1A12201  16.801  17.080   6.364  0.3008 -0.1883  0.0159
  922YOPE   D2A12202  16.844  16.931   6.698  0.1208 -0.1926  0.0161
  922YOPE   C3A12203  16.704  17.029   7.002 -0.5021  0.0922 -0.4626
  922YOPE   C4A12204  16.467  16.813   7.306  0.2286  0.1212  0.2455
  922YOPE   C1B12205  16.367  17.075   6.588 -0.2957  0.1299 -0.0418
  922YOPE   C2B12206  16.218  17.287   6.989 -0.0121 -0.1927  0.1133
  922YOPE   D3B12207  16.126  17.191   7.355  0.1180  0.3729  0.1675
  922YOPE   C4B12208  16.069  17.288   7.849  0.0789 -0.4137 -0.1179
  923YOPE   NH312209   1.421  15.833   5.716  0.3213 -0.0091 -0.2750
  923YOPE   PO412210   1.750  16.125   5.643 -0.0364  0.0102 -0.0046
  923YOPE   GL112211   1.599  16.086   6.125 -0.1745  0.0053  0.4937
  923YOPE   GL212212   1.540  16.460   6.253  0.0209 -0.4297  0.1845
  923YOPE   C1A12213   1.497  15.751   6.573  0.2290  0.0799 -0.1714
  923YOPE   D2A12214   1.547  15.438   6.805  0.0810  0.0025 -0.1186
  923YOPE   C3A12215   1.689  15.513   7.180  0.0759  0.0720 -0.0579
  923YOPE   C4A12216   1.640  15.395   7.670 -0.2534 -0.1092  0.1019
  923YOPE   C1B12217   1.713  16.382   6.647 -0.0443 -0.0522 -0.7500
  923YOPE   C2B12218   1.852  16.467   7.094  0.0091  0.1651 -0.2118
  923YOPE   D3B12219   1.791  16.396   7.483  0.1762  0.1177  0.1375
  923YOPE   C4B12220   1.858  16.200   7.847  0.2334  0.1911  0.0129
  924YOPE   NH312221  15.008   5.395   5.855 -0.3154 -0.2589  0.2648
  924YOPE   PO412222  14.665   5.173   5.633 -0.1849 -0.0561  0.2128
  924YOPE   GL112223  14.709   5.087   6.093 -0.0003 -0.0636 -0.0343
  924YOPE   GL212224  14.420   4.753   6.033 -0.1812 -0.0545 -0.0581
  924YOPE   C1A12225  14.579   5.372   6.504 -0.1023  0.1748 -0.0322
  924YOPE   D2A12226  14.398   5.599   6.897  0.1438  0.1366  0.1616
  924YOPE   C3A12227  14.111   5.468   7.213  0.0725  0.0731  0.2141
  924YOPE   C4A12228  13.762   5.674   7.495 -0.2860  0.1135 -0.0214
  924YOPE   C1B12229  14.658   4.765   6.447 -0.1212 -0.2437 -0.2919
  924YOPE   C2B12230  15.003   5.037   6.667 -0.0640 -0.1969  0.1424
  924YOPE   D3B12231  14.943   5.015   7.082  0.0618  0.1256 -0.2355
  924YOPE   C4B12232  15.207   4.812   7.424 -0.1935 -0.3651 -0.2353
  925YOPE   NH312233   3.153  15.210   5.784 -0.1130  0.1988 -0.0365
  925YOPE   PO412234   3.416  15.077   6.154 -0.1791 -0.0351  0.1695
  925YOPE   GL112235   3.610  15.057   6.518  0.1904 -0.5106 -0.0119
  925YOPE   GL212236   3.968  15.229   6.598 -0.1679 -0.0553 -0.1739
  925YOPE   C1A12237   3.525  14.991   6.963  0.3850 -0.1109 -0.2685
  925YOPE   D2A12238   3.460  14.961   7.503 -0.3411 -0.0086 -0.1204
  925YOPE   C3A12239   3.274  15.241   7.856  0.0692 -0.3890  0.1316
  925YOPE   C4A12240   3.248  15.321   8.271  0.2385  0.0190  0.1017
  925YOPE   C1B12241   4.124  15.223   7.079 -0.1039  0.0653  0.1842
  925YOPE   C2B12242   4.367  15.099   7.427  0.2172 -0.1060  0.1553
  925YOPE   D3B12243   4.637  15.259   7.735  0.1995  0.1170 -0.1725
  925YOPE   C4B12244   4.892  15.080   7.990 -0.1575 -0.0682  0.0887
  926YOPE   NH312245  13.146   1.498   5.996 -0.1640  0.1775 -0.3924
  926YOPE   PO412246  13.560   1.632   6.121  0.2299 -0.1898  0.2635
  926YOPE   GL112247  13.618   1.690   6.537 -0.0975  0.1064  0.1334
  926YOPE   GL212248  13.369   1.352   6.500 -0.2627 -0.2909 -0.0122
  926YOPE   C1A12249  13.486   1.623   7.005 -0.0158  0.1330 -0.1137
  926YOPE   D2A12250  13.413   1.717   7.464 -0.3596 -0.0796  0.0502
  926YOPE   C3A12251  13.645   1.852   7.780 -0.0235  0.1526  0.2584
  926YOPE   C4A12252  14.090   1.793   7.751 -0.2631 -0.3135  0.0678
  926YOPE   C1B12253  13.490   1.174   6.835 -0.0907  0.3691 -0.3036
  926YOPE   C2B12254  13.486   1.192   7.253  0.0302 -0.0898  0.0871
  926YOPE   D3B12255  13.465   1.034   7.656 -0.1025 -0.0685 -0.0772
  926YOPE   C4B12256  13.779   1.089   8.051  0.1299  0.2309  0.2328
  927YOPE   NH312257  11.535   4.520   5.141 -0.2115 -0.0296  0.1410
  927YOPE   PO412258  11.777   4.098   5.182  0.1216  0.0179 -0.2220
  927YOPE   GL112259  11.762   4.308   5.538  0.1320 -0.1692  0.0248
  927YOPE   GL212260  11.861   4.750   5.497 -0.0407  0.0929  0.1696
  927YOPE   C1A12261  11.980   4.436   5.885 -0.0699  0.2926 -0.0998
  927YOPE   D2A12262  12.394   4.501   6.133 -0.3078 -0.1359  0.1844
  927YOPE   C3A12263  12.382   4.931   6.358  0.0530  0.2692  0.0886
  927YOPE   C4A12264  12.346   5.245   6.626  0.1673 -0.0224  0.0113
  927YOPE   C1B12265  11.859   4.867   5.902  0.3132  0.0936  0.3337
  927YOPE   C2B12266  11.569   4.972   6.210  0.3328 -0.0927  0.2652
  927YOPE   D3B12267  11.601   5.148   6.592 -0.1947 -0.1229  0.3544
  927YOPE   C4B12268  11.459   5.290   6.987  0.1484 -0.1817 -0.0369
  928YOPE   NH312269  14.792   1.312   5.637  0.1435 -0.0784  0.2864
  928YOPE   PO412270  14.851   1.781   5.809  0.0680  0.0310  0.0022
  928YOPE   GL112271  14.705   1.475   6.105  0.0466  0.0599 -0.2004
  928YOPE   GL212272  14.935   1.467   6.366  0.2951  0.1387 -0.0127
  928YOPE   C1A12273  14.507   1.183   6.422 -0.2063 -0.0167  0.2671
  928YOPE   D2A12274  14.473   0.893   6.832  0.0668 -0.0371  0.1483
  928YOPE   C3A12275  14.526   0.923   7.236 -0.0478 -0.1890  0.0585
  928YOPE   C4A12276  14.724   0.620   7.468 -0.2079  0.0162  0.2323
  928YOPE   C1B12277  14.727   1.495   6.721 -0.1976 -0.2608  0.0302
  928YOPE   C2B12278  14.413   1.345   7.015 -0.2197  0.1179 -0.1854
  928YOPE   D3B12279  13.969   1.367   7.186  0.2789  0.0310  0.1469
  928YOPE   C4B12280  13.798   1.396   7.610  0.1081  0.1384 -0.0047
  929YOPE   NH312281  11.242   0.213   5.354  0.3176  0.1129  0.3677
  929YOPE   PO412282  10.931   0.602   5.668 -0.0022 -0.1533  0.3434
  929YOPE   GL112283  10.861   0.214   5.904  0.0722 -0.1543 -0.0046
  929YOPE   GL212284  10.800   0.292   6.281 -0.0142  0.4393  0.0980
  929YOPE   C1A12285  10.620  -0.150   6.012 -0.2964  0.2605  0.0895
  929YOPE   D2A12286  10.562  -0.660   6.144 -0.3749 -0.1536 -0.1590
  929YOPE   C3A12287  10.971  -0.666   6.432 -0.1084 -0.0442 -0.1041
  929YOPE   C4A12288  11.231  -0.381   6.808  0.1511  0.0501  0.1855
  929YOPE   C1B12289  10.860   0.306   6.647 -0.1696 -0.0827  0.1789
  929YOPE   C2B12290  10.878   0.048   6.989  0.3049 -0.0143 -0.0304
  929YOPE   D3B12291  10.937  -0.156   7.346  0.0223  0.0165 -0.0649
  929YOPE   C4B12292  10.900  -0.543   7.647 -0.1745  0.3848  0.0922
  930YOPE   NH312293   4.743   2.182   6.143 -0.3160 -0.0880 -0.0815
  930YOPE   PO412294   4.579   2.543   5.890  0.2481 -0.2765 -0.0827
  930YOPE   GL112295   4.519   2.682   6.320 -0.1362 -0.0452  0.1936
  930YOPE   GL212296   4.567   2.475   6.518 -0.1231  0.1136  0.1087
  930YOPE   C1A12297   4.424   2.971   6.653 -0.0045 -0.0406 -0.1899
  930YOPE   D2A12298   4.616   3.137   6.956  0.1259 -0.0528 -0.5831
  930YOPE   C3A12299   4.675   2.821   7.257 -0.1322  0.0188  0.0622
  930YOPE   C4A12300   4.672   2.714   7.689  0.1484 -0.1718 -0.2577
  930YOPE   C1B12301   4.293   2.566   6.847 -0.1236 -0.1094 -0.1421
  930YOPE   C2B12302   4.192   2.934   7.153 -0.0840 -0.0773  0.2539
  930YOPE   D3B12303   4.321   3.458   7.189 -0.0862  0.4510  0.0608
  930YOPE   C4B12304   4.138   3.821   7.507 -0.0214 -0.3919  0.0948
  931YOPE   NH312305  16.567  18.497   5.636 -0.0552 -0.1591 -0.1604
  931YOPE   PO412306  16.543  18.980   5.621 -0.2033  0.1315  0.3102
  931YOPE   GL112307  16.540  18.901   6.110 -0.0525 -0.1374 -0.3773
  931YOPE   GL212308  16.551  19.259   6.119  0.0475  0.2186  0.0141
  931YOPE   C1A12309  16.594  18.848   6.431  0.1953 -0.1809  0.1160
  931YOPE   D2A12310  16.697  18.990   6.883 -0.0038  0.3836  0.2935
  931YOPE   C3A12311  16.948  19.372   6.949  0.0287  0.0590  0.0338
  931YOPE   C4A12312  17.295  19.520   7.217 -0.3348 -0.3199 -0.3240
  931YOPE   C1B12313  16.457  19.338   6.579 -0.3925  0.2140 -0.1951
  931YOPE   C2B12314  16.468  19.426   7.016 -0.0510  0.3739 -0.0003
  931YOPE   D3B12315  16.708  19.691   7.248  0.1427  0.3555  0.0375
  931YOPE   C4B12316  16.844  19.599   7.658 -0.0317 -0.1163 -0.2221
  932YOPE   NH312317  16.518   5.067   5.591 -0.3444 -0.2281 -0.0024
  932YOPE   PO412318  16.291   5.059   5.866  0.1894 -0.2531  0.3805
  932YOPE   GL112319  16.284   4.885   6.212 -0.1147 -0.1569 -0.1057
  932YOPE   GL212320  16.075   4.550   6.232 -0.0121 -0.1922  0.3205
  932YOPE   C1A12321  16.366   4.865   6.637 -0.3848 -0.2993 -0.4169
  932YOPE   D2A12322  16.517   4.537   6.884 -0.0148 -0.0236  0.0065
  932YOPE   C3A12323  16.449   4.381   7.281  0.1769 -0.0932 -0.0135
  932YOPE   C4A12324  16.302   4.189   7.682  0.2334 -0.0098  0.1286
  932YOPE   C1B12325  15.897   4.600   6.612 -0.2181 -0.0430  0.2073
  932YOPE   C2B12326  16.004   4.631   7.071 -0.2441  0.1139 -0.1860
  932YOPE   D3B12327  16.144   4.796   7.445 -0.0112 -0.0835  0.0391
  932YOPE   C4B12328  16.102   4.761   7.938 -0.0080  0.2203 -0.1727
  933YOPE   NH312329   6.389   8.263   5.871 -0.0088  0.1068 -0.0883
  933YOPE   PO412330   6.150   7.943   5.776  0.0445 -0.1398  0.3596
  933YOPE   GL112331   5.956   8.049   6.194 -0.0140  0.3281  0.0509
  933YOPE   GL212332   6.097   8.358   6.395  0.1960 -0.1180  0.2782
  933YOPE   C1A12333   5.646   7.944   6.339  0.0957 -0.2021 -0.1226
  933YOPE   D2A12334   5.450   8.052   6.778 -0.0062 -0.2726 -0.4515
  933YOPE   C3A12335   5.716   8.179   7.163 -0.1205  0.0969 -0.2479
  933YOPE   C4A12336   5.977   8.158   7.463 -0.0874 -0.0695 -0.0137
  933YOPE   C1B12337   5.975   8.197   6.748  0.0994  0.0096  0.3257
  933YOPE   C2B12338   6.094   7.862   7.062  0.1506 -0.0839 -0.2183
  933YOPE   D3B12339   6.433   8.014   7.360  0.0403  0.1298 -0.2266
  933YOPE   C4B12340   6.521   8.388   7.560  0.0595 -0.2366  0.0644
  934YOPE   NH312341  15.527  10.914   5.996 -0.0564 -0.0107  0.1164
  934YOPE   PO412342  15.347  10.550   6.219  0.1503  0.0075 -0.3671
  934YOPE   GL112343  15.374  10.730   6.634  0.0860  0.2498  0.0922
  934YOPE   GL212344  15.726  10.774   6.493 -0.1176  0.0382  0.0896
  934YOPE   C1A12345  15.475  10.878   6.970 -0.1651  0.4986  0.0427
  934YOPE   D2A12346  15.478  11.046   7.450  0.1944 -0.2551  0.2079
  934YOPE   C3A12347  15.180  10.839   7.588 -0.2510 -0.0180  0.0097
  934YOPE   C4A12348  14.835  11.056   7.717  0.1061 -0.0147 -0.2010
  934YOPE   C1B12349  15.855  11.115   6.733 -0.0468  0.1275 -0.1736
  934YOPE   C2B12350  15.864  11.271   7.098 -0.1785 -0.0266  0.1350
  934YOPE   D3B12351  15.861  11.394   7.503 -0.2225  0.7226  0.3378
  934YOPE   C4B12352  15.901  11.494   7.897  0.2110  0.3818  0.1718
  935YOPE   NH312353   0.601  16.167   5.933 -0.3397 -0.0211  0.2462
  935YOPE   PO412354   0.981  15.961   5.758  0.2109 -0.3430 -0.1197
  935YOPE   GL112355   1.116  16.191   6.113  0.0221  0.0438  0.1295
  935YOPE   GL212356   0.912  16.442   6.194 -0.2638 -0.1591 -0.0929
  935YOPE   C1A12357   1.188  16.224   6.563 -0.0805  0.2220  0.0671
  935YOPE   D2A12358   1.093  15.911   6.900 -0.1297 -0.1806 -0.2791
  935YOPE   C3A12359   0.896  16.034   7.310  0.0631  0.0362 -0.0719
  935YOPE   C4A12360   0.773  15.841   7.693  0.0759 -0.0416  0.1946
  935YOPE   C1B12361   0.697  16.481   6.576  0.1023  0.2042 -0.2159
  935YOPE   C2B12362   0.803  16.396   7.025 -0.3110 -0.2386 -0.3867
  935YOPE   D3B12363   0.694  16.450   7.394 -0.2821  0.0984 -0.0205
  935YOPE   C4B12364   0.862  16.355   7.708  0.0692 -0.1506 -0.0662
  936YOPE   NH312365   0.033  16.104   5.759 -0.2544 -0.2133 -0.0797
  936YOPE   PO412366   0.316  15.736   5.869  0.1800  0.0176 -0.0284
  936YOPE   GL112367   0.163  15.974   6.246  0.0662  0.1530  0.2918
  936YOPE   GL212368   0.347  16.254   6.350  0.1255 -0.1638 -0.0507
  936YOPE   C1A12369  -0.030  16.014   6.565 -0.0979  0.2088 -0.0283
  936YOPE   D2A12370  -0.197  15.690   6.889  0.2306 -0.1780  0.2575
  936YOPE   C3A12371   0.109  15.483   7.275  0.1106 -0.0521 -0.2285
  936YOPE   C4A12372   0.382  15.493   7.694 -0.1445 -0.0929 -0.3297
  936YOPE   C1B12373   0.261  16.758   6.527 -0.0634 -0.0969 -0.0830
  936YOPE   C2B12374   0.173  17.111   6.836  0.2371  0.1023 -0.2523
  936YOPE   D3B12375  -0.160  17.053   7.232 -0.0105 -0.1789 -0.2313
  936YOPE   C4B12376  -0.414  16.744   7.425  0.0958 -0.1733  0.2441
  937YOPE   NH312377  15.235   0.177   5.689  0.2365 -0.1898 -0.0674
  937YOPE   PO412378  14.810   0.238   5.536 -0.1349  0.0358  0.3453
  937YOPE   GL112379  14.618   0.248   5.960  0.1969  0.2537 -0.1877
  937YOPE   GL212380  14.623   0.551   5.993 -0.1796  0.4009  0.0155
  937YOPE   C1A12381  14.677   0.079   6.422  0.1780  0.2362  0.1502
  937YOPE   D2A12382  14.604  -0.083   6.804  0.1641 -0.2267 -0.1030
  937YOPE   C3A12383  14.855  -0.244   7.032  0.1556  0.0805 -0.1558
  937YOPE   C4A12384  14.984  -0.465   7.408 -0.0824 -0.0773  0.0883
  937YOPE   C1B12385  14.480   0.553   6.468  0.1544  0.0089 -0.0026
  937YOPE   C2B12386  14.481   0.378   6.889 -0.0321  0.1292 -0.0015
  937YOPE   D3B12387  14.272   0.518   7.225  0.0770  0.0050 -0.0696
  937YOPE   C4B12388  14.248   0.865   7.621 -0.0516 -0.3372 -0.0358
  938YOPE   NH312389   3.286  10.428   6.171 -0.0760 -0.0751  0.0831
  938YOPE   PO412390   3.300   9.967   6.096  0.0746  0.2148  0.1068
  938YOPE   GL112391   3.372   9.731   6.438 -0.1244 -0.1153  0.0984
  938YOPE   GL212392   3.022   9.576   6.442 -0.0895 -0.2246 -0.2362
  938YOPE   C1A12393   3.492   9.512   6.730  0.0064 -0.0798  0.2347
  938YOPE   D2A12394   3.503   9.552   7.138  0.1453 -0.3189 -0.2565
  938YOPE   C3A12395   3.695   9.913   7.425  0.1898 -0.2290  0.3301
  938YOPE   C4A12396   3.536  10.201   7.675 -0.0413  0.0910  0.0052
  938YOPE   C1B12397   2.955   9.600   6.778 -0.1472 -0.2424  0.0188
  938YOPE   C2B12398   2.906   9.524   7.161  0.0387  0.0790 -0.2256
  938YOPE   D3B12399   2.768   9.484   7.498 -0.1359  0.0936  0.0870
  938YOPE   C4B12400   2.591   9.414   7.926  0.0072 -0.2141 -0.0260
  939YOPE   NH312401  10.047   8.667   5.076 -0.2043 -0.0611  0.0291
  939YOPE   PO412402   9.658   8.767   5.212  0.0107  0.0149  0.0193
  939YOPE   GL112403   9.455   9.005   5.471  0.2108 -0.1185 -0.2517
  939YOPE   GL212404   9.112   9.143   5.462 -0.1054  0.0964  0.0662
  939YOPE   C1A12405   9.348   9.034   5.887  0.0137 -0.0446  0.0389
  939YOPE   D2A12406   9.387   9.011   6.313 -0.0824 -0.0843 -0.0637
  939YOPE   C3A12407   9.515   9.348   6.476  0.0906 -0.1944  0.0186
  939YOPE   C4A12408   9.531   9.688   6.265  0.0541 -0.4505 -0.2825
  939YOPE   C1B12409   8.957   9.588   5.520  0.2179 -0.1653 -0.2902
  939YOPE   C2B12410   8.939   9.899   5.787 -0.0354 -0.0658  0.2090
  939YOPE   D3B12411   9.125   9.947   6.204 -0.0046  0.2148  0.1799
  939YOPE   C4B12412   9.087   9.596   6.618 -0.0429  0.0718 -0.1536
  940YOPE   NH312413   1.477   4.814   5.620  0.0167  0.0702  0.0058
  940YOPE   PO412414   1.371   4.338   5.551 -0.2083  0.2140  0.0616
  940YOPE   GL112415   1.613   4.369   5.913  0.0441 -0.1263 -0.1289
  940YOPE   GL212416   1.615   4.696   6.069  0.3330  0.3195 -0.3213
  940YOPE   C1A12417   1.725   4.182   6.172 -0.2443 -0.0475 -0.0135
  940YOPE   D2A12418   2.085   3.978   6.347 -0.2114  0.1502  0.4117
  940YOPE   C3A12419   2.555   4.061   6.428 -0.0521  0.2992 -0.2293
  940YOPE   C4A12420   2.923   4.271   6.543 -0.0049 -0.3087  0.1353
  940YOPE   C1B12421   1.389   4.446   6.417  0.0652 -0.2236 -0.1944
  940YOPE   C2B12422   1.434   4.259   6.954  0.0625 -0.0021  0.2125
  940YOPE   D3B12423   1.565   4.320   7.285 -0.2179  0.2318  0.0505
  940YOPE   C4B12424   1.371   4.525   7.631 -0.0093 -0.0445  0.2095
  941YOPE   NH312425  10.343   1.555   5.955  0.0460  0.1241  0.0758
  941YOPE   PO412426  10.250   1.134   5.972 -0.1470 -0.0663 -0.1075
  941YOPE   GL112427  10.174   0.996   6.354  0.0980  0.0468 -0.0024
  941YOPE   GL212428  10.039   0.686   6.366 -0.1029  0.0463  0.1403
  941YOPE   C1A12429  10.260   1.036   6.705 -0.1770 -0.0937 -0.0486
  941YOPE   D2A12430  10.351   1.320   7.028 -0.0499  0.1301  0.3413
  941YOPE   C3A12431  10.742   1.341   7.209 -0.0785  0.4218 -0.1839
  941YOPE   C4A12432  10.769   1.656   7.567 -0.1100 -0.2281  0.0996
  941YOPE   C1B12433  10.096   0.570   6.787 -0.0168 -0.0962  0.1133
  941YOPE   C2B12434  10.079   0.889   7.127  0.0180 -0.2005 -0.1551
  941YOPE   D3B12435  10.054   1.136   7.469 -0.1552  0.2870 -0.0403
  941YOPE   C4B12436  10.153   0.970   7.922  0.1576  0.0706 -0.2043
  942POPC   NC312437  10.889   9.077   5.290 -0.0982 -0.0457  0.1553
  942POPC   PO412438  10.929   8.765   5.057 -0.0822  0.0231  0.0640
  942POPC   GL112439  10.901   8.530   5.375 -0.0946  0.2494  0.4565
  942POPC   GL212440  10.882   8.448   5.668 -0.0356 -0.1434 -0.1312
  942POPC   C1A12441  11.391   8.277   5.597  0.2659 -0.2310  0.0349
  942POPC   D2A12442  11.429   8.071   5.919 -0.0584 -0.1861 -0.0600
  942POPC   C3A12443  11.610   8.163   6.311 -0.0220  0.0984  0.2267
  942POPC   C4A12444  11.674   8.101   6.705  0.2232 -0.1710  0.0735
  942POPC   C1B12445  11.208   8.592   5.895 -0.0471  0.2733  0.1802
  942POPC   C2B12446  11.323   8.569   6.332  0.0084  0.1608 -0.1135
  942POPC   C3B12447  11.415   8.506   6.640 -0.2728  0.2606  0.0673
  942POPC   C4B12448  11.240   8.273   7.013  0.3457  0.1457  0.3140
  943POPC   NC312449  17.018  14.909   5.884  0.1122  0.2449 -0.1045
  943POPC   PO412450  16.873  15.226   5.613 -0.2171  0.1662 -0.0379
  943POPC   GL112451  16.584  15.087   5.982  0.0229 -0.1654  0.2430
  943POPC   GL212452  16.700  15.019   6.343  0.3506 -0.1604 -0.1823
  943POPC   C1A12453  16.277  15.288   6.206 -0.1046 -0.2032  0.0461
  943POPC   D2A12454  16.445  15.540   6.576  0.0801 -0.1690  0.0402
  943POPC   C3A12455  16.477  15.491   7.006 -0.1105 -0.1380  0.5209
  943POPC   C4A12456  16.843  15.642   7.179  0.2465 -0.0236  0.1293
  943POPC   C1B12457  16.636  15.119   6.727 -0.0176  0.2390 -0.1052
  943POPC   C2B12458  16.562  15.027   7.137 -0.1334 -0.1276  0.1065
  943POPC   C3B12459  16.794  14.733   7.357 -0.3038 -0.0882  0.1798
  943POPC   C4B12460  16.759  14.563   7.721 -0.0984 -0.1287 -0.1325
  944POPC   NC312461   9.851   2.357   5.784 -0.1915 -0.2466 -0.1170
  944POPC   PO412462   9.480   2.544   5.823  0.1717 -0.2118 -0.0562
  944POPC   GL112463   9.610   2.576   6.169 -0.2453 -0.0436 -0.3436
  944POPC   GL212464   9.920   2.610   6.251  0.0320 -0.1861 -0.0195
  944POPC   C1A12465   9.497   2.805   6.508 -0.3688  0.1634 -0.0527
  944POPC   D2A12466   9.451   2.910   6.859  0.3589  0.1253  0.1259
  944POPC   C3A12467   9.174   2.711   7.177  0.2069  0.2175 -0.1005
  944POPC   C4A12468   9.184   2.550   7.575 -0.1539  0.2445 -0.2415
  944POPC   C1B12469  10.055   2.819   6.545  0.1372 -0.2619 -0.1538
  944POPC   C2B12470  10.000   3.001   6.984 -0.0283  0.0682 -0.1887
  944POPC   C3B12471  10.094   2.989   7.311  0.0560  0.1971 -0.1801
  944POPC   C4B12472  10.101   3.050   7.735 -0.1142  0.1381 -0.2049
  945POPC   NC312473   1.254  14.908   5.731 -0.1577  0.0992  0.2699
  945POPC   PO412474   0.828  14.877   5.729  0.2568 -0.2494  0.1848
  945POPC   GL112475   0.719  14.887   6.112  0.1749  0.2019 -0.0850
  945POPC   GL212476   0.431  14.967   6.267 -0.1905  0.2157  0.0519
  945POPC   C1A12477   0.657  14.538   6.407  0.0802  0.2428  0.2366
  945POPC   D2A12478   0.334  14.447   6.717 -0.0355  0.0794 -0.1946
  945POPC   C3A12479   0.436  14.130   7.041  0.2756 -0.0767 -0.1151
  945POPC   C4A12480   0.460  13.735   7.264  0.0218 -0.2493 -0.1702
  945POPC   C1B12481   0.422  14.943   6.688  0.1716 -0.1964  0.2166
  945POPC   C2B12482   0.522  15.015   7.051  0.1116  0.2477  0.2606
  945POPC   C3B12483   0.300  15.040   7.495 -0.1426  0.2485  0.1928
  945POPC   C4B12484  -0.040  15.093   7.741 -0.1584  0.0594 -0.2737
  946POPC   NC312485   5.680   1.903   6.179  0.1784  0.0820 -0.0710
  946POPC   PO412486   5.988   2.318   6.257 -0.1042 -0.0347 -0.3378
  946POPC   GL112487   5.879   2.366   6.629 -0.0419 -0.3479 -0.1287
  946POPC   GL212488   5.746   2.212   6.827 -0.3215 -0.2435 -0.1144
  946POPC   C1A12489   6.070   2.678   6.838 -0.3295  0.0723 -0.0370
  946POPC   D2A12490   5.980   3.040   7.097 -0.0547 -0.2614 -0.1873
  946POPC   C3A12491   6.039   3.207   7.535  0.0285  0.1007 -0.1215
  946POPC   C4A12492   5.728   3.097   7.877  0.2178 -0.2548 -0.1296
  946POPC   C1B12493   5.630   2.221   7.295 -0.4203  0.1796  0.3864
  946POPC   C2B12494   5.878   2.374   7.545  0.0756  0.0024  0.4197
  946POPC   C3B12495   6.114   2.611   7.825  0.1346 -0.3207  0.0233
  946POPC   C4B12496   6.484   2.627   8.067 -0.0467 -0.0670  0.3948
  947POPC   NC312497   2.784  14.412   5.991 -0.3180  0.0276 -0.1202
  947POPC   PO412498   2.757  14.877   5.929  0.2691  0.0230  0.3478
  947POPC   GL112499   2.883  14.715   6.385  0.0754  0.2953  0.1697
  947POPC   GL212500   3.057  14.962   6.551  0.5982  0.4877  0.2250
  947POPC   C1A12501   3.017  14.402   6.679 -0.1435  0.3897 -0.1089
  947POPC   D2A12502   3.054  14.227   7.012 -0.2036 -0.2680  0.1159
  947POPC   C3A12503   2.767  14.287   7.306  0.0264  0.0623  0.0479
  947POPC   C4A12504   2.742  14.350   7.712 -0.0327 -0.1551  0.0088
  947POPC   C1B12505   3.151  14.726   7.058  0.0459  0.0095 -0.1176
  947POPC   C2B12506   3.104  14.570   7.430  0.0738 -0.1572  0.2006
  947POPC   C3B12507   3.277  14.510   7.785 -0.0696 -0.0431  0.2475
  947POPC   C4B12508   3.203  14.308   8.125 -0.1751 -0.1155  0.0486
  948POPC   NC312509  18.395   7.866   5.446  0.1502  0.1820  0.1761
  948POPC   PO412510  18.623   7.953   5.787  0.4539  0.0363 -0.1563
  948POPC   GL112511  18.778   7.853   6.170 -0.1057 -0.2776 -0.0025
  948POPC   GL212512  18.760   8.193   6.280 -0.0304 -0.0596  0.3718
  948POPC   C1A12513  18.739   7.759   6.607 -0.3142 -0.3639  0.3524
  948POPC   D2A12514  18.549   7.811   7.036 -0.2139  0.0902  0.1790
  948POPC   C3A12515  18.269   7.514   7.262  0.3731 -0.0437  0.1106
  948POPC   C4A12516  17.801   7.497   7.357  0.0626 -0.2198  0.0744
  948POPC   C1B12517  18.765   8.315   6.758  0.0358  0.1294 -0.0163
  948POPC   C2B12518  19.168   8.433   7.040 -0.2882  0.0272 -0.3471
  948POPC   C3B12519  19.466   8.226   7.107 -0.2190 -0.1611 -0.2035
  948POPC   C4B12520  19.799   8.045   6.938  0.0520  0.1775 -0.2079
  949POPC   NC312521   7.000   4.512   6.257  0.0302 -0.0682  0.2129
  949POPC   PO412522   6.491   4.512   6.170 -0.0865  0.0001 -0.1225
  949POPC   GL112523   6.238   4.468   6.581  0.0209 -0.0392  0.2290
  949POPC   GL212524   6.243   4.108   6.607  0.0231  0.0454  0.4326
  949POPC   C1A12525   5.900   4.720   6.663 -0.0427  0.3887 -0.0265
  949POPC   D2A12526   5.797   4.856   6.962 -0.2136 -0.0283 -0.0948
  949POPC   C3A12527   6.009   5.321   7.058  0.0961 -0.0480 -0.2283
  949POPC   C4A12528   6.179   5.614   7.339 -0.3015 -0.0649 -0.0231
  949POPC   C1B12529   6.108   4.081   6.998  0.0069  0.0585 -0.0151
  949POPC   C2B12530   6.318   4.050   7.417 -0.1968  0.0769  0.0080
  949POPC   C3B12531   6.451   4.168   7.815  0.0133 -0.0445 -0.0903
  949POPC   C4B12532   6.693   4.241   8.153 -0.0111  0.0812  0.4406
  950POPC   NC312533  12.067   7.211   5.230  0.3350 -0.1892 -0.0174
  950POPC   PO412534  11.683   6.841   5.286  0.0566  0.0485 -0.1990
  950POPC   GL112535  11.496   6.941   5.704  0.0285 -0.1611  0.1792
  950POPC   GL212536  11.455   6.672   5.886 -0.3352 -0.1509  0.3885
  950POPC   C1A12537  11.520   7.145   6.086  0.1530  0.0082  0.1676
  950POPC   D2A12538  11.469   7.099   6.481 -0.1933 -0.0924  0.2512
  950POPC   C3A12539  11.000   7.180   6.489 -0.0377  0.0278 -0.4498
  950POPC   C4A12540  10.655   7.017   6.217 -0.2638  0.0144 -0.1393
  950POPC   C1B12541  11.185   6.782   6.220  0.2959 -0.2645 -0.2415
  950POPC   C2B12542  10.959   6.590   6.537  0.6004 -0.0573 -0.1931
  950POPC   C3B12543  10.732   6.867   6.852  0.5685 -0.1466  0.2134
  950POPC   C4B12544  10.593   7.006   7.231  0.1034  0.2442 -0.0476
  951POPC   NC312545   8.692   8.657   5.171 -0.3258  0.0260  0.0412
  951POPC   PO412546   8.175   8.749   5.268 -0.0504 -0.0985 -0.2869
  951POPC   GL112547   8.028   8.990   5.620 -0.0936  0.2536  0.1348
  951POPC   GL212548   7.891   8.785   5.881  0.1593  0.0620 -0.2128
  951POPC   C1A12549   8.137   9.336   5.698  0.1247 -0.0214 -0.2078
  951POPC   D2A12550   8.351   9.704   5.734  0.1163 -0.1475  0.1186
  951POPC   C3A12551   8.642   9.509   5.953 -0.1552  0.0534  0.3436
  951POPC   C4A12552   8.706   9.606   6.289 -0.0759 -0.1190  0.3649
  951POPC   C1B12553   8.263   9.079   6.114  0.1250  0.0861 -0.1118
  951POPC   C2B12554   8.523   9.065   6.424  0.0596 -0.1964 -0.0960
  951POPC   C3B12555   8.702   9.031   6.818  0.0778  0.2293  0.2767
  951POPC   C4B12556   9.125   9.327   7.012  0.0422 -0.2919  0.1182
  952POPC   NC312557  12.632  12.161   5.597 -0.0257 -0.3456  0.0793
  952POPC   PO412558  12.932  11.696   5.493 -0.3838  0.3739  0.0080
  952POPC   GL112559  12.846  11.826   5.822 -0.3559  0.0794  0.0545
  952POPC   GL212560  12.927  11.919   5.983  0.1571  0.0075 -0.0902
  952POPC   C1A12561  12.643  11.596   6.251 -0.0328 -0.3160  0.0156
  952POPC   D2A12562  12.923  11.370   6.606 -0.1650 -0.0208  0.0665
  952POPC   C3A12563  13.082  11.412   7.043  0.0710 -0.2214 -0.3189
  952POPC   C4A12564  13.395  11.305   7.430  0.3056  0.3172 -0.2749
  952POPC   C1B12565  13.135  11.766   6.270  0.4119  0.0702 -0.0002
  952POPC   C2B12566  13.376  11.463   6.458  0.1481  0.0107  0.0370
  952POPC   C3B12567  13.523  11.349   6.915 -0.0649  0.3127  0.2133
  952POPC   C4B12568  13.907  11.244   7.235  0.0010 -0.3619 -0.0963
  953POPC   NC312569  10.472   4.488   4.994 -0.1587  0.1516 -0.0413
  953POPC   PO412570  10.577   4.851   4.863 -0.4622 -0.1510  0.3945
  953POPC   GL112571  10.770   4.795   5.262  0.1869  0.3620 -0.1596
  953POPC   GL212572  11.085   4.748   5.358  0.1914  0.0767 -0.2619
  953POPC   C1A12573  10.619   4.729   5.554  0.0669 -0.0057  0.0046
  953POPC   D2A12574  10.386   4.448   5.918  0.2576  0.0519 -0.3252
  953POPC   C3A12575  10.393   4.097   6.269 -0.0683  0.0480  0.4992
  953POPC   C4A12576  10.287   3.806   6.497  0.0004 -0.3345  0.0863
  953POPC   C1B12577  10.964   4.411   5.797  0.4818 -0.1933  0.2196
  953POPC   C2B12578  10.782   4.492   6.191 -0.0855  0.1499 -0.0222
  953POPC   C3B12579  10.831   4.476   6.735  0.1406  0.0705 -0.2186
  953POPC   C4B12580  11.020   4.731   6.905  0.1143 -0.2396  0.0040
  954POPC   NC312581  15.075  18.173   5.395 -0.0036  0.2496 -0.2252
  954POPC   PO412582  15.206  18.443   5.482 -0.2148 -0.2815 -0.0351
  954POPC   GL112583  15.253  18.520   5.993 -0.2652 -0.1439  0.0652
  954POPC   GL212584  15.051  18.669   6.148  0.0236 -0.2569 -0.0588
  954POPC   C1A12585  15.406  18.200   6.264  0.0597  0.0045  0.1924
  954POPC   D2A12586  15.626  17.805   6.380  0.0613 -0.0513 -0.2585
  954POPC   C3A12587  15.290  17.458   6.448 -0.0561 -0.1809 -0.0319
  954POPC   C4A12588  14.904  17.379   6.636 -0.1913 -0.0461 -0.2188
  954POPC   C1B12589  15.149  18.810   6.523  0.1738 -0.1587 -0.0846
  954POPC   C2B12590  15.318  18.803   6.945 -0.0288 -0.1224  0.0237
  954POPC   C3B12591  15.211  18.718   7.356  0.1730 -0.0114 -0.0280
  954POPC   C4B12592  15.349  18.526   7.760  0.0850  0.0916  0.2933
  955POPC   NC312593  16.962   4.452   5.021  0.0265 -0.1065  0.2361
  955POPC   PO412594  16.679   4.328   5.379 -0.1126 -0.1986  0.2162
  955POPC   GL112595  16.721   4.252   5.828  0.1561 -0.1623  0.1450
  955POPC   GL212596  16.451   4.319   6.016 -0.0399 -0.2099  0.0503
  955POPC   C1A12597  17.013   3.973   6.008 -0.0345 -0.0083 -0.2713
  955POPC   D2A12598  17.446   3.727   6.099  0.3804  0.3749 -0.1524
  955POPC   C3A12599  17.538   3.320   5.892 -0.1390 -0.3144 -0.6784
  955POPC   C4A12600  17.731   2.905   6.076  0.3496 -0.1120 -0.0341
  955POPC   C1B12601  16.680   4.477   6.424 -0.2336 -0.2164 -0.0135
  955POPC   C2B12602  16.843   4.902   6.817 -0.5874  0.0003 -0.1411
  955POPC   C3B12603  17.099   4.825   7.131 -0.1653  0.0567  0.0662
  955POPC   C4B12604  17.352   4.689   7.460 -0.2448 -0.1966  0.1451
  956POPC   NC312605   7.899   4.887   6.082  0.1544  0.1898 -0.0658
  956POPC   PO412606   7.677   5.178   6.071  0.2396  0.0586  0.2617
  956POPC   GL112607   7.399   5.465   6.254 -0.2710  0.3339 -0.2306
  956POPC   GL212608   7.631   5.591   6.360  0.3167 -0.3074 -0.0082
  956POPC   C1A12609   7.072   5.587   6.627 -0.1604 -0.2205 -0.3277
  956POPC   D2A12610   6.866   5.232   6.795  0.1157 -0.1673 -0.0034
  956POPC   C3A12611   6.669   5.173   7.204  0.0335 -0.2079 -0.1097
  956POPC   C4A12612   6.445   5.113   7.418 -0.1608 -0.4156 -0.2285
  956POPC   C1B12613   7.618   5.620   6.752 -0.4564  0.0200 -0.3749
  956POPC   C2B12614   7.467   5.601   7.118 -0.1580 -0.0419  0.2306
  956POPC   C3B12615   7.167   5.577   7.554  0.1263 -0.1724  0.0759
  956POPC   C4B12616   6.977   5.552   8.019 -0.2533  0.2929  0.3195
  957POPC   NC312617   2.837   9.346   5.594  0.2317 -0.0400 -0.0611
  957POPC   PO412618   2.409   9.139   5.646 -0.0266 -0.4234 -0.0562
  957POPC   GL112619   2.296   8.757   5.939 -0.1368 -0.0082 -0.1356
  957POPC   GL212620   2.180   8.935   6.306 -0.3674  0.2112  0.1964
  957POPC   C1A12621   2.577   8.587   5.979 -0.5265  0.0153 -0.2071
  957POPC   D2A12622   2.948   8.713   6.239 -0.3457  0.2404 -0.0379
  957POPC   C3A12623   2.978   8.605   6.659 -0.1375 -0.3461  0.0681
  957POPC   C4A12624   3.047   8.324   7.091  0.2606  0.0929  0.0158
  957POPC   C1B12625   2.124   8.795   6.792 -0.4010 -0.2681 -0.0942
  957POPC   C2B12626   2.106   8.795   7.210  0.3843  0.0409  0.1412
  957POPC   C3B12627   1.819   8.707   7.460 -0.0851  0.3454 -0.0808
  957POPC   C4B12628   1.812   8.774   7.887 -0.0704 -0.0257 -0.2193
  958POPC   NC312629   1.401   3.825   5.626 -0.2875 -0.1008  0.0473
  958POPC   PO412630   1.066   3.651   5.730 -0.1392  0.0769  0.0796
  958POPC   GL112631   0.829   3.903   5.921  0.0269 -0.0079  0.0326
  958POPC   GL212632   1.137   4.093   5.973  0.1351 -0.2001 -0.6508
  958POPC   C1A12633   0.781   3.816   6.327  0.1404 -0.2559  0.1232
  958POPC   D2A12634   0.994   3.973   6.667  0.1985 -0.0932  0.1816
  958POPC   C3A12635   1.230   3.715   6.973  0.0621  0.1571 -0.0204
  958POPC   C4A12636   1.094   3.328   7.187  0.1638 -0.1000  0.1546
  958POPC   C1B12637   1.345   3.911   6.358  0.2615  0.1949  0.0953
  958POPC   C2B12638   1.635   3.890   6.667  0.2300  0.1298 -0.0368
  958POPC   C3B12639   1.754   3.882   7.051 -0.0252  0.0220 -0.1437
  958POPC   C4B12640   1.925   3.993   7.489  0.0552  0.1565  0.1031
  959POPC   NC312641  16.095   0.391   5.225  0.0947  0.0825  0.0948
  959POPC   PO412642  16.097   0.012   5.491  0.0748  0.0140  0.2089
  959POPC   GL112643  16.158  -0.132   5.939  0.2490 -0.3576  0.2958
  959POPC   GL212644  15.941  -0.343   5.971  0.0663  0.1475  0.1101
  959POPC   C1A12645  16.085  -0.009   6.362  0.2371  0.1151 -0.1292
  959POPC   D2A12646  16.145   0.255   6.655 -0.0525  0.0355  0.3645
  959POPC   C3A12647  16.255   0.225   7.189 -0.0428  0.1745  0.1094
  959POPC   C4A12648  16.731   0.396   7.330 -0.1613 -0.1898 -0.3803
  959POPC   C1B12649  15.878  -0.524   6.434  0.0727  0.0899  0.1293
  959POPC   C2B12650  15.769  -0.568   6.898  0.0760 -0.1794 -0.1352
  959POPC   C3B12651  15.980  -0.651   7.272  0.2818 -0.0643 -0.1068
  959POPC   C4B12652  16.248  -1.060   7.380  0.0824 -0.0259  0.0103
  960POPC   NC312653   2.328   7.872   5.386 -0.3007  0.0920 -0.0708
  960POPC   PO412654   2.170   8.262   5.664 -0.0597 -0.1692 -0.1910
  960POPC   GL112655   2.037   8.293   5.944 -0.0192 -0.2854  0.0638
  960POPC   GL212656   2.196   8.318   6.301  0.1866  0.2208  0.0807
  960POPC   C1A12657   1.823   8.051   6.396 -0.0596  0.3587 -0.0682
  960POPC   D2A12658   1.460   8.088   6.653  0.2270  0.0367 -0.1010
  960POPC   C3A12659   1.536   8.348   7.054  0.0332 -0.1190 -0.0541
  960POPC   C4A12660   1.452   8.380   7.503  0.3115 -0.1914  0.0353
  960POPC   C1B12661   2.464   8.522   6.503 -0.0954 -0.0787 -0.2535
  960POPC   C2B12662   2.529   8.407   6.951  0.2213 -0.2343 -0.0600
  960POPC   C3B12663   2.722   8.483   7.372 -0.0232 -0.0357 -0.0555
  960POPC   C4B12664   3.104   8.597   7.502  0.2019 -0.1028  0.1993
  961POPC   NC312665   9.169  18.409   5.947 -0.2219 -0.0366 -0.1126
  961POPC   PO412666   8.758  18.511   6.052  0.4148 -0.2592 -0.3387
  961POPC   GL112667   8.839  18.533   6.342 -0.2215  0.1054  0.0467
  961POPC   GL212668   8.881  18.634   6.711  0.0322  0.0471 -0.0618
  961POPC   C1A12669   8.751  18.164   6.690  0.2347  0.0201  0.1910
  961POPC   D2A12670   8.458  17.920   6.964 -0.0196 -0.0193 -0.0300
  961POPC   C3A12671   8.140  17.648   6.997 -0.0370  0.0352  0.3488
  961POPC   C4A12672   8.000  17.212   6.902  0.2273 -0.1436 -0.0759
  961POPC   C1B12673   8.809  18.458   7.079 -0.0720 -0.2529 -0.1799
  961POPC   C2B12674   8.929  18.369   7.542 -0.1257  0.1007  0.0206
  961POPC   C3B12675   8.907  18.188   7.922  0.2472  0.1794 -0.1666
  961POPC   C4B12676   8.767  17.853   8.043  0.1023  0.0335  0.1286
  962POPC   NC312677   4.680   0.949   5.985 -0.2351  0.1405 -0.1306
  962POPC   PO412678   4.483   1.277   6.309 -0.1192 -0.1714  0.1060
  962POPC   GL112679   4.741   1.244   6.656 -0.2641 -0.0130  0.2147
  962POPC   GL212680   5.007   1.435   6.748  0.0741  0.3789  0.3237
  962POPC   C1A12681   4.621   1.007   7.058 -0.0280 -0.0576 -0.0066
  962POPC   D2A12682   4.554   1.207   7.454 -0.1748 -0.1498 -0.1622
  962POPC   C3A12683   4.782   1.338   7.886 -0.0514 -0.1353 -0.0000
  962POPC   C4A12684   4.869   1.136   8.372  0.0413 -0.2072  0.2601
  962POPC   C1B12685   4.969   1.388   7.183  0.0388  0.3318  0.3353
  962POPC   C2B12686   5.162   1.392   7.589  0.2541 -0.1354  0.1381
  962POPC   C3B12687   5.610   1.429   7.817 -0.0080 -0.0082 -0.3785
  962POPC   C4B12688   5.821   1.524   8.149 -0.0851  0.1482  0.0903
  963POPC   NC312689   9.933   6.757   4.861 -0.5364 -0.0553  0.2276
  963POPC   PO412690   9.988   6.585   5.293 -0.1888  0.2864 -0.1457
  963POPC   GL112691   9.808   6.572   5.745  0.0508 -0.2065  0.2434
  963POPC   GL212692   9.777   6.224   5.725  0.0747  0.1616  0.3455
  963POPC   C1A12693   9.809   6.435   6.146 -0.3226  0.1069 -0.2453
  963POPC   D2A12694   9.865   6.557   6.575 -0.1500 -0.1068 -0.1414
  963POPC   C3A12695  10.025   6.977   6.715  0.2768 -0.1182 -0.0294
  963POPC   C4A12696  10.054   7.332   7.043 -0.3484  0.3814 -0.3755
  963POPC   C1B12697   9.722   5.957   6.130  0.0137 -0.0155 -0.1742
  963POPC   C2B12698   9.738   5.969   6.673  0.1817 -0.1509  0.1837
  963POPC   C3B12699   9.849   6.236   7.037  0.2856 -0.1933  0.0267
  963POPC   C4B12700   9.888   6.325   7.418 -0.4076  0.3662  0.1135
  964POPC   NC312701   3.960  13.542   5.515 -0.4678 -0.0526 -0.0661
  964POPC   PO412702   4.041  13.493   5.976 -0.0077  0.3016 -0.0326
  964POPC   GL112703   3.954  13.425   6.393  0.1003  0.1705 -0.0532
  964POPC   GL212704   4.089  13.251   6.631 -0.1361 -0.2524 -0.3231
  964POPC   C1A12705   3.571  13.527   6.720 -0.1853  0.2157  0.0381
  964POPC   D2A12706   3.151  13.795   6.731  0.2650  0.0860  0.1120
  964POPC   C3A12707   2.753  13.805   6.972  0.1285  0.4110 -0.0971
  964POPC   C4A12708   2.535  13.808   7.456 -0.2413 -0.1377 -0.1049
  964POPC   C1B12709   4.063  13.039   6.959 -0.3702 -0.6173  0.2216
  964POPC   C2B12710   4.046  12.778   7.327 -0.0413 -0.3283  0.1424
  964POPC   C3B12711   4.102  12.459   7.587 -0.0519 -0.2236  0.0689
  964POPC   C4B12712   4.120  12.087   7.898  0.2319 -0.2384 -0.0020
  965POPC   NC312713   2.482   6.591   5.619 -0.0640 -0.0682  0.0207
  965POPC   PO412714   2.666   6.915   5.540 -0.1014 -0.0768 -0.1326
  965POPC   GL112715   2.663   6.983   6.014  0.1008  0.0978 -0.1716
  965POPC   GL212716   2.576   7.271   6.094 -0.1274  0.4967  0.1769
  965POPC   C1A12717   2.458   6.782   6.372  0.0460  0.1067 -0.2071
  965POPC   D2A12718   2.366   6.684   6.822 -0.0489  0.0899  0.1324
  965POPC   C3A12719   2.317   6.559   7.269  0.0474 -0.0336 -0.1335
  965POPC   C4A12720   2.056   6.313   7.480 -0.1509  0.2373  0.0752
  965POPC   C1B12721   2.467   7.228   6.580 -0.1647  0.2409  0.3226
  965POPC   C2B12722   2.550   7.081   7.061  0.0244 -0.1748  0.1769
  965POPC   C3B12723   2.175   7.101   7.362  0.3184 -0.1512 -0.0615
  965POPC   C4B12724   1.831   7.235   7.539 -0.1704 -0.1369 -0.3432
  966POPC   NC312725   9.611  13.190   5.502  0.1587  0.0566  0.1651
  966POPC   PO412726   9.964  13.296   5.239 -0.1302  0.0669  0.4397
  966POPC   GL112727  10.098  13.292   5.683  0.2958 -0.1069  0.2256
  966POPC   GL212728   9.902  13.077   5.809  0.0128  0.2685 -0.0143
  966POPC   C1A12729  10.393  13.509   5.828  0.1016 -0.2578 -0.0914
  966POPC   D2A12730  10.828  13.570   5.983 -0.1555 -0.1912 -0.1851
  966POPC   C3A12731  10.747  13.766   6.429 -0.3075 -0.1562 -0.3691
  966POPC   C4A12732  10.664  13.570   6.751  0.1538 -0.2414  0.1924
  966POPC   C1B12733   9.968  13.367   6.174  0.0036  0.0907  0.1208
  966POPC   C2B12734   9.953  13.501   6.613 -0.0677 -0.3929  0.0959
  966POPC   C3B12735  10.172  13.783   7.012  0.1340 -0.0829  0.0287
  966POPC   C4B12736  10.622  13.829   7.185 -0.0357 -0.1083  0.0281
  967POPC   NC312737  18.346   7.631   6.024 -0.0164  0.0818  0.2265
  967POPC   PO412738  18.608   7.257   5.878  0.2742 -0.1396  0.0954
  967POPC   GL112739  18.646   7.368   6.286 -0.0033 -0.0787 -0.1026
  967POPC   GL212740  18.782   7.221   6.351 -0.1069  0.1337 -0.1450
  967POPC   C1A12741  18.552   7.355   6.785 -0.4708  0.0746 -0.3070
  967POPC   D2A12742  18.645   7.149   7.169 -0.4284  0.3878  0.1046
  967POPC   C3A12743  18.975   6.875   7.302  0.0534  0.0327  0.0510
  967POPC   C4A12744  19.194   6.542   7.334  0.2151  0.3720  0.1697
  967POPC   C1B12745  19.056   6.903   6.645  0.0494  0.0389  0.0725
  967POPC   C2B12746  19.375   7.011   6.913  0.3193 -0.1775 -0.2213
  967POPC   C3B12747  19.613   6.913   7.139 -0.0363  0.2283 -0.1815
  967POPC   C4B12748  19.721   6.680   7.540  0.0833 -0.2535  0.0781
  968POPC   NC312749   9.421  10.270   5.005 -0.0473 -0.0962  0.4116
  968POPC   PO412750   9.143  10.522   5.078 -0.2827  0.1269 -0.3174
  968POPC   GL112751   9.288  10.427   5.465 -0.2488  0.1499 -0.0193
  968POPC   GL212752   9.140  10.265   5.537  0.0024  0.4067  0.1633
  968POPC   C1A12753   9.232  10.730   5.774 -0.0192 -0.1662 -0.0699
  968POPC   D2A12754   9.183  10.845   6.135  0.1362  0.3216  0.0474
  968POPC   C3A12755   9.440  10.517   6.406 -0.0318 -0.0004 -0.0649
  968POPC   C4A12756   9.729  10.184   6.392 -0.0997 -0.0114 -0.0084
  968POPC   C1B12757   8.956  10.428   5.992 -0.2415  0.1547 -0.0286
  968POPC   C2B12758   8.832  10.525   6.420  0.0752 -0.0584  0.0192
  968POPC   C3B12759   9.048  10.630   6.722  0.0635  0.0240  0.2576
  968POPC   C4B12760   9.378  10.689   6.938  0.2676  0.1413  0.0952
  969POPC   NC312761   5.283  10.691   5.663 -0.1857 -0.2109 -0.0124
  969POPC   PO412762   4.897  10.760   5.768 -0.3591  0.1736  0.0970
  969POPC   GL112763   4.938  10.959   6.090  0.1409  0.0426 -0.3800
  969POPC   GL212764   5.274  10.849   6.143  0.0029 -0.0806  0.0481
  969POPC   C1A12765   5.061  11.049   6.562  0.0290 -0.0144 -0.2978
  969POPC   D2A12766   5.075  11.027   6.926 -0.1520 -0.3591  0.1935
  969POPC   C3A12767   5.082  11.334   7.229  0.0108  0.2982 -0.3647
  969POPC   C4A12768   5.122  11.540   7.590  0.0127  0.2057 -0.0505
  969POPC   C1B12769   5.436  10.663   6.527  0.4715  0.3413  0.0390
  969POPC   C2B12770   5.448  10.709   6.959 -0.3473 -0.0349 -0.0207
  969POPC   C3B12771   5.329  10.863   7.374  0.0474  0.2234 -0.0887
  969POPC   C4B12772   5.542  11.166   7.612 -0.3879 -0.1301 -0.0663
  970POPC   NC312773   6.393  16.284   5.725 -0.0002  0.0648  0.1003
  970POPC   PO412774   6.162  16.130   6.190  0.2090 -0.3528  0.2977
  970POPC   GL112775   6.111  16.295   6.501 -0.1217 -0.0522  0.1431
  970POPC   GL212776   6.271  16.565   6.543  0.0119 -0.1791 -0.1356
  970POPC   C1A12777   6.094  16.237   6.889 -0.0772  0.0772  0.2069
  970POPC   D2A12778   6.127  16.116   7.311 -0.1863  0.1571 -0.0261
  970POPC   C3A12779   6.045  16.334   7.680  0.0549  0.0599 -0.1065
  970POPC   C4A12780   5.812  16.579   7.925 -0.2874  0.0102  0.0552
  970POPC   C1B12781   6.101  16.763   6.889  0.2500 -0.0111 -0.2277
  970POPC   C2B12782   5.932  16.701   7.291 -0.0567  0.0631 -0.0536
  970POPC   C3B12783   5.546  16.808   7.610 -0.1286  0.1629 -0.1424
  970POPC   C4B12784   5.303  16.741   7.972  0.0517 -0.0286  0.3753
  971POPC   NC312785   8.145   3.326   6.216  0.0713 -0.0376 -0.2840
  971POPC   PO412786   7.777   3.564   5.955  0.0616  0.1287  0.2019
  971POPC   GL112787   7.704   3.584   6.479  0.4224  0.0911  0.1093
  971POPC   GL212788   7.405   3.699   6.630 -0.2893  0.0636 -0.2173
  971POPC   C1A12789   7.919   3.442   6.773 -0.1308 -0.0922 -0.4381
  971POPC   D2A12790   8.224   3.267   6.905 -0.1761 -0.1902  0.3659
  971POPC   C3A12791   8.435   3.368   7.240 -0.0606 -0.2151 -0.1769
  971POPC   C4A12792   8.451   3.343   7.683 -0.0914 -0.1593  0.3946
  971POPC   C1B12793   7.465   3.817   6.973 -0.1599  0.2411 -0.2086
  971POPC   C2B12794   7.540   3.981   7.485 -0.0717  0.0113 -0.0742
  971POPC   C3B12795   7.680   3.765   7.888  0.1805 -0.0559  0.1795
  971POPC   C4B12796   7.531   3.831   8.413  0.0488 -0.0574  0.2669
  972POPC   NC312797  12.366  14.433   4.267  0.0057  0.1444 -0.3826
  972POPC   PO412798  12.096  14.597   4.624  0.1785  0.0479 -0.1139
  972POPC   GL112799  12.355  14.819   4.952  0.1188 -0.0850  0.0362
  972POPC   GL212800  12.057  15.068   5.084 -0.0090 -0.2513  0.1352
  972POPC   C1A12801  12.481  14.757   5.307  0.2477  0.2798 -0.0157
  972POPC   D2A12802  12.599  14.432   5.694 -0.3829  0.0819 -0.3827
  972POPC   C3A12803  12.441  14.438   6.170  0.3567  0.1440 -0.2016
  972POPC   C4A12804  12.038  14.653   6.384  0.0121 -0.1131  0.0218
  972POPC   C1B12805  11.933  14.980   5.429 -0.0124 -0.1276 -0.1395
  972POPC   C2B12806  11.767  15.108   5.824 -0.0005  0.0395  0.2542
  972POPC   C3B12807  11.642  14.898   6.176  0.0992  0.0115  0.0710
  972POPC   C4B12808  11.680  14.991   6.599 -0.0781 -0.2975  0.1959
  973POPC   NC312809   6.020   1.508   5.601  0.2387  0.2021  0.1618
  973POPC   PO412810   6.152   1.710   6.029  0.1528  0.1882  0.2295
  973POPC   GL112811   6.030   1.680   6.438 -0.0571 -0.0984 -0.2450
  973POPC   GL212812   6.156   1.382   6.561 -0.0392  0.1429  0.1608
  973POPC   C1A12813   6.233   1.962   6.720 -0.1465 -0.2751  0.1728
  973POPC   D2A12814   6.232   2.247   7.080  0.1466 -0.0264  0.0036
  973POPC   C3A12815   6.261   2.657   7.295  0.2047  0.0303  0.1054
  973POPC   C4A12816   6.458   2.919   7.555 -0.2000  0.1333  0.0331
  973POPC   C1B12817   6.204   1.241   7.004  0.0436  0.1740  0.1108
  973POPC   C2B12818   6.219   1.345   7.426  0.0481 -0.2135  0.1640
  973POPC   C3B12819   6.355   1.502   7.999  0.2402 -0.2341  0.0107
  973POPC   C4B12820   6.293   1.309   8.362 -0.4363 -0.1034 -0.2677
  974POPC   NC312821   9.560   3.531   5.753 -0.1846 -0.1099  0.1622
  974POPC   PO412822  10.001   3.367   5.640  0.0593 -0.0672  0.1197
  974POPC   GL112823  10.485   3.417   5.815  0.2076  0.0955  0.0694
  974POPC   GL212824  10.594   3.757   5.875 -0.0984  0.1968  0.1697
  974POPC   C1A12825  10.951   3.388   5.918  0.3158 -0.2054  0.0190
  974POPC   D2A12826  11.140   3.774   5.834  0.0914 -0.2004 -0.1776
  974POPC   C3A12827  11.539   3.948   5.955 -0.2781  0.1412  0.3192
  974POPC   C4A12828  11.997   3.919   5.809 -0.0248 -0.1975  0.0239
  974POPC   C1B12829  10.866   3.988   6.211 -0.0535 -0.2154 -0.0037
  974POPC   C2B12830  11.297   4.138   6.396 -0.1267  0.2698  0.1481
  974POPC   C3B12831  11.780   4.280   6.321 -0.1610 -0.1502 -0.1706
  974POPC   C4B12832  11.933   4.636   6.455 -0.0308 -0.0276  0.0447
  975POPC   NC312833   9.635  14.221   5.068 -0.0088 -0.0630 -0.0799
  975POPC   PO412834   9.910  14.487   5.239 -0.3527  0.0219  0.1780
  975POPC   GL112835   9.912  14.647   5.741  0.2417 -0.1042  0.0541
  975POPC   GL212836   9.772  14.357   5.851  0.1105 -0.0936 -0.0168
  975POPC   C1A12837  10.077  14.715   6.099  0.1342 -0.3471  0.0830
  975POPC   D2A12838  10.444  14.659   6.427  0.3214 -0.1008 -0.0923
  975POPC   C3A12839  10.819  14.336   6.408  0.3605 -0.0980  0.1426
  975POPC   C4A12840  11.070  14.188   6.662  0.0740 -0.1860  0.0787
  975POPC   C1B12841  10.113  14.243   6.167 -0.2037  0.0405 -0.0743
  975POPC   C2B12842  10.201  13.800   6.342  0.0085 -0.0639  0.2400
  975POPC   C3B12843  10.471  13.336   6.332  0.2063 -0.4165 -0.1505
  975POPC   C4B12844  10.480  13.028   5.958  0.1092 -0.2541  0.0799
  976POPC   NC312845   4.038  15.032   6.126 -0.4176  0.1895  0.1632
  976POPC   PO412846   4.149  14.638   6.258  0.1677  0.3661  0.1995
  976POPC   GL112847   3.828  14.591   6.558  0.0338 -0.0530  0.2425
  976POPC   GL212848   3.954  14.751   6.794 -0.1480 -0.0087  0.0722
  976POPC   C1A12849   3.555  14.397   6.913 -0.2500 -0.0536  0.0114
  976POPC   D2A12850   3.512  14.369   7.377 -0.4039  0.0246 -0.2283
  976POPC   C3A12851   3.242  14.047   7.624  0.2742 -0.0825 -0.1542
  976POPC   C4A12852   2.923  13.943   7.891 -0.2090  0.1840  0.0674
  976POPC   C1B12853   3.865  14.669   7.210 -0.2498  0.2879 -0.1588
  976POPC   C2B12854   4.023  14.650   7.716  0.1488  0.4870 -0.2270
  976POPC   C3B12855   4.346  14.866   7.988 -0.3141 -0.0198  0.0791
  976POPC   C4B12856   4.659  14.730   8.275 -0.0715 -0.0942  0.3183
  977POPC   NC312857  14.579  17.647   4.867 -0.1281 -0.0804 -0.0991
  977POPC   PO412858  14.785  17.286   4.921  0.1204  0.0090  0.0999
  977POPC   GL112859  14.615  17.143   5.236 -0.0557  0.1563 -0.0125
  977POPC   GL212860  14.291  16.986   5.304 -0.1457 -0.0818 -0.1665
  977POPC   C1A12861  14.469  17.249   5.667  0.1980  0.1488  0.0310
  977POPC   D2A12862  14.226  17.403   5.873  0.0653  0.2478  0.1082
  977POPC   C3A12863  14.035  17.301   6.273  0.1924 -0.2551  0.1213
  977POPC   C4A12864  13.724  17.090   6.446 -0.0324 -0.1405 -0.1218
  977POPC   C1B12865  13.972  17.013   5.623 -0.0596 -0.0646 -0.1061
  977POPC   C2B12866  13.768  17.142   5.805  0.0398 -0.0265 -0.2938
  977POPC   C3B12867  13.422  17.150   5.955 -0.1965  0.0719  0.0433
  977POPC   C4B12868  13.117  16.735   6.054 -0.1544  0.0901  0.0399
  978POPC   NC312869   1.414   5.239   5.301  0.0720  0.0526  0.3855
  978POPC   PO412870   1.055   5.109   5.557 -0.0653 -0.0745  0.2696
  978POPC   GL112871   1.072   5.056   5.959  0.1717  0.2922  0.2691
  978POPC   GL212872   0.916   5.189   6.039  0.1254  0.0316  0.1603
  978POPC   C1A12873   1.182   4.939   6.350 -0.2293 -0.0135 -0.1982
  978POPC   D2A12874   0.994   4.994   6.796  0.0545 -0.0251 -0.2238
  978POPC   C3A12875   1.007   5.484   6.887  0.0899 -0.0673  0.0959
  978POPC   C4A12876   0.865   5.845   6.715 -0.0367 -0.2116 -0.2956
  978POPC   C1B12877   0.843   5.362   6.381  0.0754  0.4404 -0.0642
  978POPC   C2B12878   0.607   5.416   6.691  0.0571  0.2852 -0.2456
  978POPC   C3B12879   0.483   5.036   6.903 -0.0426  0.1608  0.0667
  978POPC   C4B12880   0.638   4.773   7.103  0.0809 -0.0264  0.1751
  979POPC   NC312881  17.509  17.204   5.792  0.2638  0.0412  0.0658
  979POPC   PO412882  17.047  17.282   5.804  0.2132  0.3486 -0.0885
  979POPC   GL112883  17.058  17.544   6.092 -0.2064 -0.4010  0.2617
  979POPC   GL212884  17.269  17.253   6.246  0.0734 -0.2363 -0.0960
  979POPC   C1A12885  17.219  17.728   6.501 -0.1677 -0.1742  0.0283
  979POPC   D2A12886  17.287  18.113   6.722  0.3956  0.2279 -0.0004
  979POPC   C3A12887  17.406  18.212   7.168 -0.0813  0.2807  0.1178
  979POPC   C4A12888  17.690  18.207   7.559  0.1911  0.0274  0.0210
  979POPC   C1B12889  17.247  17.225   6.767  0.3851 -0.0084 -0.4279
  979POPC   C2B12890  17.219  17.343   7.192  0.1938 -0.0825  0.5399
  979POPC   C3B12891  17.104  17.113   7.510 -0.0974 -0.0028  0.1152
  979POPC   C4B12892  17.011  17.118   8.061  0.2440 -0.4036 -0.1087
  980POPC   NC312893   8.551  11.600   5.164  0.1013  0.2371  0.0524
  980POPC   PO412894   8.238  11.806   5.398  0.1351 -0.0698 -0.0957
  980POPC   GL112895   8.013  11.496   5.795 -0.0796  0.1148  0.1825
  980POPC   GL212896   7.790  11.263   5.721  0.0773 -0.1161 -0.0426
  980POPC   C1A12897   8.096  11.648   6.283 -0.1258  0.0987  0.0494
  980POPC   D2A12898   8.151  11.734   6.835 -0.2069 -0.3206  0.1934
  980POPC   C3A12899   8.510  11.906   6.968  0.2183 -0.2063 -0.2103
  980POPC   C4A12900   8.895  11.914   7.160  0.2590 -0.2111 -0.0694
  980POPC   C1B12901   7.710  11.312   6.145  0.0825 -0.5031 -0.0771
  980POPC   C2B12902   7.553  11.304   6.493  0.1021  0.1430 -0.0382
  980POPC   C3B12903   7.200  11.504   6.731  0.2302  0.1016 -0.1990
  980POPC   C4B12904   7.170  11.431   7.242  0.0055 -0.2792 -0.1086
  981POPC   NC312905   1.042   0.360   5.914  0.0647 -0.0062  0.0822
  981POPC   PO412906   0.857  -0.043   5.868  0.1073 -0.1898  0.0466
  981POPC   GL112907   0.751  -0.157   6.242 -0.2135  0.0908  0.2161
  981POPC   GL212908   0.692  -0.418   6.289 -0.0362  0.1143  0.0753
  981POPC   C1A12909   0.583   0.049   6.593 -0.0944 -0.3808  0.0443
  981POPC   D2A12910   0.384   0.221   6.896  0.0224  0.3115  0.1473
  981POPC   C3A12911  -0.068   0.114   7.057 -0.0308  0.2421  0.1570
  981POPC   C4A12912  -0.136  -0.121   7.420 -0.1154  0.1469  0.2330
  981POPC   C1B12913   0.670  -0.461   6.733  0.2438  0.0321  0.0562
  981POPC   C2B12914   0.552  -0.610   7.145  0.2889  0.0830 -0.0689
  981POPC   C3B12915   0.686  -0.574   7.512 -0.0127 -0.1967  0.1021
  981POPC   C4B12916   1.081  -0.448   7.739  0.1443  0.0619  0.1332
  982YOPC   NC312917  13.193   4.410   5.611 -0.2507 -0.0279 -0.1820
  982YOPC   PO412918  12.754   4.267   5.411  0.0490  0.1062 -0.0085
  982YOPC   GL112919  12.718   4.556   5.711 -0.3331 -0.2015 -0.2233
  982YOPC   GL212920  12.885   4.337   6.001  0.0952 -0.0068 -0.3873
  982YOPC   C1A12921  12.798   4.706   6.311 -0.4456 -0.1750  0.1867
  982YOPC   D2A12922  12.537   4.519   6.627 -0.1993 -0.0702  0.1400
  982YOPC   C3A12923  12.365   4.742   6.844  0.3911 -0.0749 -0.1894
  982YOPC   C4A12924  11.945   4.873   6.987 -0.2062 -0.2201 -0.0902
  982YOPC   C1B12925  12.840   4.100   6.367  0.0486 -0.1059 -0.2488
  982YOPC   C2B12926  13.066   4.037   6.752  0.1403 -0.3395  0.0426
  982YOPC   D3B12927  12.789   4.198   7.061 -0.2506  0.0612  0.0718
  982YOPC   C4B12928  12.678   4.565   7.155 -0.1807  0.0585 -0.0754
  983YOPC   NC312929  11.053   5.042   4.919 -0.1191 -0.1367 -0.2157
  983YOPC   PO412930  11.414   5.039   5.148  0.2128 -0.0170 -0.0328
  983YOPC   GL112931  11.263   5.240   5.527 -0.0445 -0.2411  0.1420
  983YOPC   GL212932  11.483   5.050   5.627  0.1620 -0.2130  0.0702
  983YOPC   C1A12933  11.104   5.420   5.879 -0.0101 -0.2190 -0.2193
  983YOPC   D2A12934  11.046   5.401   6.263  0.0825 -0.0678 -0.3933
  983YOPC   C3A12935  10.634   5.344   6.363 -0.1572 -0.1652 -0.1538
  983YOPC   C4A12936  10.220   5.166   6.428 -0.2539  0.0773  0.0915
  983YOPC   C1B12937  11.386   4.723   5.736 -0.0587  0.3072 -0.0552
  983YOPC   C2B12938  11.294   4.560   6.118 -0.0851 -0.0050  0.2272
  983YOPC   D3B12939  11.461   4.610   6.528  0.0263  0.0289 -0.0692
  983YOPC   C4B12940  11.587   4.477   6.910 -0.0120 -0.1950 -0.0071
  984YOPC   NC312941   6.659  18.611   5.635 -0.0042 -0.2137 -0.0715
  984YOPC   PO412942   6.688  18.452   6.019  0.0153  0.2834  0.0853
  984YOPC   GL112943   6.599  18.151   6.226 -0.2770 -0.1639  0.1995
  984YOPC   GL212944   7.019  18.032   6.303 -0.0602  0.2427  0.0144
  984YOPC   C1A12945   6.618  17.907   6.569 -0.2195 -0.1584  0.1086
  984YOPC   D2A12946   6.618  17.829   7.021 -0.2237  0.2007  0.0636
  984YOPC   C3A12947   6.231  17.744   7.156  0.2118 -0.1114 -0.0593
  984YOPC   C4A12948   6.167  17.612   7.559  0.0501 -0.2151 -0.0615
  984YOPC   C1B12949   6.972  17.550   6.596 -0.3307 -0.2535  0.0017
  984YOPC   C2B12950   7.030  17.092   6.700  0.1884 -0.2900  0.0177
  984YOPC   D3B12951   6.708  16.815   6.900 -0.1850  0.1170  0.0751
  984YOPC   C4B12952   6.591  16.529   7.127 -0.1516 -0.5427  0.0540
  985YOPC   NC312953   3.682  13.053   6.195  0.0816 -0.1880  0.0046
  985YOPC   PO412954   3.282  12.991   6.119  0.0965  0.1309 -0.0794
  985YOPC   GL112955   3.088  13.259   6.489 -0.1559 -0.0914  0.1163
  985YOPC   GL212956   3.377  13.078   6.678 -0.0799 -0.1033  0.0472
  985YOPC   C1A12957   3.005  13.311   6.964 -0.0068  0.1727  0.1770
  985YOPC   D2A12958   3.006  13.568   7.413  0.4565 -0.1624 -0.0753
  985YOPC   C3A12959   2.661  13.457   7.791 -0.0420 -0.0633  0.0687
  985YOPC   C4A12960   2.301  13.406   8.184 -0.2232 -0.1944 -0.0639
  985YOPC   C1B12961   3.619  13.204   7.116 -0.0501 -0.2210  0.2160
  985YOPC   C2B12962   3.848  13.219   7.491  0.1196 -0.0362  0.0600
  985YOPC   D3B12963   3.714  13.154   7.984  0.2392  0.0329  0.1687
  985YOPC   C4B12964   3.632  12.814   8.291 -0.2399 -0.1958  0.0880
  986YOPC   NC312965  18.052  14.327   5.663 -0.2178 -0.3865  0.0580
  986YOPC   PO412966  18.050  14.798   5.791  0.0413  0.1880 -0.0203
  986YOPC   GL112967  18.175  14.762   6.097  0.2020  0.0299  0.0327
  986YOPC   GL212968  18.475  14.758   6.091  0.0979  0.0240 -0.0026
  986YOPC   C1A12969  18.141  14.654   6.540  0.2493 -0.1058  0.1574
  986YOPC   D2A12970  18.320  14.685   6.961  0.3798 -0.0606 -0.1960
  986YOPC   C3A12971  18.136  14.647   7.353 -0.1748  0.0831  0.0493
  986YOPC   C4A12972  17.858  14.641   7.670 -0.2005  0.1118 -0.0327
  986YOPC   C1B12973  18.903  14.579   6.226  0.0780 -0.0760  0.6056
  986YOPC   C2B12974  19.019  14.193   6.273 -0.3380 -0.0683  0.4712
  986YOPC   D3B12975  18.797  13.966   6.581  0.0646  0.2914  0.0363
  986YOPC   C4B12976  18.793  13.682   6.917  0.2264 -0.2019 -0.1115
  987YOPC   NC312977  11.568   5.543   5.039 -0.1079 -0.2564  0.0199
  987YOPC   PO412978  11.305   5.811   5.280  0.4796 -0.0883  0.0406
  987YOPC   GL112979  11.321   5.819   5.676 -0.0216  0.0968 -0.2296
  987YOPC   GL212980  11.380   6.180   5.764  0.0971  0.3444  0.1949
  987YOPC   C1A12981  11.295   5.785   6.163  0.0002  0.0768  0.1427
  987YOPC   D2A12982  11.265   5.730   6.635  0.4077  0.3569 -0.0542
  987YOPC   C3A12983  11.526   5.756   6.780  0.1736  0.0581  0.2027
  987YOPC   C4A12984  11.767   5.923   7.052  0.3739  0.0599 -0.2688
  987YOPC   C1B12985  11.769   6.145   6.086 -0.1334 -0.1073 -0.2811
  987YOPC   C2B12986  11.760   6.096   6.550 -0.2701  0.3580 -0.1491
  987YOPC   D3B12987  11.449   6.281   6.931 -0.2968  0.1906  0.1253
  987YOPC   C4B12988  11.050   6.187   7.096  0.2715  0.2356  0.0118
  988YOPC   NC312989   8.129   1.254   5.887  0.0007 -0.1897 -0.3023
  988YOPC   PO412990   7.817   1.290   5.780  0.1377  0.0628 -0.5770
  988YOPC   GL112991   7.785   1.229   6.262 -0.1858 -0.1190  0.0683
  988YOPC   GL212992   7.799   0.875   6.428 -0.2642  0.3360 -0.0971
  988YOPC   C1A12993   7.752   1.339   6.660  0.0408 -0.2714  0.2846
  988YOPC   D2A12994   7.622   1.428   7.045  0.2529  0.1172 -0.1106
  988YOPC   C3A12995   7.514   1.272   7.510 -0.0791  0.1244 -0.1976
  988YOPC   C4A12996   7.421   0.889   7.822  0.1462  0.0115  0.2295
  988YOPC   C1B12997   7.798   0.805   6.869 -0.0088  0.2259  0.5127
  988YOPC   C2B12998   7.661   0.939   7.204  0.1398 -0.1712  0.1545
  988YOPC   D3B12999   7.822   0.907   7.566 -0.0991  0.3467 -0.0384
  988YOPC   C4B13000   8.183   0.689   7.785  0.1981 -0.0699  0.0195
  989YOPC   NC313001   8.815  13.780   5.618 -0.4169  0.0945  0.3905
  989YOPC   PO413002   8.356  13.715   5.516  0.0413  0.2023 -0.2856
  989YOPC   GL113003   8.439  13.501   5.920  0.0947 -0.0263 -0.3665
  989YOPC   GL213004   8.843  13.397   6.017 -0.0807  0.2618 -0.2651
  989YOPC   C1A13005   8.504  13.428   6.425 -0.1084  0.3469  0.1938
  989YOPC   D2A13006   8.644  13.568   6.813  0.0271  0.0707 -0.0865
  989YOPC   C3A13007   8.835  13.964   6.894 -0.2047 -0.0600 -0.1085
  989YOPC   C4A13008   8.954  14.126   7.291 -0.0186 -0.0591 -0.1685
  989YOPC   C1B13009   9.046  13.278   6.485 -0.1388  0.0283 -0.1249
  989YOPC   C2B13010   9.127  13.279   6.905 -0.2162  0.0233  0.2681
  989YOPC   D3B13011   9.026  13.592   7.210  0.1727  0.0279  0.1427
  989YOPC   C4B13012   9.320  13.697   7.562 -0.1145 -0.1905  0.2859
  990YOPC   NC313013  14.009  15.143   5.053 -0.3461  0.0015  0.0052
  990YOPC   PO413014  13.719  15.466   5.157  0.1579 -0.1259  0.3725
  990YOPC   GL113015  13.326  15.528   5.341 -0.0962  0.0838 -0.2978
  990YOPC   GL213016  13.123  15.421   5.428  0.2480 -0.1281 -0.1069
  990YOPC   C1A13017  13.241  15.794   5.831 -0.3722  0.1960 -0.0137
  990YOPC   D2A13018  13.068  16.262   5.860 -0.0817  0.1613 -0.1106
  990YOPC   C3A13019  12.849  16.394   6.320 -0.0556  0.3364 -0.0559
  990YOPC   C4A13020  12.893  16.291   6.701 -0.2556 -0.1565  0.0254
  990YOPC   C1B13021  12.989  15.317   5.820  0.3909 -0.0698 -0.0958
  990YOPC   C2B13022  12.963  15.424   6.322  0.0251 -0.2518  0.1844
  990YOPC   D3B13023  12.731  15.314   6.740  0.2579  0.1878  0.4786
  990YOPC   C4B13024  12.568  15.453   7.225  0.1236  0.3245 -0.1518
  991YOPC   NC313025  14.742   7.697   5.348  0.2459  0.1896 -0.1729
  991YOPC   PO413026  14.419   7.879   5.652 -0.3118  0.3030  0.1362
  991YOPC   GL113027  14.550   7.914   6.004  0.1226 -0.2664  0.3447
  991YOPC   GL213028  14.383   8.188   6.059  0.4128  0.0369 -0.2089
  991YOPC   C1A13029  14.678   7.946   6.503 -0.1105  0.0631 -0.0638
  991YOPC   D2A13030  14.642   7.838   6.994 -0.2260  0.2436  0.0684
  991YOPC   C3A13031  14.611   8.134   7.371  0.2578  0.1799 -0.1319
  991YOPC   C4A13032  14.969   7.981   7.582  0.2811 -0.2265 -0.0530
  991YOPC   C1B13033  14.430   8.404   6.447  0.1323  0.2100  0.0940
  991YOPC   C2B13034  14.666   8.382   6.906  0.0141  0.1242  0.0317
  991YOPC   D3B13035  14.539   8.624   7.320 -0.2470 -0.0732  0.0952
  991YOPC   C4B13036  14.532   8.747   7.726 -0.2157  0.0910  0.2031
  992YOPC   NC313037   1.378  10.958   5.709  0.0089  0.1557  0.1167
  992YOPC   PO413038   1.238  11.276   5.969 -0.0213  0.0890  0.1601
  992YOPC   GL113039   1.296  10.990   6.238  0.1444 -0.1459  0.4475
  992YOPC   GL213040   1.581  11.053   6.479 -0.2991  0.3169 -0.0080
  992YOPC   C1A13041   1.133  10.812   6.513  0.0204  0.1612  0.0062
  992YOPC   D2A13042   0.969  10.920   6.895 -0.0214 -0.0786  0.0780
  992YOPC   C3A13043   0.753  11.276   7.017 -0.0256  0.1168 -0.2234
  992YOPC   C4A13044   0.560  11.437   7.442 -0.3460  0.0186 -0.0408
  992YOPC   C1B13045   1.515  10.798   6.792  0.0934  0.0013  0.0356
  992YOPC   C2B13046   1.613  10.867   7.201  0.0990 -0.0532  0.0740
  992YOPC   D3B13047   1.504  10.975   7.617 -0.1912  0.0353 -0.1269
  992YOPC   C4B13048   1.167  10.690   7.801 -0.0184 -0.1179 -0.3301
  993YOPC   NC313049   9.922   5.686   4.859 -0.2569  0.2404  0.0111
  993YOPC   PO413050  10.302   5.667   5.163  0.0041  0.2565  0.0712
  993YOPC   GL113051  10.241   5.526   5.572  0.1785 -0.0112 -0.2302
  993YOPC   GL213052  10.093   5.878   5.779 -0.1069  0.1939  0.0429
  993YOPC   C1A13053  10.663   5.201   5.716  0.0245 -0.3917 -0.3902
  993YOPC   D2A13054  11.002   4.976   5.911  0.0495  0.0339  0.1594
  993YOPC   C3A13055  11.008   4.898   6.362  0.0005 -0.0160  0.0987
  993YOPC   C4A13056  11.078   5.170   6.697  0.3273  0.1646 -0.1276
  993YOPC   C1B13057  10.208   5.566   6.170 -0.1366 -0.0080 -0.2239
  993YOPC   C2B13058  10.141   5.629   6.551 -0.0877  0.0007  0.0406
  993YOPC   D3B13059  10.510   5.616   6.778  0.0184 -0.1524 -0.2586
  993YOPC   C4B13060  10.871   5.641   6.880  0.0516  0.0246 -0.0613
  994YOPC   NC313061  15.173  17.145   5.187  0.1423  0.0755  0.1001
  994YOPC   PO413062  15.184  16.689   5.446 -0.0470  0.1239  0.0634
  994YOPC   GL113063  14.914  17.004   5.596  0.1302 -0.1546  0.5739
  994YOPC   GL213064  14.767  16.779   5.783 -0.1810  0.0670  0.1818
  994YOPC   C1A13065  14.901  17.255   5.947  0.2399 -0.2520  0.0603
  994YOPC   D2A13066  14.550  17.331   6.213 -0.0078 -0.2980  0.1847
  994YOPC   C3A13067  14.414  17.013   6.515  0.2741 -0.1972 -0.2762
  994YOPC   C4A13068  14.538  16.569   6.360 -0.0415  0.0998 -0.4223
  994YOPC   C1B13069  14.863  16.884   6.268 -0.2240 -0.1066 -0.0226
  994YOPC   C2B13070  14.874  16.840   6.717  0.0627  0.2738  0.0789
  994YOPC   D3B13071  14.537  17.021   6.999 -0.0411 -0.2098 -0.3044
  994YOPC   C4B13072  14.072  17.157   6.954 -0.0278  0.2655 -0.0550
  995YOPC   NC313073   8.096   0.118   5.547  0.0212 -0.0153 -0.3477
  995YOPC   PO413074   8.009   0.015   5.946 -0.0213  0.1403  0.2524
  995YOPC   GL113075   7.936  -0.027   6.426 -0.1082  0.1737 -0.1577
  995YOPC   GL213076   7.913   0.223   6.622  0.0633  0.1845  0.1798
  995YOPC   C1A13077   7.844  -0.448   6.650  0.0357 -0.1960  0.0714
  995YOPC   D2A13078   7.847  -0.627   7.059  0.0000 -0.0420  0.1339
  995YOPC   C3A13079   8.083  -0.755   7.322  0.0515 -0.0372 -0.0570
  995YOPC   C4A13080   8.484  -0.606   7.490  0.4080 -0.1028 -0.2069
  995YOPC   C1B13081   7.711  -0.044   7.046 -0.1616  0.0756 -0.0201
  995YOPC   C2B13082   7.528   0.050   7.454  0.2741  0.2782 -0.3552
  995YOPC   D3B13083   7.625   0.008   7.825 -0.2791 -0.1935  0.0661
  995YOPC   C4B13084   7.436   0.052   8.270 -0.2231 -0.1489 -0.0762
  996YOPC   NC313085  18.695   9.705   5.274 -0.2140  0.0569  0.2400
  996YOPC   PO413086  18.630   9.889   5.684  0.0898  0.0086  0.0799
  996YOPC   GL113087  18.594   9.719   6.061  0.0508  0.2045  0.0851
  996YOPC   GL213088  18.468   9.320   6.105  0.1221  0.1280  0.0391
  996YOPC   C1A13089  18.830   9.783   6.400  0.2443  0.0203 -0.2495
  996YOPC   D2A13090  19.092  10.023   6.629  0.1485 -0.1556 -0.2118
  996YOPC   C3A13091  19.105   9.977   7.109  0.0102 -0.0735  0.0155
  996YOPC   C4A13092  19.341   9.905   7.466  0.0353  0.0398 -0.3271
  996YOPC   C1B13093  18.084   9.260   6.406 -0.0503 -0.1084  0.1999
  996YOPC   C2B13094  17.978   9.114   6.797 -0.2453  0.2074 -0.0761
  996YOPC   D3B13095  17.915   9.299   7.172  0.4764  0.0909 -0.1743
  996YOPC   C4B13096  17.972   9.591   7.479  0.2545 -0.1517  0.0040
  997YOPC   NC313097  14.492  12.992   5.626 -0.1801  0.0516 -0.2190
  997YOPC   PO413098  14.924  12.903   5.549 -0.3683  0.3226 -0.0755
  997YOPC   GL113099  15.073  13.091   5.832  0.2318 -0.3539  0.1674
  997YOPC   GL213100  14.740  13.094   6.024 -0.3041 -0.2406  0.2210
  997YOPC   C1A13101  15.121  13.033   6.330  0.0707 -0.1430  0.4970
  997YOPC   D2A13102  15.373  12.706   6.556 -0.3771  0.0926  0.2628
  997YOPC   C3A13103  15.640  12.894   6.858  0.1679  0.1327  0.2025
  997YOPC   C4A13104  15.765  12.851   7.268  0.6568  0.0052  0.0137
  997YOPC   C1B13105  14.607  13.082   6.446 -0.3004 -0.0303  0.0870
  997YOPC   C2B13106  14.639  13.031   6.960  0.0020  0.0445 -0.3483
  997YOPC   D3B13107  14.684  12.773   7.268 -0.1247 -0.1170  0.0757
  997YOPC   C4B13108  14.577  12.454   7.535 -0.1850 -0.1244 -0.1203
  998YOPC   NC313109   1.475   6.652   5.473 -0.0748  0.2076 -0.0734
  998YOPC   PO413110   1.888   6.600   5.739  0.1306  0.1591 -0.0594
  998YOPC   GL113111   1.699   6.733   6.101  0.0951 -0.0427 -0.2733
  998YOPC   GL213112   1.575   6.376   6.205 -0.3391  0.0926 -0.4468
  998YOPC   C1A13113   1.865   7.123   6.442 -0.0414 -0.2722  0.0473
  998YOPC   D2A13114   2.057   7.108   6.850 -0.1544  0.1524 -0.2115
  998YOPC   C3A13115   1.896   6.861   7.089  0.2294 -0.0305  0.1071
  998YOPC   C4A13116   1.823   6.751   7.405  0.0778  0.0094  0.0824
  998YOPC   C1B13117   1.286   6.623   6.414 -0.2592 -0.3081  0.2402
  998YOPC   C2B13118   1.221   6.645   6.812 -0.1091 -0.0245  0.0580
  998YOPC   D3B13119   1.388   6.888   7.025 -0.0388 -0.1675 -0.1497
  998YOPC   C4B13120   1.505   7.172   6.820  0.4514 -0.2323 -0.0375
  999YOPC   NC313121   2.365   2.449   6.178  0.3995  0.3915  0.3282
  999YOPC   PO413122   1.865   2.501   6.195  0.2417  0.2671  0.3670
  999YOPC   GL113123   2.047   2.696   6.482  0.1316 -0.2440 -0.0821
  999YOPC   GL213124   2.009   3.012   6.425  0.0760 -0.1297 -0.0483
  999YOPC   C1A13125   2.318   2.838   6.753 -0.1143 -0.1549  0.2217
  999YOPC   D2A13126   2.479   3.076   7.124 -0.0954  0.1176 -0.3191
  999YOPC   C3A13127   2.627   3.287   7.417  0.4009 -0.0899  0.1499
  999YOPC   C4A13128   2.753   3.401   7.746  0.0315 -0.2265  0.1371
  999YOPC   C1B13129   1.971   3.150   6.745  0.1553  0.1525 -0.1574
  999YOPC   C2B13130   1.619   3.422   6.979 -0.3563 -0.4290 -0.0535
  999YOPC   D3B13131   1.745   3.459   7.405  0.0965 -0.2707 -0.0029
  999YOPC   C4B13132   1.883   3.654   7.832  0.2139  0.3010 -0.0947
 1000YOPC   NC313133  10.063   7.668   4.935  0.1137 -0.0368  0.0482
 1000YOPC   PO413134  10.012   7.616   5.368  0.5340 -0.1763  0.0234
 1000YOPC   GL113135  10.287   7.441   5.649 -0.0841 -0.1121 -0.1579
 1000YOPC   GL213136  10.160   7.359   5.896 -0.0049 -0.0939 -0.1560
 1000YOPC   C1A13137  10.723   7.465   6.026 -0.0383 -0.2879  0.3081
 1000YOPC   D2A13138  10.612   7.533   6.386 -0.0720  0.2743  0.0550
 1000YOPC   C3A13139  10.786   7.904   6.504  0.3955 -0.0795  0.1140
 1000YOPC   C4A13140  11.127   8.140   6.368  0.0360 -0.3661  0.1241
 1000YOPC   C1B13141  10.280   7.804   6.110 -0.1024 -0.0549 -0.1485
 1000YOPC   C2B13142  10.342   8.114   6.414  0.0250 -0.2378 -0.1895
 1000YOPC   D3B13143  10.668   8.340   6.563  0.1262 -0.0291  0.2226
 1000YOPC   C4B13144  10.557   8.663   6.866 -0.2858 -0.3131 -0.2259
 1001YOPC   NC313145   1.982  10.364   5.593  0.3373 -0.1097 -0.1497
 1001YOPC   PO413146   2.157   9.956   5.727  0.0250  0.3901  0.0039
 1001YOPC   GL113147   2.179   9.922   6.131  0.1680  0.1463 -0.2405
 1001YOPC   GL213148   1.918   9.899   6.320 -0.2328  0.1687 -0.3934
 1001YOPC   C1A13149   2.301  10.185   6.543  0.1764  0.2037  0.2246
 1001YOPC   D2A13150   2.299  10.258   6.979  0.1888  0.2298  0.0166
 1001YOPC   C3A13151   2.068  10.161   7.273 -0.0138  0.1065 -0.0264
 1001YOPC   C4A13152   1.948   9.757   7.365  0.1890 -0.1435 -0.0006
 1001YOPC   C1B13153   1.440   9.791   6.393  0.1301  0.1165 -0.0809
 1001YOPC   C2B13154   1.240   9.693   6.786  0.1253  0.1654  0.0058
 1001YOPC   D3B13155   1.505   9.470   7.121  0.2110  0.1357 -0.3758
 1001YOPC   C4B13156   1.828   9.231   7.361  0.0211 -0.0544 -0.3176
 1002YOPC   NC313157  12.434  10.101   5.442 -0.1565  0.0743 -0.1600
 1002YOPC   PO413158  12.394   9.635   5.420 -0.3476 -0.1446  0.0003
 1002YOPC   GL113159  12.670   9.721   5.686 -0.2994 -0.2208  0.1914
 1002YOPC   GL213160  12.419   9.765   5.922 -0.2357 -0.1059  0.3920
 1002YOPC   C1A13161  12.868   9.714   6.094 -0.3601  0.2265 -0.0988
 1002YOPC   D2A13162  13.138   9.671   6.434 -0.5063 -0.0242 -0.1334
 1002YOPC   C3A13163  13.092   9.501   6.854  0.1620 -0.1244  0.1027
 1002YOPC   C4A13164  13.213   9.480   7.332 -0.1871 -0.0009 -0.1197
 1002YOPC   C1B13165  12.389   9.499   6.162  0.1703 -0.1093  0.0256
 1002YOPC   C2B13166  12.176   9.119   6.290  0.2848  0.0816 -0.0088
 1002YOPC   D3B13167  12.304   9.035   6.673 -0.0982  0.0512 -0.1974
 1002YOPC   C4B13168  12.446   9.126   7.104 -0.1950  0.1940 -0.1446
 1003YOPC   NC313169  17.594   5.175   5.391  0.0709 -0.0894 -0.0808
 1003YOPC   PO413170  17.141   5.195   5.430 -0.0674 -0.0029 -0.0269
 1003YOPC   GL113171  17.010   5.127   5.936  0.1703  0.2706  0.1098
 1003YOPC   GL213172  16.703   5.304   6.002  0.0523 -0.1778  0.3747
 1003YOPC   C1A13173  16.975   4.920   6.294  0.1407 -0.1212 -0.3784
 1003YOPC   D2A13174  17.317   4.830   6.642  0.1229 -0.0228 -0.1441
 1003YOPC   C3A13175  17.522   5.162   6.931  0.2811  0.1532 -0.0357
 1003YOPC   C4A13176  17.615   5.214   7.350  0.0554 -0.1382 -0.3749
 1003YOPC   C1B13177  16.515   5.327   6.413  0.0594  0.1759 -0.0437
 1003YOPC   C2B13178  16.141   5.244   6.515 -0.0335 -0.0718  0.2182
 1003YOPC   D3B13179  15.997   5.111   6.995  0.3168  0.1467  0.2689
 1003YOPC   C4B13180  15.506   5.197   7.215 -0.1288  0.0392 -0.1336
 1004YOPC   NC313181   4.936   3.971   5.891 -0.0330  0.2587 -0.1063
 1004YOPC   PO413182   4.703   4.285   5.895  0.1125 -0.4300  0.0653
 1004YOPC   GL113183   4.999   4.377   6.201  0.1920  0.1424 -0.0347
 1004YOPC   GL213184   5.370   4.276   6.096 -0.1253  0.0259  0.3005
 1004YOPC   C1A13185   4.971   4.282   6.583  0.0081 -0.1025  0.1841
 1004YOPC   D2A13186   5.069   3.995   6.983 -0.2677  0.0422  0.0942
 1004YOPC   C3A13187   4.829   3.944   7.371 -0.1634  0.1855 -0.3086
 1004YOPC   C4A13188   4.602   3.796   7.735  0.1173 -0.1084  0.2452
 1004YOPC   C1B13189   5.472   4.402   6.532  0.0256 -0.3027  0.0158
 1004YOPC   C2B13190   5.619   4.189   6.814  0.2648 -0.0393  0.0447
 1004YOPC   D3B13191   5.590   4.318   7.267 -0.3378 -0.2330  0.0555
 1004YOPC   C4B13192   5.451   4.604   7.650  0.0829 -0.0420 -0.0232
 1005YOPC   NC313193   5.192  17.173   6.041  0.0045 -0.0245 -0.2279
 1005YOPC   PO413194   5.148  16.791   5.946 -0.1355 -0.2149  0.0450
 1005YOPC   GL113195   5.002  16.728   6.320 -0.1144  0.0453 -0.4444
 1005YOPC   GL213196   4.710  16.677   6.478  0.1341  0.1404  0.0633
 1005YOPC   C1A13197   5.163  16.774   6.820  0.0936  0.1201  0.1271
 1005YOPC   D2A13198   5.123  16.730   7.200 -0.0777 -0.0813 -0.0011
 1005YOPC   C3A13199   5.114  17.036   7.556  0.3249 -0.0211 -0.1692
 1005YOPC   C4A13200   5.241  17.316   7.822 -0.1614 -0.0774  0.2535
 1005YOPC   C1B13201   4.681  16.608   6.962  0.1652  0.3051  0.2561
 1005YOPC   C2B13202   4.670  16.859   7.332 -0.1913  0.2730  0.0949
 1005YOPC   D3B13203   4.617  17.176   7.656 -0.1779 -0.0284  0.0137
 1005YOPC   C4B13204   4.351  17.487   7.683  0.0468  0.1923 -0.2134
 1006YOPC   NC313205   0.161   4.728   5.727 -0.1601  0.1595  0.0093
 1006YOPC   PO413206   0.201   5.212   5.699 -0.0484  0.1506  0.0128
 1006YOPC   GL113207   0.302   4.971   6.195 -0.0723 -0.1015 -0.2171
 1006YOPC   GL213208  -0.009   5.010   6.170  0.0310  0.0650 -0.1315
 1006YOPC   C1A13209   0.667   4.875   6.486 -0.3266 -0.1721  0.1495
 1006YOPC   D2A13210   0.955   4.495   6.790 -0.0829 -0.0510  0.5051
 1006YOPC   C3A13211   1.086   4.677   7.256 -0.0998 -0.0742 -0.1699
 1006YOPC   C4A13212   1.242   4.990   7.444 -0.0268 -0.3254 -0.2026
 1006YOPC   C1B13213   0.093   5.330   6.576 -0.0738  0.3606  0.2110
 1006YOPC   C2B13214   0.033   5.360   7.068  0.1276 -0.0353 -0.0527
 1006YOPC   D3B13215   0.076   5.000   7.208 -0.3758 -0.0806 -0.1929
 1006YOPC   C4B13216   0.277   4.737   7.532  0.1111 -0.0252 -0.1408
 1007YOPC   NC313217   3.751  16.988   5.417 -0.1337 -0.0696  0.1431
 1007YOPC   PO413218   3.396  17.152   5.878  0.3220 -0.0224  0.1310
 1007YOPC   GL113219   3.155  16.822   6.166  0.1663 -0.2308  0.1998
 1007YOPC   GL213220   3.266  16.451   6.208 -0.0864  0.1395  0.1355
 1007YOPC   C1A13221   2.822  16.839   6.376 -0.2720  0.0770 -0.1168
 1007YOPC   D2A13222   2.578  16.746   6.652 -0.3399 -0.0467  0.0375
 1007YOPC   C3A13223   2.785  16.717   6.973  0.1600 -0.0597  0.0995
 1007YOPC   C4A13224   2.681  16.397   7.291 -0.1317  0.1839 -0.2812
 1007YOPC   C1B13225   3.353  16.562   6.635  0.0909  0.0610 -0.1485
 1007YOPC   C2B13226   3.226  16.423   7.026 -0.0060  0.0630 -0.0073
 1007YOPC   D3B13227   3.087  16.651   7.445 -0.0285 -0.2195 -0.3052
 1007YOPC   C4B13228   2.961  16.544   7.873 -0.0303 -0.2170 -0.3163
 1008YOPC   NC313229  14.989   6.572   5.103  0.1211 -0.1446 -0.3079
 1008YOPC   PO413230  15.265   6.795   5.308 -0.1828 -0.2578  0.2119
 1008YOPC   GL113231  15.221   6.882   5.763 -0.2115  0.0699 -0.0173
 1008YOPC   GL213232  15.437   6.787   5.981 -0.0498 -0.1184 -0.0216
 1008YOPC   C1A13233  15.211   7.194   6.090 -0.1281  0.0859 -0.3962
 1008YOPC   D2A13234  15.499   7.321   6.341 -0.0831  0.1168 -0.1641
 1008YOPC   C3A13235  15.236   7.361   6.722  0.3698  0.1072  0.0085
 1008YOPC   C4A13236  14.974   7.411   6.904 -0.0730  0.0006 -0.1345
 1008YOPC   C1B13237  15.399   6.837   6.391 -0.0264 -0.0093 -0.0466
 1008YOPC   C2B13238  15.170   6.786   6.813 -0.0535 -0.1596  0.0400
 1008YOPC   D3B13239  15.329   6.638   7.101  0.2227 -0.0652  0.0531
 1008YOPC   C4B13240  15.407   6.699   7.531 -0.2295 -0.0945 -0.3912
 1009YOPC   NC313241   7.582   2.482   6.179 -0.1290  0.0894  0.0790
 1009YOPC   PO413242   7.781   2.023   6.292 -0.2888 -0.0542  0.2172
 1009YOPC   GL113243   7.512   1.860   6.472 -0.1350 -0.5877  0.0046
 1009YOPC   GL213244   7.306   1.579   6.353  0.1055  0.6794 -0.0242
 1009YOPC   C1A13245   7.360   1.779   6.863 -0.2464 -0.0192 -0.1177
 1009YOPC   D2A13246   7.106   1.581   7.182  0.0218 -0.2330 -0.1638
 1009YOPC   C3A13247   7.070   1.448   7.579 -0.0421  0.1222  0.0953
 1009YOPC   C4A13248   7.106   1.245   7.933  0.0090  0.0296 -0.1575
 1009YOPC   C1B13249   7.035   1.480   6.697 -0.1503  0.4474  0.0343
 1009YOPC   C2B13250   6.616   1.562   6.817 -0.0761 -0.2524 -0.0783
 1009YOPC   D3B13251   6.519   1.716   7.135  0.4456 -0.0093 -0.1344
 1009YOPC   C4B13252   6.644   1.799   7.478  0.1839  0.5287  0.1051
 1010YOPC   NC313253   0.841  12.333   6.042 -0.1110 -0.0631 -0.0200
 1010YOPC   PO413254   0.338  12.310   5.900 -0.1014  0.0114  0.1859
 1010YOPC   GL113255   0.423  12.608   6.153 -0.0332  0.1080  0.1599
 1010YOPC   GL213256   0.740  12.794   6.220  0.1606 -0.1202  0.1347
 1010YOPC   C1A13257   0.447  12.619   6.622  0.2029  0.2645  0.3109
 1010YOPC   D2A13258   0.200  12.652   7.028 -0.2254 -0.0002  0.2720
 1010YOPC   C3A13259   0.368  12.451   7.420 -0.1222 -0.0950  0.2102
 1010YOPC   C4A13260   0.676  12.329   7.755 -0.1230 -0.0397 -0.2049
 1010YOPC   C1B13261   0.852  12.965   6.627  0.1263  0.1199 -0.0372
 1010YOPC   C2B13262   0.882  13.198   6.983  0.1567  0.2270 -0.2126
 1010YOPC   D3B13263   0.711  13.300   7.400  0.0542 -0.1121  0.0545
 1010YOPC   C4B13264   0.755  13.296   7.829 -0.0960 -0.0274  0.2920
 1011YOPC   NC313265   7.176  15.261   5.856 -0.2991  0.2676 -0.0416
 1011YOPC   PO413266   7.096  15.715   5.952  0.4654 -0.2440  0.0045
 1011YOPC   GL113267   6.962  15.622   6.347  0.0831 -0.0255  0.5371
 1011YOPC   GL213268   6.613  15.512   6.442 -0.0913  0.1244  0.0098
 1011YOPC   C1A13269   6.849  15.672   6.823  0.1309 -0.0173 -0.1200
 1011YOPC   D2A13270   6.873  15.580   7.264  0.0344 -0.0264 -0.0803
 1011YOPC   C3A13271   7.191  15.846   7.318 -0.0116  0.2680 -0.1042
 1011YOPC   C4A13272   7.297  16.180   7.636 -0.3331  0.2449  0.2054
 1011YOPC   C1B13273   6.554  15.252   6.791 -0.4073  0.0738  0.3279
 1011YOPC   C2B13274   6.550  15.115   7.251  0.1674  0.2698  0.2615
 1011YOPC   D3B13275   6.284  14.929   7.497 -0.1260 -0.4648 -0.2725
 1011YOPC   C4B13276   5.799  14.822   7.553  0.0143 -0.0781 -0.2129
 1012YOPC   NC313277   4.746  13.602   5.952 -0.2206 -0.3167 -0.3015
 1012YOPC   PO413278   5.178  13.489   5.794 -0.0946  0.3991 -0.0213
 1012YOPC   GL113279   5.328  13.385   6.263 -0.3241 -0.1548  0.1700
 1012YOPC   GL213280   5.658  13.421   6.278 -0.0392  0.2535 -0.0602
 1012YOPC   C1A13281   5.514  13.056   6.571 -0.0839 -0.5442  0.2292
 1012YOPC   D2A13282   5.915  12.812   6.309 -0.0305 -0.0972  0.3080
 1012YOPC   C3A13283   5.893  12.443   6.417 -0.0362 -0.0130  0.0978
 1012YOPC   C4A13284   5.695  12.050   6.555 -0.0172 -0.3034  0.1799
 1012YOPC   C1B13285   5.954  13.302   6.572 -0.0403  0.1369  0.1460
 1012YOPC   C2B13286   5.951  13.069   6.912  0.0892  0.1428  0.1634
 1012YOPC   D3B13287   5.556  12.902   7.014 -0.1824 -0.1925 -0.2436
 1012YOPC   C4B13288   5.410  12.562   7.346  0.2534  0.0921 -0.0951
 1013YOPC   NC313289  12.726   3.701   5.495  0.0709 -0.1672 -0.1211
 1013YOPC   PO413290  13.029   3.938   5.764 -0.1136  0.4993 -0.3488
 1013YOPC   GL113291  13.261   3.921   6.155 -0.3109 -0.1933  0.0838
 1013YOPC   GL213292  13.351   4.231   6.106  0.0810 -0.0520 -0.0269
 1013YOPC   C1A13293  13.266   3.626   6.534  0.0614 -0.3093  0.1023
 1013YOPC   D2A13294  13.314   3.634   7.003  0.2343 -0.0622 -0.2719
 1013YOPC   C3A13295  13.166   3.954   7.299  0.2633 -0.0063  0.1359
 1013YOPC   C4A13296  12.971   4.225   7.604  0.1036  0.1303  0.3747
 1013YOPC   C1B13297  13.284   4.501   6.319 -0.1859  0.4343 -0.1616
 1013YOPC   C2B13298  13.108   4.565   6.743 -0.3372  0.0960 -0.2434
 1013YOPC   D3B13299  12.819   4.886   6.808 -0.0206 -0.0056 -0.2691
 1013YOPC   C4B13300  12.754   5.122   7.105  0.0789 -0.4255 -0.0874
 1014YOPC   NC313301  13.244   9.227   4.985  0.0883  0.2339 -0.0078
 1014YOPC   PO413302  13.239   9.459   5.376 -0.4681 -0.0222  0.0218
 1014YOPC   GL113303  13.022   9.353   5.761  0.1913  0.0761  0.3730
 1014YOPC   GL213304  13.242   9.233   5.986 -0.2107  0.4858 -0.0906
 1014YOPC   C1A13305  12.799   9.199   6.158  0.1248  0.0086  0.1004
 1014YOPC   D2A13306  12.738   9.184   6.613  0.1488 -0.3410  0.3421
 1014YOPC   C3A13307  12.578   9.576   6.710 -0.1817 -0.2688  0.1289
 1014YOPC   C4A13308  12.844  10.043   6.638 -0.2365 -0.2242 -0.3491
 1014YOPC   C1B13309  13.191   9.122   6.437  0.0389  0.0940  0.1626
 1014YOPC   C2B13310  13.183   8.878   6.766  0.2671 -0.1104  0.0849
 1014YOPC   D3B13311  12.962   9.033   7.058 -0.1365 -0.1649  0.4725
 1014YOPC   C4B13312  12.728   9.409   7.386  0.1308  0.0863  0.3292
 1015YOPC   NC313313   9.468   1.785   6.045  0.1059  0.1566 -0.3052
 1015YOPC   PO413314   9.888   1.755   5.833  0.0694  0.4090 -0.0609
 1015YOPC   GL113315   9.840   1.452   6.038  0.3393 -0.2605  0.3729
 1015YOPC   GL213316   9.979   1.545   6.340 -0.2403  0.0706  0.0034
 1015YOPC   C1A13317   9.702   1.166   6.380 -0.2964 -0.0714  0.2348
 1015YOPC   D2A13318   9.727   1.127   6.863  0.0853 -0.1379 -0.3743
 1015YOPC   C3A13319   9.721   1.552   7.131 -0.1221 -0.1358  0.1868
 1015YOPC   C4A13320   9.719   1.737   7.521 -0.2044 -0.0784  0.0063
 1015YOPC   C1B13321  10.045   1.635   6.758  0.0203 -0.2208 -0.2132
 1015YOPC   C2B13322  10.091   1.947   7.130 -0.0755  0.0390 -0.0634
 1015YOPC   D3B13323  10.283   1.749   7.448  0.1287 -0.2519 -0.1841
 1015YOPC   C4B13324  10.053   1.511   7.834  0.0704 -0.1995  0.1694
 1016YOPC   NC313325   0.263   1.207   5.965  0.0459 -0.1506 -0.0237
 1016YOPC   PO413326  -0.055   1.407   5.660  0.2036  0.4568 -0.1619
 1016YOPC   GL113327  -0.163   1.527   6.024  0.0356  0.0669  0.0364
 1016YOPC   GL213328  -0.389   1.253   6.271 -0.2737 -0.0420 -0.1381
 1016YOPC   C1A13329  -0.075   1.819   6.402  0.5015  0.4640 -0.0328
 1016YOPC   D2A13330  -0.140   2.033   6.750  0.2878  0.0681  0.1180
 1016YOPC   C3A13331  -0.106   2.222   7.147 -0.0273 -0.0165  0.1563
 1016YOPC   C4A13332  -0.080   2.540   7.474 -0.0798  0.1574  0.0865
 1016YOPC   C1B13333  -0.743   1.454   6.219  0.2677 -0.0895  0.2309
 1016YOPC   C2B13334  -0.620   1.874   6.126  0.1319  0.1408  0.2496
 1016YOPC   D3B13335  -0.547   2.274   6.437 -0.2443  0.0843 -0.0611
 1016YOPC   C4B13336  -0.117   2.489   6.471 -0.1165  0.0863 -0.1790
 1017YOPC   NC313337   8.637   7.674   5.359 -0.3539  0.3220  0.0726
 1017YOPC   PO413338   8.383   8.041   5.506 -0.2376  0.0317 -0.0442
 1017YOPC   GL113339   8.408   8.000   5.905  0.1926  0.1198  0.1063
 1017YOPC   GL213340   8.657   8.172   6.078 -0.0607  0.1241  0.1573
 1017YOPC   C1A13341   8.295   7.902   6.365 -0.0013 -0.1322 -0.0627
 1017YOPC   D2A13342   8.434   8.052   6.847 -0.1404 -0.1101  0.3056
 1017YOPC   C3A13343   8.169   8.167   7.087  0.0843 -0.2324 -0.0428
 1017YOPC   C4A13344   7.954   7.943   7.309  0.0563  0.1038 -0.0995
 1017YOPC   C1B13345   8.803   8.027   6.415  0.2527  0.0047  0.0004
 1017YOPC   C2B13346   8.976   8.264   6.795  0.0802  0.2368 -0.2789
 1017YOPC   D3B13347   8.761   8.281   7.177  0.0450 -0.2129  0.0181
 1017YOPC   C4B13348   8.411   8.227   7.461 -0.0395 -0.1354 -0.0727
 1018YOPC   NC313349  10.715   7.052   5.538  0.3045  0.3730 -0.1933
 1018YOPC   PO413350  11.159   7.013   5.377 -0.0577 -0.0985  0.2181
 1018YOPC   GL113351  11.115   7.327   5.709  0.0072  0.0864  0.0886
 1018YOPC   GL213352  11.400   7.602   5.779  0.1687 -0.3367  0.0277
 1018YOPC   C1A13353  11.029   7.882   5.691  0.1899  0.1385  0.0766
 1018YOPC   D2A13354  10.761   8.007   5.960 -0.2757  0.0515 -0.3073
 1018YOPC   C3A13355  10.311   8.316   5.963 -0.2321  0.1077 -0.0591
 1018YOPC   C4A13356   9.881   8.204   6.182 -0.1727  0.2909  0.3339
 1018YOPC   C1B13357  11.124   7.626   6.211 -0.2288  0.0154 -0.2213
 1018YOPC   C2B13358  11.187   7.731   6.677  0.0943 -0.0581  0.0814
 1018YOPC   D3B13359  11.056   7.365   7.010  0.3895 -0.2113  0.2890
 1018YOPC   C4B13360  11.087   7.230   7.326  0.0636 -0.2036 -0.3151
 1019YOPC   NC313361   1.574   8.118   5.125  0.0041 -0.0975 -0.0394
 1019YOPC   PO413362   1.611   7.845   5.486  0.0325  0.0535 -0.1875
 1019YOPC   GL113363   1.994   7.739   5.757 -0.1553 -0.5289  0.0702
 1019YOPC   GL213364   2.417   7.833   5.840  0.0140  0.2021  0.1862
 1019YOPC   C1A13365   1.842   7.594   6.073 -0.1869  0.1683 -0.0611
 1019YOPC   D2A13366   1.379   7.589   6.278 -0.0965  0.0295 -0.0230
 1019YOPC   C3A13367   1.205   7.682   6.670 -0.0744 -0.0170  0.0772
 1019YOPC   C4A13368   0.740   7.648   6.802  0.2974 -0.0191  0.0918
 1019YOPC   C1B13369   2.360   7.658   6.225 -0.1833 -0.3578  0.1206
 1019YOPC   C2B13370   2.084   7.547   6.558 -0.1239 -0.0016 -0.0387
 1019YOPC   D3B13371   1.722   7.674   6.721  0.1532 -0.1669  0.2433
 1019YOPC   C4B13372   1.577   7.845   7.160  0.0250  0.1352 -0.1558
 1020YOPC   NC313373  11.503  11.385   5.444 -0.0257  0.0266 -0.0969
 1020YOPC   PO413374  11.806  11.764   5.238 -0.6424  0.1612  0.1461
 1020YOPC   GL113375  11.623  11.813   5.734 -0.1180 -0.0616 -0.1818
 1020YOPC   GL213376  11.347  11.733   5.966  0.1303 -0.0144 -0.0070
 1020YOPC   C1A13377  11.616  12.204   6.024 -0.1719  0.1960  0.1890
 1020YOPC   D2A13378  11.482  12.623   6.052 -0.0155  0.1756 -0.0642
 1020YOPC   C3A13379  11.059  12.646   6.356 -0.0456  0.0105  0.3166
 1020YOPC   C4A13380  10.660  12.252   6.321 -0.1783 -0.0684 -0.1473
 1020YOPC   C1B13381  11.251  11.685   6.390  0.2156  0.0050 -0.0753
 1020YOPC   C2B13382  11.181  11.835   6.912 -0.1151  0.3021 -0.1457
 1020YOPC   D3B13383  11.407  12.272   7.065 -0.0015  0.1537  0.3202
 1020YOPC   C4B13384  11.749  12.407   7.316 -0.4878 -0.0698  0.0081
 1021YOPC   NC313385  12.559  16.206   5.246 -0.4161 -0.2036 -0.2295
 1021YOPC   PO413386  12.716  16.503   5.559 -0.0158 -0.0039  0.1564
 1021YOPC   GL113387  12.454  16.633   6.050  0.0318 -0.0694 -0.0803
 1021YOPC   GL213388  12.141  16.794   6.190 -0.2451  0.4212  0.0238
 1021YOPC   C1A13389  12.370  16.234   6.186 -0.0115  0.0655 -0.4388
 1021YOPC   D2A13390  12.157  15.782   6.137 -0.0246 -0.0510  0.0507
 1021YOPC   C3A13391  11.829  15.628   5.897  0.0397  0.2659  0.0529
 1021YOPC   C4A13392  11.864  15.506   5.374  0.0218  0.1021 -0.0889
 1021YOPC   C1B13393  11.916  17.088   6.468 -0.2947  0.4865  0.1192
 1021YOPC   C2B13394  12.117  16.981   6.790 -0.0446 -0.0908 -0.0111
 1021YOPC   D3B13395  12.080  17.316   7.120 -0.0446  0.2699  0.1020
 1021YOPC   C4B13396  11.744  17.609   7.353 -0.2352 -0.2850  0.0938
 1022YOPC   NC313397  12.683   7.806   5.472  0.1915  0.1095  0.0761
 1022YOPC   PO413398  12.286   7.606   5.555  0.1797  0.0158  0.1798
 1022YOPC   GL113399  12.079   7.295   5.776 -0.2073 -0.2771  0.1464
 1022YOPC   GL213400  11.877   7.239   5.786  0.0464 -0.1950 -0.0060
 1022YOPC   C1A13401  11.904   6.853   6.038 -0.0977 -0.0283  0.0873
 1022YOPC   D2A13402  11.697   6.616   6.320  0.5070  0.0087  0.0350
 1022YOPC   C3A13403  11.355   6.314   6.322  0.0322  0.0827 -0.0264
 1022YOPC   C4A13404  11.026   6.301   6.120 -0.0540  0.2622  0.0652
 1022YOPC   C1B13405  11.961   7.389   6.267  0.0061  0.3888 -0.0612
 1022YOPC   C2B13406  11.992   7.494   6.709 -0.1796 -0.2847  0.2346
 1022YOPC   D3B13407  12.413   7.570   6.751  0.1148 -0.2467 -0.0085
 1022YOPC   C4B13408  12.730   7.693   6.860 -0.2691  0.0446 -0.2537
 1023YOPC   NC313409   5.108   8.831   5.586  0.0968  0.0092  0.2064
 1023YOPC   PO413410   4.820   9.132   5.779 -0.1992  0.1190  0.1392
 1023YOPC   GL113411   4.840   8.765   5.999 -0.2074  0.0373  0.2184
 1023YOPC   GL213412   4.596   8.950   6.198  0.0734 -0.0539  0.1407
 1023YOPC   C1A13413   4.740   8.503   6.459 -0.3492  0.2137  0.0369
 1023YOPC   D2A13414   4.999   8.522   6.814  0.1633 -0.0702  0.1437
 1023YOPC   C3A13415   5.094   8.856   6.982 -0.3279 -0.2310 -0.2168
 1023YOPC   C4A13416   5.448   8.941   7.321 -0.0820  0.3136  0.2748
 1023YOPC   C1B13417   4.329   8.811   6.601  0.1746  0.2542  0.1286
 1023YOPC   C2B13418   4.062   8.688   6.919 -0.3901  0.1598 -0.1916
 1023YOPC   D3B13419   4.161   8.752   7.398  0.2285  0.3938  0.0194
 1023YOPC   C4B13420   3.920   8.569   7.809  0.0016  0.3700 -0.2292
 1024YOPC   NC313421   4.000   7.786   5.617 -0.1989 -0.3566 -0.1601
 1024YOPC   PO413422   3.566   7.730   5.556 -0.0877 -0.2572  0.1556
 1024YOPC   GL113423   3.385   7.602   5.957  0.2834 -0.4171  0.1676
 1024YOPC   GL213424   3.083   7.764   6.105  0.0386  0.0333  0.1899
 1024YOPC   C1A13425   3.490   7.760   6.448  0.3379 -0.0961 -0.1207
 1024YOPC   D2A13426   3.331   7.542   6.844 -0.0216  0.0287  0.2915
 1024YOPC   C3A13427   3.434   7.601   7.222 -0.0648 -0.2629  0.0891
 1024YOPC   C4A13428   3.402   7.674   7.548 -0.1626 -0.0769 -0.1953
 1024YOPC   C1B13429   2.902   7.530   6.470 -0.1401  0.0446  0.4236
 1024YOPC   C2B13430   2.898   7.351   6.858  0.0103 -0.1467 -0.0783
 1024YOPC   D3B13431   2.890   7.494   7.278 -0.2517 -0.1098 -0.1221
 1024YOPC   C4B13432   2.916   7.604   7.764 -0.0542  0.1318  0.1606
 1025YOPC   NC313433   9.444  16.192   5.807 -0.1709  0.1155 -0.1759
 1025YOPC   PO413434   9.163  16.541   5.756  0.0470  0.2648 -0.1548
 1025YOPC   GL113435   9.064  16.764   6.175 -0.0004 -0.3017  0.2229
 1025YOPC   GL213436   8.782  16.662   6.220  0.0430  0.0047  0.2289
 1025YOPC   C1A13437   9.202  16.831   6.635 -0.1816 -0.0767 -0.0894
 1025YOPC   D2A13438   9.418  16.574   7.025 -0.0714 -0.0084  0.1752
 1025YOPC   C3A13439   9.541  16.916   7.327  0.0163  0.0508 -0.4821
 1025YOPC   C4A13440   9.556  17.152   7.665 -0.4204  0.0420  0.0648
 1025YOPC   C1B13441   8.875  16.455   6.616  0.0916  0.2269  0.0665
 1025YOPC   C2B13442   9.152  16.165   6.873 -0.0919  0.1606  0.3182
 1025YOPC   D3B13443   9.320  16.010   7.281  0.0049 -0.1415  0.0621
 1025YOPC   C4B13444   9.230  15.628   7.430  0.0786 -0.1960 -0.4810
 1026YOPC   NC313445   8.281   3.585   5.635 -0.0411  0.1318 -0.1125
 1026YOPC   PO413446   8.672   3.767   5.777  0.3746  0.3009 -0.4746
 1026YOPC   GL113447   8.568   3.826   6.330  0.0275 -0.2069  0.1353
 1026YOPC   GL213448   8.337   3.591   6.594 -0.0026  0.1064  0.0871
 1026YOPC   C1A13449   8.592   4.011   6.695 -0.2553 -0.2497  0.1380
 1026YOPC   D2A13450   8.395   3.827   7.042  0.0949 -0.0317 -0.1051
 1026YOPC   C3A13451   8.409   3.888   7.426  0.1808  0.0421 -0.1099
 1026YOPC   C4A13452   8.414   4.268   7.684  0.3373 -0.1252  0.1551
 1026YOPC   C1B13453   8.099   3.935   6.532 -0.1415 -0.1799 -0.0127
 1026YOPC   C2B13454   8.227   4.276   6.837 -0.1396 -0.3199 -0.2292
 1026YOPC   D3B13455   8.238   4.375   7.214  0.0592 -0.0898  0.4086
 1026YOPC   C4B13456   8.037   4.549   7.699 -0.1447 -0.0551  0.1704
 1027YOPC   NC313457   0.455  17.454   5.371  0.0988 -0.4162 -0.1478
 1027YOPC   PO413458   0.723  17.319   5.739  0.4353 -0.0252 -0.3362
 1027YOPC   GL113459   0.682  17.463   6.142  0.2208  0.2822  0.1749
 1027YOPC   GL213460   0.906  17.330   6.262  0.2247 -0.0768  0.0746
 1027YOPC   C1A13461   0.350  17.899   6.271 -0.0033 -0.0170  0.2202
 1027YOPC   D2A13462   0.268  18.217   6.455  0.0608 -0.0339  0.1784
 1027YOPC   C3A13463   0.109  18.680   6.521 -0.3694 -0.0143  0.1863
 1027YOPC   C4A13464  -0.043  19.129   6.653  0.3632 -0.0600  0.0739
 1027YOPC   C1B13465   1.018  17.234   6.739 -0.0007 -0.0312  0.0035
 1027YOPC   C2B13466   1.244  17.350   7.017  0.0040 -0.3912 -0.2287
 1027YOPC   D3B13467   1.117  17.275   7.412  0.0038 -0.3686 -0.4553
 1027YOPC   C4B13468   1.329  17.345   7.762 -0.1680  0.0636  0.0940
 1028YOPC   NC313469   0.676   6.292   5.514  0.1726  0.2200  0.1325
 1028YOPC   PO413470   0.691   5.953   5.690 -0.0162 -0.0965 -0.1513
 1028YOPC   GL113471   0.439   6.207   6.065  0.1251 -0.0997  0.1679
 1028YOPC   GL213472   0.646   6.511   5.946 -0.0857  0.0564  0.0108
 1028YOPC   C1A13473   0.455   6.278   6.547 -0.0734  0.2570 -0.0295
 1028YOPC   D2A13474   0.687   6.516   6.844 -0.0993 -0.0363  0.1777
 1028YOPC   C3A13475   0.979   6.292   7.034  0.0893  0.1377  0.2953
 1028YOPC   C4A13476   0.937   6.158   7.459 -0.1185  0.0105 -0.2237
 1028YOPC   C1B13477   0.903   6.731   6.101 -0.3019 -0.2053 -0.1944
 1028YOPC   C2B13478   0.821   6.963   6.449  0.0232 -0.2477 -0.1687
 1028YOPC   D3B13479   1.066   7.169   6.664  0.0965  0.0565  0.0497
 1028YOPC   C4B13480   1.127   7.505   7.122 -0.3520  0.0953  0.1874
 1029YOPC   NC313481   3.675  18.181   5.894  0.1155  0.1956 -0.1607
 1029YOPC   PO413482   4.169  18.335   5.859  0.2849 -0.1083 -0.1566
 1029YOPC   GL113483   4.130  18.189   6.345  0.2249  0.1053  0.0301
 1029YOPC   GL213484   4.409  17.986   6.222  0.0290 -0.3337  0.0006
 1029YOPC   C1A13485   4.148  18.237   6.710  0.3923 -0.0938  0.2732
 1029YOPC   D2A13486   4.048  18.428   7.134 -0.0808 -0.0226 -0.0301
 1029YOPC   C3A13487   4.108  18.429   7.536  0.0171  0.1463 -0.3016
 1029YOPC   C4A13488   3.808  18.311   7.797  0.3117  0.4584 -0.0023
 1029YOPC   C1B13489   4.289  17.770   6.661  0.1929 -0.0227 -0.1340
 1029YOPC   C2B13490   3.959  17.393   6.641  0.1696 -0.1294 -0.2679
 1029YOPC   D3B13491   3.988  17.090   6.996  0.0520 -0.2060 -0.2438
 1029YOPC   C4B13492   4.208  16.803   7.150  0.0415 -0.1464 -0.3012
 1030YOPC   NC313493  12.252  12.561   4.970  0.0654 -0.1104  0.1472
 1030YOPC   PO413494  12.192  12.323   5.370 -0.0795 -0.0443  0.5565
 1030YOPC   GL113495  12.096  12.159   5.786 -0.3166  0.2592  0.3867
 1030YOPC   GL213496  12.374  11.959   5.954 -0.4825 -0.1275 -0.1417
 1030YOPC   C1A13497  11.888  11.805   6.175  0.0943 -0.1099 -0.1809
 1030YOPC   D2A13498  11.617  11.895   6.678  0.2452  0.1337  0.0564
 1030YOPC   C3A13499  11.847  11.908   6.989 -0.0895  0.2352 -0.1045
 1030YOPC   C4A13500  11.691  11.865   7.372  0.0041 -0.0804  0.0823
 1030YOPC   C1B13501  12.215  12.227   6.257 -0.0765 -0.3973  0.1506
 1030YOPC   C2B13502  11.908  12.183   6.443 -0.0709  0.0779  0.4130
 1030YOPC   D3B13503  11.806  12.448   6.809 -0.0714 -0.0002 -0.1014
 1030YOPC   C4B13504  11.796  12.846   6.964  0.0876 -0.2316 -0.2080
 1031YOPC   NC313505   6.913  13.958   5.414 -0.1826 -0.2770 -0.0206
 1031YOPC   PO413506   6.500  13.928   5.562  0.0537 -0.3025 -0.1276
 1031YOPC   GL113507   6.471  13.989   5.996 -0.0017  0.3868 -0.0925
 1031YOPC   GL213508   6.617  14.239   6.000  0.2976  0.0327 -0.1729
 1031YOPC   C1A13509   6.641  13.717   6.326  0.1288 -0.1956  0.3060
 1031YOPC   D2A13510   6.741  13.904   6.850 -0.3092  0.3141  0.2121
 1031YOPC   C3A13511   6.874  14.344   6.901  0.2578 -0.2844 -0.1957
 1031YOPC   C4A13512   7.138  14.672   6.748  0.0681 -0.1110 -0.1374
 1031YOPC   C1B13513   6.676  14.336   6.415 -0.1261  0.0532 -0.3738
 1031YOPC   C2B13514   6.633  14.718   6.685  0.0889  0.1974  0.0833
 1031YOPC   D3B13515   6.603  14.639   7.234  0.1700  0.2683  0.1378
 1031YOPC   C4B13516   6.676  14.425   7.605  0.3705  0.0610 -0.0695
 1032YOPC   NC313517  13.092   0.121   5.546 -0.1130 -0.1644 -0.0572
 1032YOPC   PO413518  12.960  -0.109   6.016  0.0125 -0.1264  0.0927
 1032YOPC   GL113519  12.684   0.156   6.340 -0.1191 -0.2604  0.1343
 1032YOPC   GL213520  12.501   0.391   6.137 -0.0760  0.0248 -0.0929
 1032YOPC   C1A13521  12.788   0.481   6.645  0.0641  0.3522 -0.1234
 1032YOPC   D2A13522  12.785   0.584   7.013 -0.1426 -0.1056  0.0889
 1032YOPC   C3A13523  12.544   0.443   7.231  0.0601  0.0249 -0.0704
 1032YOPC   C4A13524  12.252   0.365   7.607 -0.0952  0.1500 -0.0473
 1032YOPC   C1B13525  12.304   0.558   6.543 -0.0233 -0.0002  0.1218
 1032YOPC   C2B13526  12.073   0.610   6.949  0.0868 -0.2240 -0.1758
 1032YOPC   D3B13527  11.738   0.538   7.205  0.4697 -0.0513 -0.0029
 1032YOPC   C4B13528  11.716   0.620   7.583  0.0408  0.3897  0.0314
 1033YOPC   NC313529   5.943   0.040   6.183 -0.1944 -0.1135 -0.4755
 1033YOPC   PO413530   5.699  -0.233   6.039  0.0380  0.2562  0.1587
 1033YOPC   GL113531   5.407  -0.224   6.291  0.0557  0.1187  0.1508
 1033YOPC   GL213532   5.258   0.069   6.314  0.1313  0.1422 -0.0993
 1033YOPC   C1A13533   5.030  -0.392   6.436  0.0564 -0.0829 -0.2574
 1033YOPC   D2A13534   4.707  -0.488   6.610  0.1814  0.0264 -0.3698
 1033YOPC   C3A13535   4.596  -0.656   6.964  0.1328  0.2938  0.0929
 1033YOPC   C4A13536   4.400  -0.790   7.197  0.2873  0.3392  0.0770
 1033YOPC   C1B13537   5.140   0.350   6.566  0.1630  0.0092 -0.0405
 1033YOPC   C2B13538   5.217   0.329   7.040  0.0132  0.0306 -0.3544
 1033YOPC   D3B13539   5.280   0.489   7.494 -0.1730  0.2932  0.1522
 1033YOPC   C4B13540   5.557   0.514   7.812 -0.0108  0.3134  0.2880
 1034YOPC   NC313541   1.602   2.322   5.770 -0.1929  0.1640  0.0628
 1034YOPC   PO413542   1.367   1.940   5.802 -0.0958 -0.1978  0.4746
 1034YOPC   GL113543   1.035   2.001   6.203 -0.1982  0.0175 -0.1952
 1034YOPC   GL213544   0.869   1.735   6.344  0.0483  0.2279 -0.2245
 1034YOPC   C1A13545   0.886   2.312   6.450 -0.1390 -0.0944  0.0237
 1034YOPC   D2A13546   0.831   2.425   6.901  0.0280  0.0381 -0.0447
 1034YOPC   C3A13547   1.191   2.351   7.151  0.0964 -0.2369 -0.1161
 1034YOPC   C4A13548   1.158   2.159   7.480 -0.2498  0.2545 -0.1572
 1034YOPC   C1B13549   0.704   1.770   6.727 -0.1737 -0.0276 -0.0867
 1034YOPC   C2B13550   0.820   1.964   7.177  0.4614 -0.0403 -0.0453
 1034YOPC   D3B13551   0.514   2.123   7.463  0.1536 -0.0390  0.3391
 1034YOPC   C4B13552   0.435   2.438   7.697 -0.0383 -0.2982  0.2303
 1035YOPC   NC313553   7.313  16.104   5.652 -0.0553 -0.1422  0.1559
 1035YOPC   PO413554   6.869  16.273   5.818  0.1809  0.1218  0.1533
 1035YOPC   GL113555   7.100  16.218   6.195  0.2459 -0.1223 -0.2507
 1035YOPC   GL213556   7.506  16.138   6.206 -0.1925  0.0820 -0.0958
 1035YOPC   C1A13557   7.153  16.126   6.605  0.0257 -0.0881 -0.1715
 1035YOPC   D2A13558   6.810  16.170   6.943  0.1317 -0.1051 -0.0480
 1035YOPC   C3A13559   6.688  16.026   7.325  0.0390  0.1995 -0.0158
 1035YOPC   C4A13560   6.468  15.795   7.625 -0.1794  0.0974  0.0836
 1035YOPC   C1B13561   7.664  16.218   6.619  0.3619  0.1858  0.1215
 1035YOPC   C2B13562   7.559  16.142   7.006  0.4496  0.2285 -0.1182
 1035YOPC   D3B13563   7.653  16.410   7.370  0.0179  0.3199  0.0422
 1035YOPC   C4B13564   7.945  16.658   7.591  0.1424  0.0199 -0.0554
 1036YOPC   NC313565   6.091   6.688   5.490  0.1695 -0.0906  0.1443
 1036YOPC   PO413566   6.449   6.768   5.471 -0.4558  0.0017 -0.1461
 1036YOPC   GL113567   6.681   6.806   5.864 -0.3039  0.1093 -0.1514
 1036YOPC   GL213568   6.663   6.493   5.876 -0.1155  0.2320 -0.0271
 1036YOPC   C1A13569   7.029   6.951   6.078  0.3191  0.1675  0.3386
 1036YOPC   D2A13570   7.364   6.903   6.343  0.1037 -0.0184 -0.5285
 1036YOPC   C3A13571   7.344   7.010   6.749 -0.1513 -0.0150 -0.0334
 1036YOPC   C4A13572   7.497   7.317   6.871 -0.0063  0.0410  0.1723
 1036YOPC   C1B13573   6.275   6.625   6.118  0.1040  0.0770 -0.1684
 1036YOPC   C2B13574   5.964   6.665   6.504 -0.1604 -0.2756 -0.2689
 1036YOPC   D3B13575   5.520   6.679   6.524 -0.0466 -0.0445  0.1289
 1036YOPC   C4B13576   5.414   7.158   6.484  0.0191  0.2544 -0.2348
 1037YOPC   NC313577  18.150  10.076   5.828  0.4707  0.1480 -0.0788
 1037YOPC   PO413578  17.788   9.720   5.837 -0.2003  0.0701  0.0912
 1037YOPC   GL113579  18.105   9.744   6.188  0.1320  0.0790 -0.2186
 1037YOPC   GL213580  18.082  10.040   6.348  0.0284  0.0917  0.2483
 1037YOPC   C1A13581  18.382   9.687   6.586 -0.0502  0.4682  0.0814
 1037YOPC   D2A13582  18.685   9.829   6.849 -0.0132  0.1536 -0.0476
 1037YOPC   C3A13583  19.017   9.599   6.880  0.0570  0.3384  0.0894
 1037YOPC   C4A13584  19.444   9.677   6.766  0.0378  0.3887  0.2575
 1037YOPC   C1B13585  18.168  10.126   6.738 -0.3100 -0.0066 -0.2378
 1037YOPC   C2B13586  18.369  10.214   7.100  0.0964  0.1243  0.0369
 1037YOPC   D3B13587  18.268  10.030   7.536 -0.0367 -0.2381 -0.0517
 1037YOPC   C4B13588  18.267   9.787   7.886 -0.0198 -0.1754  0.3515
 1038YOPC   NC313589   9.491   8.305   5.233 -0.1585 -0.2303 -0.2375
 1038YOPC   PO413590   9.189   8.488   5.511 -0.0931  0.2425  0.1271
 1038YOPC   GL113591   9.045   8.399   5.871 -0.1282 -0.0862  0.2713
 1038YOPC   GL213592   9.443   8.368   6.023  0.1588 -0.1103 -0.1473
 1038YOPC   C1A13593   8.988   8.493   6.278  0.0151 -0.0177 -0.1246
 1038YOPC   D2A13594   9.119   8.759   6.701  0.2917  0.0065 -0.2663
 1038YOPC   C3A13595   9.205   8.502   7.116 -0.1957  0.4040 -0.0584
 1038YOPC   C4A13596   9.228   8.565   7.692 -0.1313  0.0610  0.1192
 1038YOPC   C1B13597   9.698   8.669   6.038 -0.1091 -0.0994 -0.0755
 1038YOPC   C2B13598   9.809   9.166   6.037  0.1010 -0.0036 -0.2325
 1038YOPC   D3B13599   9.964   9.158   6.422 -0.3195 -0.1912 -0.2232
 1038YOPC   C4B13600  10.073   9.385   6.812 -0.0561  0.0052  0.3449
 1039YOPC   NC313601  10.192  15.904   5.347  0.0211 -0.0106 -0.3464
 1039YOPC   PO413602  10.072  16.236   5.633  0.0095 -0.3053  0.1035
 1039YOPC   GL113603  10.414  16.267   5.924  0.1989  0.0195 -0.1974
 1039YOPC   GL213604  10.677  16.269   5.783 -0.0049  0.2365 -0.0155
 1039YOPC   C1A13605  10.728  16.160   6.229  0.1445 -0.4546 -0.0412
 1039YOPC   D2A13606  10.864  15.882   6.673  0.1179 -0.4213  0.1602
 1039YOPC   C3A13607  11.055  16.017   7.030 -0.6563  0.0394 -0.0253
 1039YOPC   C4A13608  11.356  16.209   7.318  0.0964  0.1649 -0.0629
 1039YOPC   C1B13609  10.784  16.614   5.992 -0.1307 -0.0057  0.0545
 1039YOPC   C2B13610  11.097  16.901   6.187  0.0465 -0.2603 -0.3787
 1039YOPC   D3B13611  10.865  17.302   6.255  0.1502 -0.2011 -0.1502
 1039YOPC   C4B13612  10.585  17.651   6.385  0.0281  0.2356  0.0159
 1040YOPC   NC313613  12.885  13.450   5.044  0.1062  0.2653  0.2691
 1040YOPC   PO413614  12.798  13.748   5.440  0.0351 -0.0618  0.1691
 1040YOPC   GL113615  12.786  13.799   5.888 -0.0125 -0.1241 -0.0770
 1040YOPC   GL213616  12.513  13.977   5.946  0.2943  0.0535 -0.2999
 1040YOPC   C1A13617  12.791  13.747   6.312 -0.2010 -0.3572  0.0703
 1040YOPC   D2A13618  12.813  13.767   6.799  0.3834  0.0307 -0.1325
 1040YOPC   C3A13619  12.892  13.622   7.165  0.1784 -0.1542  0.1727
 1040YOPC   C4A13620  12.974  13.431   7.587 -0.2893 -0.1302  0.2145
 1040YOPC   C1B13621  12.104  14.041   6.050 -0.4271  0.1003 -0.1667
 1040YOPC   C2B13622  11.847  14.001   6.424  0.1268 -0.1269  0.3820
 1040YOPC   D3B13623  11.692  14.140   6.875  0.3355 -0.1328 -0.0177
 1040YOPC   C4B13624  11.278  14.251   7.119 -0.0715  0.0100  0.2075
 1041YOPC   NC313625  17.626   2.451   5.040 -0.3327  0.0736  0.0467
 1041YOPC   PO413626  17.228   2.649   5.071  0.2837  0.1301  0.0728
 1041YOPC   GL113627  17.298   2.440   5.403 -0.0255 -0.1438  0.0167
 1041YOPC   GL213628  17.077   2.363   5.540 -0.1998 -0.0935  0.0071
 1041YOPC   C1A13629  17.438   2.237   5.809 -0.0338  0.0487 -0.0848
 1041YOPC   D2A13630  17.236   2.583   6.064  0.1754 -0.0696 -0.1790
 1041YOPC   C3A13631  17.197   2.728   6.568  0.3609  0.0933  0.1657
 1041YOPC   C4A13632  17.393   2.864   7.029 -0.3328 -0.0216 -0.1408
 1041YOPC   C1B13633  16.844   2.384   5.932 -0.0426  0.0633 -0.0118
 1041YOPC   C2B13634  16.762   2.442   6.401  0.0045  0.1048  0.1318
 1041YOPC   D3B13635  16.883   2.250   6.790 -0.2211  0.3329  0.0183
 1041YOPC   C4B13636  16.982   1.826   7.059  0.2259  0.0073  0.0064
 1042YOPC   NC313637   0.841   1.367   5.502  0.0690  0.1514  0.1150
 1042YOPC   PO413638   0.789   1.234   5.914 -0.2015 -0.0144 -0.0464
 1042YOPC   GL113639   0.736   1.269   6.346 -0.0009  0.1140 -0.2523
 1042YOPC   GL213640   1.079   1.357   6.582 -0.1537  0.1040  0.1675
 1042YOPC   C1A13641   0.636   1.282   6.754 -0.1700 -0.3049  0.3354
 1042YOPC   D2A13642   0.309   1.212   7.101  0.0630 -0.2142 -0.2049
 1042YOPC   C3A13643   0.280   1.306   7.546  0.1264 -0.3810  0.1044
 1042YOPC   C4A13644   0.106   1.567   7.844  0.1756 -0.1642 -0.1616
 1042YOPC   C1B13645   1.080   1.542   7.012 -0.1978 -0.0516  0.0649
 1042YOPC   C2B13646   1.187   1.597   7.518 -0.0226  0.0131 -0.1456
 1042YOPC   D3B13647   1.299   1.941   7.865  0.2196  0.3693 -0.0085
 1042YOPC   C4B13648   1.268   1.856   8.225  0.1269  0.2553 -0.1697
 1043YOPC   NC313649  13.155  18.161   5.416  0.2004 -0.1279 -0.0305
 1043YOPC   PO413650  12.926  18.342   5.588  0.0541 -0.0617 -0.2851
 1043YOPC   GL113651  12.801  18.091   5.904  0.0811 -0.0960  0.0023
 1043YOPC   GL213652  12.672  17.700   5.892  0.0134  0.1696 -0.0925
 1043YOPC   C1A13653  12.757  18.103   6.331 -0.1967  0.2340  0.4046
 1043YOPC   D2A13654  12.515  18.392   6.556 -0.1970  0.0555 -0.0943
 1043YOPC   C3A13655  12.246  18.238   6.833 -0.2866 -0.3364 -0.2806
 1043YOPC   C4A13656  12.310  18.423   7.193  0.0065  0.1449 -0.0077
 1043YOPC   C1B13657  12.483  17.606   6.195 -0.0997  0.1399 -0.1006
 1043YOPC   C2B13658  12.734  17.503   6.388  0.0147 -0.1694  0.2577
 1043YOPC   D3B13659  12.470  17.330   6.621 -0.0352  0.1529 -0.2871
 1043YOPC   C4B13660  12.149  17.447   6.494 -0.1287 -0.0632 -0.1271
 1044YOPC   NC313661   5.091  15.793   6.337  0.0472  0.0428  0.0191
 1044YOPC   PO413662   5.634  15.873   6.227 -0.0225 -0.3701  0.0691
 1044YOPC   GL113663   5.636  15.966   6.634  0.3174 -0.2822 -0.0983
 1044YOPC   GL213664   5.350  15.840   6.856 -0.1167 -0.2699  0.0592
 1044YOPC   C1A13665   5.799  15.829   7.038 -0.3171 -0.2462 -0.0845
 1044YOPC   D2A13666   5.768  15.713   7.549  0.2746  0.0231 -0.1258
 1044YOPC   C3A13667   5.739  15.315   7.687  0.0362 -0.2194  0.0900
 1044YOPC   C4A13668   5.778  15.078   8.047 -0.0911 -0.4117  0.0549
 1044YOPC   C1B13669   5.312  15.804   7.286  0.0012  0.3709  0.3109
 1044YOPC   C2B13670   5.262  15.459   7.575  0.2641  0.1393 -0.0031
 1044YOPC   D3B13671   5.411  15.715   7.931  0.2640 -0.1592  0.0454
 1044YOPC   C4B13672   5.513  15.873   8.260  0.0311  0.0740  0.0516
 1045YOPC   NC313673  11.063  15.652   4.295 -0.1089  0.0226  0.1917
 1045YOPC   PO413674  11.073  15.564   4.724  0.3196 -0.0294  0.0729
 1045YOPC   GL113675  10.960  15.390   5.153  0.3054 -0.0426  0.3324
 1045YOPC   GL213676  11.118  14.994   5.166  0.2426  0.2664  0.2507
 1045YOPC   C1A13677  10.983  15.443   5.515 -0.1806  0.0784 -0.2730
 1045YOPC   D2A13678  11.300  15.374   5.995 -0.2811 -0.1763  0.1284
 1045YOPC   C3A13679  11.256  15.236   6.460 -0.1104 -0.1310 -0.1193
 1045YOPC   C4A13680  11.188  15.529   6.772  0.1685 -0.0387  0.1632
 1045YOPC   C1B13681  11.314  15.020   5.536 -0.2160  0.4758 -0.1788
 1045YOPC   C2B13682  11.637  14.638   5.633 -0.0959 -0.3303 -0.1293
 1045YOPC   D3B13683  11.703  14.413   6.087 -0.2981  0.1388 -0.1696
 1045YOPC   C4B13684  11.604  14.450   6.477 -0.0031  0.1707 -0.0751
 1046YOPC   NC313685  18.639  10.441   5.646 -0.1543  0.0129  0.0915
 1046YOPC   PO413686  18.550  10.742   5.321  0.0496  0.1182  0.0752
 1046YOPC   GL113687  18.578  10.985   5.751 -0.0361 -0.1743 -0.2265
 1046YOPC   GL213688  18.452  11.316   5.865 -0.0197 -0.2565  0.0513
 1046YOPC   C1A13689  18.739  10.880   6.149 -0.0109  0.1658 -0.0764
 1046YOPC   D2A13690  18.733  10.949   6.565  0.2701 -0.0337 -0.1854
 1046YOPC   C3A13691  19.034  11.020   6.815 -0.2454  0.2573  0.1136
 1046YOPC   C4A13692  19.058  11.013   7.222  0.2769  0.0722  0.0167
 1046YOPC   C1B13693  18.444  11.241   6.323 -0.0228 -0.0462 -0.1463
 1046YOPC   C2B13694  18.549  11.326   6.729  0.1275 -0.0925  0.1434
 1046YOPC   D3B13695  18.620  11.392   7.162 -0.2482  0.3115 -0.1669
 1046YOPC   C4B13696  18.768  11.510   7.500 -0.2943 -0.1158  0.4788
 1047YOPC   NC313697   1.377  11.752   5.806 -0.1059  0.2032  0.3193
 1047YOPC   PO413698   1.812  11.660   6.067  0.0164 -0.0209 -0.2178
 1047YOPC   GL113699   1.899  11.971   6.324 -0.1548 -0.0968 -0.2697
 1047YOPC   GL213700   2.181  12.146   6.546  0.2866 -0.2221  0.1707
 1047YOPC   C1A13701   1.798  12.012   6.754 -0.2218 -0.3037 -0.2058
 1047YOPC   D2A13702   1.771  12.278   7.030  0.2460  0.1204 -0.2753
 1047YOPC   C3A13703   1.799  12.325   7.439 -0.1270  0.0502  0.4228
 1047YOPC   C4A13704   2.098  12.233   7.652 -0.2002  0.4469  0.2960
 1047YOPC   C1B13705   2.204  12.417   6.847  0.1376  0.4402  0.0579
 1047YOPC   C2B13706   2.267  12.528   7.266  0.3835  0.3022 -0.1156
 1047YOPC   D3B13707   2.291  12.803   7.647  0.1535 -0.0108  0.0670
 1047YOPC   C4B13708   2.182  12.974   8.133  0.2568  0.1850 -0.0473
 1048YOPC   NC313709  14.668  10.699   5.724  0.0896 -0.1320 -0.4728
 1048YOPC   PO413710  14.262  10.917   5.609  0.2102 -0.2404  0.0528
 1048YOPC   GL113711  14.203  11.111   5.973 -0.1394  0.0188 -0.1882
 1048YOPC   GL213712  14.565  11.052   6.071  0.1065  0.0892 -0.0567
 1048YOPC   C1A13713  14.231  10.999   6.421 -0.2148  0.0264 -0.0174
 1048YOPC   D2A13714  14.229  10.450   6.644  0.0627 -0.1742  0.2038
 1048YOPC   C3A13715  13.863  10.326   6.776  0.3216  0.2627  0.2503
 1048YOPC   C4A13716  13.542  10.399   7.102 -0.0726 -0.0869 -0.0636
 1048YOPC   C1B13717  14.509  11.411   6.197  0.0688  0.2450 -0.2441
 1048YOPC   C2B13718  14.243  11.675   6.267  0.1341 -0.0369 -0.4949
 1048YOPC   D3B13719  14.431  11.826   6.639  0.4459 -0.1501  0.0857
 1048YOPC   C4B13720  14.279  12.058   6.951  0.5826  0.1734 -0.4220
 1049YOPC   NC313721  15.253   4.358   5.507 -0.3204 -0.0536 -0.3073
 1049YOPC   PO413722  15.156   4.142   5.827 -0.0154 -0.2518  0.0163
 1049YOPC   GL113723  15.005   3.979   6.278  0.0687 -0.2304 -0.3479
 1049YOPC   GL213724  14.649   3.832   6.304 -0.0463 -0.0283 -0.1065
 1049YOPC   C1A13725  15.236   3.935   6.650  0.1801  0.1643 -0.1404
 1049YOPC   D2A13726  15.292   3.767   7.044 -0.1954 -0.0879 -0.0227
 1049YOPC   C3A13727  15.270   3.934   7.470 -0.1739  0.1161 -0.1612
 1049YOPC   C4A13728  15.262   4.349   7.608  0.3554 -0.2320  0.2522
 1049YOPC   C1B13729  14.760   3.861   6.722 -0.1080  0.1904  0.0145
 1049YOPC   C2B13730  14.761   3.975   7.080  0.0070 -0.2554  0.1019
 1049YOPC   D3B13731  15.131   4.220   7.061  0.1407 -0.2259 -0.1081
 1049YOPC   C4B13732  15.593   4.218   6.955  0.2012 -0.2511 -0.0515
 1050YOPC   NC313733  16.438  15.206   5.353 -0.0099 -0.0088  0.2493
 1050YOPC   PO413734  16.381  15.536   5.596 -0.2202 -0.0103  0.1349
 1050YOPC   GL113735  16.329  15.752   6.013  0.0206  0.3219 -0.2003
 1050YOPC   GL213736  16.559  15.986   6.153  0.1177  0.2589 -0.0364
 1050YOPC   C1A13737  15.926  15.690   6.332 -0.2363 -0.0560  0.1382
 1050YOPC   D2A13738  15.705  15.388   6.088  0.4223 -0.0472  0.2733
 1050YOPC   C3A13739  15.886  15.036   6.174 -0.2491 -0.0610 -0.1117
 1050YOPC   C4A13740  16.044  14.884   6.473  0.1439  0.0691  0.0881
 1050YOPC   C1B13741  16.396  16.009   6.598  0.2559 -0.1893 -0.0124
 1050YOPC   C2B13742  16.054  15.785   6.827  0.0825 -0.0609 -0.0823
 1050YOPC   D3B13743  16.078  15.698   7.293 -0.3039  0.1159 -0.0877
 1050YOPC   C4B13744  16.169  15.637   7.741 -0.1126  0.0014 -0.0189
 1051YOPC   NC313745   4.183   4.196   5.890 -0.0506 -0.2902  0.0502
 1051YOPC   PO413746   3.812   4.447   5.867 -0.2636 -0.0479  0.1780
 1051YOPC   GL113747   3.506   4.551   6.039 -0.2152 -0.2735  0.0846
 1051YOPC   GL213748   3.525   4.836   6.222 -0.2671 -0.0562  0.1940
 1051YOPC   C1A13749   3.413   4.485   6.541 -0.4969 -0.1753  0.0070
 1051YOPC   D2A13750   3.449   4.526   7.088 -0.3037  0.1032  0.0900
 1051YOPC   C3A13751   3.794   4.642   7.467 -0.0232 -0.0786 -0.2634
 1051YOPC   C4A13752   3.865   5.044   7.578 -0.0326  0.1743 -0.1414
 1051YOPC   C1B13753   3.775   5.176   6.456 -0.2726  0.0907  0.4068
 1051YOPC   C2B13754   3.996   5.240   6.768  0.0574  0.0349  0.0650
 1051YOPC   D3B13755   3.966   5.416   7.180  0.0915 -0.1680 -0.1882
 1051YOPC   C4B13756   3.824   5.523   7.604  0.0537 -0.0549  0.0737
 1052YOPC   NC313757  11.775  17.781   5.313 -0.0115  0.2058  0.0950
 1052YOPC   PO413758  11.749  17.457   5.548  0.1408  0.1233  0.3104
 1052YOPC   GL113759  12.009  17.496   5.879  0.1244  0.2849 -0.1452
 1052YOPC   GL213760  12.286  17.398   5.799  0.0534 -0.0907 -0.0810
 1052YOPC   C1A13761  11.779  17.590   6.269  0.0700 -0.1226  0.0590
 1052YOPC   D2A13762  11.666  17.482   6.809 -0.2759 -0.0561  0.3047
 1052YOPC   C3A13763  11.556  17.160   7.192 -0.0165 -0.4931  0.3564
 1052YOPC   C4A13764  11.863  16.926   7.391 -0.0011  0.0037  0.2259
 1052YOPC   C1B13765  12.437  17.126   6.096 -0.0334  0.1925  0.2871
 1052YOPC   C2B13766  12.732  16.999   6.363 -0.2456 -0.1231 -0.1477
 1052YOPC   D3B13767  12.456  16.700   6.585 -0.2161  0.1124 -0.2134
 1052YOPC   C4B13768  12.393  16.327   6.781 -0.1798 -0.1832  0.2859
 1053YOPC   NC313769   7.545   0.014   6.078  0.0821 -0.1372  0.3150
 1053YOPC   PO413770   7.225  -0.214   6.167  0.1664  0.1017  0.1773
 1053YOPC   GL113771   7.344  -0.296   6.612  0.0531 -0.2301 -0.0234
 1053YOPC   GL213772   7.382   0.016   6.618  0.0394 -0.4389  0.0095
 1053YOPC   C1A13773   7.384  -0.437   7.134  0.0247  0.0120 -0.0732
 1053YOPC   D2A13774   7.491  -0.762   7.440  0.0039 -0.0689  0.0108
 1053YOPC   C3A13775   7.356  -0.831   7.906 -0.0439  0.0212  0.2618
 1053YOPC   C4A13776   7.301  -0.736   8.266 -0.2136  0.0662  0.1871
 1053YOPC   C1B13777   7.144   0.035   7.039  0.0750 -0.2149 -0.0699
 1053YOPC   C2B13778   7.028   0.361   7.288  0.1188  0.0384  0.3695
 1053YOPC   D3B13779   6.636   0.328   7.512  0.1520  0.1428 -0.0262
 1053YOPC   C4B13780   6.273   0.358   7.302 -0.1856 -0.1238  0.3539
 1054YOPC   NC313781  15.820   5.332   5.688 -0.2921  0.0092  0.2219
 1054YOPC   PO413782  16.207   5.510   5.636 -0.0953  0.2957 -0.0165
 1054YOPC   GL113783  16.197   5.579   6.082 -0.4141 -0.2206 -0.2531
 1054YOPC   GL213784  16.408   5.809   6.117  0.3740  0.1615  0.3776
 1054YOPC   C1A13785  16.033   5.752   6.509  0.5388  0.1499  0.1360
 1054YOPC   D2A13786  16.200   5.679   6.883  0.0075  0.0940  0.0690
 1054YOPC   C3A13787  16.480   5.274   6.901 -0.1036 -0.0899  0.2098
 1054YOPC   C4A13788  16.543   4.951   7.218  0.2412  0.0341  0.0423
 1054YOPC   C1B13789  16.571   5.782   6.575  0.1596 -0.0103  0.2831
 1054YOPC   C2B13790  16.674   5.721   7.086  0.3240 -0.0164 -0.0589
 1054YOPC   D3B13791  16.522   5.867   7.424  0.2146 -0.3267 -0.2116
 1054YOPC   C4B13792  16.152   5.730   7.783  0.1698 -0.1250  0.2160
 1055YOPC   NC313793   7.380   3.841   6.086  0.0560 -0.1022  0.0427
 1055YOPC   PO413794   7.102   3.983   6.359  0.3796  0.0264  0.0971
 1055YOPC   GL113795   7.268   4.228   6.609  0.1741  0.2003 -0.1458
 1055YOPC   GL213796   7.160   4.210   6.885  0.2486  0.0795  0.2405
 1055YOPC   C1A13797   7.701   4.260   6.878 -0.1902 -0.0595 -0.0166
 1055YOPC   D2A13798   7.946   3.932   7.125 -0.1207 -0.0788 -0.2517
 1055YOPC   C3A13799   8.001   4.038   7.628  0.2619 -0.2113 -0.1026
 1055YOPC   C4A13800   8.158   4.052   8.053  0.0028 -0.3971 -0.0731
 1055YOPC   C1B13801   7.327   4.238   7.161 -0.3234  0.0045 -0.2963
 1055YOPC   C2B13802   7.699   4.440   7.324  0.1305 -0.2775  0.1706
 1055YOPC   D3B13803   7.595   4.445   7.752  0.1157 -0.0277 -0.0103
 1055YOPC   C4B13804   7.711   4.282   8.108 -0.2181  0.2459 -0.1188
 1056YOPC   NC313805   4.835   6.776   5.846 -0.1130 -0.0908 -0.5033
 1056YOPC   PO413806   5.177   6.526   5.933 -0.1539  0.1035  0.2347
 1056YOPC   GL113807   5.277   6.314   6.237  0.0209 -0.3743  0.1877
 1056YOPC   GL213808   5.423   6.092   6.173 -0.1429 -0.0415 -0.0916
 1056YOPC   C1A13809   5.187   6.275   6.661 -0.1749 -0.0282  0.2727
 1056YOPC   D2A13810   5.426   6.363   7.048 -0.0539  0.0919  0.1997
 1056YOPC   C3A13811   5.892   6.350   6.913 -0.0062  0.1870  0.3293
 1056YOPC   C4A13812   6.331   6.477   7.244  0.1204  0.2176  0.0834
 1056YOPC   C1B13813   5.481   5.878   6.589  0.0445 -0.1589 -0.0575
 1056YOPC   C2B13814   5.798   5.793   6.887 -0.1065  0.1286  0.0575
 1056YOPC   D3B13815   5.951   6.058   7.312 -0.4601  0.0182 -0.0796
 1056YOPC   C4B13816   6.047   5.975   7.705 -0.0106 -0.3372  0.2168
 1057YOPC   NC313817   7.965   7.112   5.268 -0.4044 -0.3975 -0.1088
 1057YOPC   PO413818   8.242   7.410   5.444  0.1782  0.2687 -0.1125
 1057YOPC   GL113819   8.436   7.504   5.854 -0.0135  0.0685  0.3417
 1057YOPC   GL213820   8.211   7.433   6.038 -0.0668 -0.1229  0.3885
 1057YOPC   C1A13821   8.708   7.571   6.244 -0.0286  0.1532 -0.0238
 1057YOPC   D2A13822   8.686   7.470   6.656 -0.3259 -0.2088 -0.0029
 1057YOPC   C3A13823   8.838   7.794   6.900 -0.1112  0.2296 -0.0566
 1057YOPC   C4A13824   9.083   7.898   7.205  0.0344 -0.4013 -0.0406
 1057YOPC   C1B13825   8.282   7.320   6.401 -0.1901 -0.2047  0.1139
 1057YOPC   C2B13826   8.307   7.173   6.822  0.0089  0.1967  0.0596
 1057YOPC   D3B13827   8.729   7.110   7.040 -0.2706  0.2467  0.2398
 1057YOPC   C4B13828   9.002   7.186   7.289 -0.1453  0.1288 -0.1323
 1058YOPC   NC313829   4.241   3.157   5.294 -0.3052 -0.3318  0.1057
 1058YOPC   PO413830   3.929   3.122   5.639  0.0810 -0.2247 -0.0590
 1058YOPC   GL113831   3.727   3.310   6.079 -0.2466 -0.1280 -0.1489
 1058YOPC   GL213832   3.410   3.499   6.206 -0.2747  0.0011 -0.0240
 1058YOPC   C1A13833   3.763   3.033   6.421  0.0576 -0.2440  0.0538
 1058YOPC   D2A13834   3.812   2.855   6.778  0.2657 -0.0756  0.2478
 1058YOPC   C3A13835   3.525   2.875   6.995 -0.0576  0.3025  0.0377
 1058YOPC   C4A13836   3.585   2.881   7.361  0.2360 -0.1492 -0.3922
 1058YOPC   C1B13837   3.455   3.431   6.738  0.0375 -0.0978  0.1877
 1058YOPC   C2B13838   3.331   3.426   7.113  0.2202 -0.0153  0.1189
 1058YOPC   D3B13839   3.070   3.615   7.292 -0.1961  0.0140 -0.3198
 1058YOPC   C4B13840   2.872   3.868   7.583 -0.0474  0.0911 -0.1993
 1059YOPC   NC313841   6.686  17.722   5.483 -0.1050 -0.0578  0.2665
 1059YOPC   PO413842   6.780  17.755   5.929  0.1488 -0.1079  0.0265
 1059YOPC   GL113843   6.560  17.455   6.355  0.2148 -0.5270  0.2488
 1059YOPC   GL213844   6.261  17.402   6.335  0.0773  0.2690  0.2152
 1059YOPC   C1A13845   6.530  17.321   6.825  0.1685  0.1143 -0.0772
 1059YOPC   D2A13846   6.720  17.342   7.301  0.0536  0.2658 -0.2970
 1059YOPC   C3A13847   6.492  17.288   7.652 -0.0763  0.1525 -0.3343
 1059YOPC   C4A13848   6.429  17.021   8.103  0.0121 -0.0156 -0.0754
 1059YOPC   C1B13849   6.120  17.809   6.589 -0.1905 -0.3032  0.1914
 1059YOPC   C2B13850   5.834  18.057   6.912  0.0916  0.1115  0.1438
 1059YOPC   D3B13851   5.724  18.373   6.711  0.1766 -0.0571 -0.1336
 1059YOPC   C4B13852   5.443  18.664   6.850  0.0857  0.1435 -0.0951
 1060YOPC   NC313853  11.818   1.618   5.950  0.2717 -0.0209  0.2211
 1060YOPC   PO413854  11.417   1.817   5.625 -0.1119 -0.0270 -0.0944
 1060YOPC   GL113855  11.311   1.929   6.012 -0.3151  0.1421  0.0805
 1060YOPC   GL213856  11.541   1.932   6.168  0.0005 -0.2051 -0.1705
 1060YOPC   C1A13857  11.172   1.825   6.497  0.3232  0.0038 -0.2953
 1060YOPC   D2A13858  11.557   1.807   6.695 -0.1576 -0.1298 -0.2945
 1060YOPC   C3A13859  11.644   1.597   6.987 -0.1116 -0.1219 -0.0687
 1060YOPC   C4A13860  11.704   1.599   7.400  0.3600  0.2868 -0.3341
 1060YOPC   C1B13861  11.855   2.105   6.461  0.1489  0.1045 -0.0491
 1060YOPC   C2B13862  11.882   2.328   6.971 -0.1965 -0.2172  0.3428
 1060YOPC   D3B13863  11.626   2.172   7.262 -0.0589  0.2199 -0.2978
 1060YOPC   C4B13864  11.682   2.056   7.688 -0.2072  0.0847 -0.0972
 1061YOPC   NC313865   9.107   3.743   6.108 -0.1140 -0.0749  0.0482
 1061YOPC   PO413866   9.532   3.796   6.151 -0.2697 -0.4689 -0.1531
 1061YOPC   GL113867   9.328   3.847   6.553  0.2222  0.1188  0.3815
 1061YOPC   GL213868   8.999   3.754   6.580  0.0671 -0.2436 -0.3503
 1061YOPC   C1A13869   9.370   3.881   7.073 -0.0054  0.7229  0.0068
 1061YOPC   D2A13870   9.282   3.546   7.427  0.1135 -0.5168  0.0490
 1061YOPC   C3A13871   8.956   3.255   7.205  0.0330 -0.1628  0.3845
 1061YOPC   C4A13872   8.714   3.133   6.819 -0.0934  0.0093  0.1693
 1061YOPC   C1B13873   8.898   3.767   7.076 -0.0495  0.0781 -0.1020
 1061YOPC   C2B13874   8.790   3.598   7.506  0.0492  0.1861 -0.0143
 1061YOPC   D3B13875   8.613   3.783   7.909 -0.0410  0.2274 -0.0064
 1061YOPC   C4B13876   8.629   4.143   8.162 -0.1494 -0.2564  0.0618
 1062YOPC   NC313877   8.487  15.358   5.821  0.0536 -0.0972 -0.0591
 1062YOPC   PO413878   8.430  14.878   5.787 -0.1874 -0.0747  0.1936
 1062YOPC   GL113879   8.463  14.852   6.209  0.1367 -0.0373  0.2005
 1062YOPC   GL213880   8.622  14.498   6.219 -0.0808  0.1629 -0.0578
 1062YOPC   C1A13881   8.479  14.972   6.656 -0.3218  0.3127  0.1470
 1062YOPC   D2A13882   8.497  14.922   7.103 -0.2529  0.2183  0.1552
 1062YOPC   C3A13883   8.253  14.737   7.443  0.0949  0.0584 -0.0050
 1062YOPC   C4A13884   8.265  14.362   7.586 -0.0749 -0.0734 -0.1304
 1062YOPC   C1B13885   8.743  14.534   6.587 -0.0612 -0.0181 -0.1077
 1062YOPC   C2B13886   8.911  14.766   6.957 -0.0202  0.3769 -0.5218
 1062YOPC   D3B13887   9.032  14.829   7.215 -0.1543 -0.3415 -0.3629
 1062YOPC   C4B13888   9.320  14.873   7.614 -0.3734 -0.0219  0.2295
 1063YOPC   NC313889   8.286   2.152   6.427 -0.0671 -0.0076 -0.0309
 1063YOPC   PO413890   8.716   2.311   6.410 -0.0289 -0.3587 -0.0806
 1063YOPC   GL113891   8.599   2.067   6.781 -0.2083  0.0091  0.0228
 1063YOPC   GL213892   8.569   1.785   6.539 -0.0083  0.2004  0.3131
 1063YOPC   C1A13893   8.574   1.952   7.237 -0.1631 -0.2307  0.1740
 1063YOPC   D2A13894   8.317   2.023   7.565  0.2235  0.1659 -0.1783
 1063YOPC   C3A13895   8.076   1.880   7.392 -0.1485  0.0288 -0.1188
 1063YOPC   C4A13896   7.863   1.931   6.922  0.1990  0.0568  0.1274
 1063YOPC   C1B13897   8.288   1.664   6.867 -0.2353  0.1597 -0.0109
 1063YOPC   C2B13898   8.125   1.321   6.991 -0.0546  0.1646  0.0219
 1063YOPC   D3B13899   8.040   1.365   7.468 -0.0260 -0.1880  0.1170
 1063YOPC   C4B13900   8.320   1.181   7.699  0.1139 -0.0818 -0.1960
 1064YOPC   NC313901  18.526   0.532   5.801 -0.0402  0.0522 -0.1451
 1064YOPC   PO413902  18.844   0.676   5.940  0.1156 -0.0616 -0.0134
 1064YOPC   GL113903  18.768   0.924   6.295  0.0601  0.1200  0.0640
 1064YOPC   GL213904  19.082   0.925   6.335 -0.2838 -0.2118 -0.0002
 1064YOPC   C1A13905  18.793   0.891   6.778 -0.0037  0.1954  0.2461
 1064YOPC   D2A13906  18.811   0.633   7.114  0.3104  0.1858 -0.3310
 1064YOPC   C3A13907  18.711   0.813   7.472  0.1826  0.4245 -0.2776
 1064YOPC   C4A13908  18.652   1.023   7.771  0.3801  0.0191 -0.2211
 1064YOPC   C1B13909  19.261   0.640   6.604 -0.1273  0.0156 -0.0858
 1064YOPC   C2B13910  19.253   0.797   7.017 -0.2073 -0.0554  0.0573
 1064YOPC   D3B13911  19.135   0.435   7.377  0.0077 -0.0681  0.1690
 1064YOPC   C4B13912  19.232   0.287   7.836 -0.2857  0.1824 -0.0975
 1065YOPC   NC313913  12.596  17.314   5.485  0.3042 -0.1691 -0.0844
 1065YOPC   PO413914  12.860  17.632   5.364 -0.4196  0.0002 -0.1904
 1065YOPC   GL113915  13.156  17.559   5.736  0.4057 -0.1192  0.0221
 1065YOPC   GL213916  13.198  17.780   5.882 -0.1550 -0.1367  0.0733
 1065YOPC   C1A13917  13.007  17.282   6.065  0.3805 -0.1917  0.1139
 1065YOPC   D2A13918  13.164  17.256   6.521 -0.5349 -0.2661  0.1156
 1065YOPC   C3A13919  13.330  16.868   6.710 -0.0397  0.0215 -0.0045
 1065YOPC   C4A13920  13.726  16.687   6.854 -0.0375  0.0937  0.0700
 1065YOPC   C1B13921  13.200  17.779   6.295 -0.4208 -0.2666 -0.3426
 1065YOPC   C2B13922  13.184  17.755   6.697  0.2663  0.1177 -0.0308
 1065YOPC   D3B13923  12.868  17.458   6.885  0.1288 -0.4695  0.1822
 1065YOPC   C4B13924  12.859  16.978   6.839 -0.0115  0.0490  0.1494
 1066YOPC   NC313925   1.843  16.582   5.891 -0.5172  0.2722  0.0846
 1066YOPC   PO413926   2.114  16.894   5.822 -0.0903  0.1575  0.0333
 1066YOPC   GL113927   2.042  17.009   6.173  0.2895 -0.2329 -0.1338
 1066YOPC   GL213928   1.915  16.762   6.415  0.0686  0.2045  0.0190
 1066YOPC   C1A13929   2.348  17.117   6.550 -0.4107 -0.0340 -0.1292
 1066YOPC   D2A13930   2.223  17.218   6.990  0.0947 -0.1577  0.3542
 1066YOPC   C3A13931   2.452  17.179   7.409 -0.0912  0.0936 -0.0832
 1066YOPC   C4A13932   2.615  16.833   7.572 -0.0079  0.0506 -0.2380
 1066YOPC   C1B13933   2.100  16.763   6.735  0.1792  0.0857  0.0096
 1066YOPC   C2B13934   2.301  16.681   7.148  0.2358 -0.0460 -0.0053
 1066YOPC   D3B13935   2.013  16.877   7.504  0.1018 -0.0713  0.1164
 1066YOPC   C4B13936   1.835  16.687   7.903  0.1260 -0.3185  0.1022
 1067YOPC   NC313937  17.980   8.708   5.851 -0.0167  0.1177  0.3242
 1067YOPC   PO413938  18.245   9.019   5.758  0.2159 -0.2856  0.0546
 1067YOPC   GL113939  18.326   8.686   6.218  0.0242 -0.2882  0.0566
 1067YOPC   GL213940  18.389   8.867   6.319  0.1932 -0.2302  0.1389
 1067YOPC   C1A13941  18.271   8.383   6.470 -0.1266 -0.3070 -0.1254
 1067YOPC   D2A13942  18.212   8.330   6.885 -0.0298  0.2087 -0.0617
 1067YOPC   C3A13943  18.466   8.324   7.227  0.0893  0.1537  0.3105
 1067YOPC   C4A13944  18.811   8.061   7.361 -0.1236 -0.0463 -0.0459
 1067YOPC   C1B13945  18.399   8.746   6.799 -0.0765 -0.0492  0.2083
 1067YOPC   C2B13946  18.178   8.689   7.303  0.2187 -0.0686  0.1211
 1067YOPC   D3B13947  17.863   8.784   7.528 -0.4348 -0.2343 -0.1235
 1067YOPC   C4B13948  17.661   9.201   7.644 -0.3086  0.1091 -0.0754
 1068YOPC   NC313949   6.637  15.834   6.032  0.0470 -0.0178 -0.0962
 1068YOPC   PO413950   6.696  15.399   5.927 -0.1468  0.1216  0.1865
 1068YOPC   GL113951   6.633  15.080   6.221 -0.1357  0.0800 -0.0405
 1068YOPC   GL213952   6.289  15.144   6.340  0.0698  0.2032 -0.0701
 1068YOPC   C1A13953   7.007  15.145   6.520  0.0636 -0.2874 -0.1237
 1068YOPC   D2A13954   7.089  15.206   6.930  0.0157  0.0937 -0.2201
 1068YOPC   C3A13955   7.021  14.879   7.196 -0.0294 -0.2446 -0.0516
 1068YOPC   C4A13956   6.963  14.808   7.617 -0.2861  0.1775  0.0044
 1068YOPC   C1B13957   6.143  14.825   6.488 -0.1716  0.6733 -0.2153
 1068YOPC   C2B13958   5.796  14.533   6.526 -0.4446 -0.1202 -0.1185
 1068YOPC   D3B13959   5.830  14.319   6.879 -0.1204  0.1363  0.3394
 1068YOPC   C4B13960   5.992  14.042   7.131  0.0316  0.0273  0.1545
 1069YOPC   NC313961  17.453   8.320   5.269 -0.0599  0.0976 -0.0109
 1069YOPC   PO413962  17.566   8.382   5.664 -0.0628 -0.4143  0.3863
 1069YOPC   GL113963  17.551   8.122   5.925  0.1778  0.1691 -0.0969
 1069YOPC   GL213964  17.785   8.350   6.164  0.0903  0.1245 -0.0640
 1069YOPC   C1A13965  17.469   7.969   6.256  0.0772 -0.1164  0.1581
 1069YOPC   D2A13966  17.062   8.009   6.579  0.4590  0.1338  0.0439
 1069YOPC   C3A13967  16.706   7.864   6.450 -0.1110 -0.0836  0.2252
 1069YOPC   C4A13968  16.231   7.739   6.409 -0.0483  0.2062 -0.0791
 1069YOPC   C1B13969  17.420   8.430   6.482  0.0798  0.0242  0.0090
 1069YOPC   C2B13970  17.340   8.446   6.964  0.2637 -0.0946  0.2135
 1069YOPC   D3B13971  17.211   8.273   7.294  0.1982  0.1561 -0.0972
 1069YOPC   C4B13972  16.995   7.968   7.622  0.0737 -0.0672 -0.0888
 1070YOPC   NC313973   8.223  12.296   5.509 -0.3870  0.0936  0.1694
 1070YOPC   PO413974   8.583  12.432   5.760  0.1186 -0.1734  0.0906
 1070YOPC   GL113975   8.529  12.514   6.098 -0.2075 -0.1469 -0.3165
 1070YOPC   GL213976   8.265  12.561   6.164 -0.2315 -0.0843 -0.0212
 1070YOPC   C1A13977   8.339  12.422   6.605 -0.0666 -0.2762  0.1058
 1070YOPC   D2A13978   8.212  12.595   6.928 -0.1446  0.1770  0.0753
 1070YOPC   C3A13979   8.120  12.416   7.322  0.0459  0.2484 -0.0790
 1070YOPC   C4A13980   8.267  12.268   7.584  0.2196  0.0593 -0.1743
 1070YOPC   C1B13981   7.939  12.731   6.481  0.2988 -0.3658  0.0048
 1070YOPC   C2B13982   7.803  12.865   6.901 -0.0223  0.2595 -0.2511
 1070YOPC   D3B13983   8.072  12.906   7.227 -0.2308  0.1557  0.0525
 1070YOPC   C4B13984   8.350  12.764   7.615 -0.2384  0.0305  0.0743
 1071YOPC   NC313985   4.633   5.030   4.928 -0.0196  0.0936  0.3259
 1071YOPC   PO413986   4.531   5.093   5.329  0.3318  0.1989 -0.3365
 1071YOPC   GL113987   4.381   5.115   5.852  0.1130  0.3311  0.0624
 1071YOPC   GL213988   4.371   4.730   6.020 -0.1188 -0.2361  0.1105
 1071YOPC   C1A13989   4.674   5.228   6.120 -0.0691 -0.1212 -0.0832
 1071YOPC   D2A13990   4.656   5.526   6.494 -0.2565 -0.1613 -0.2054
 1071YOPC   C3A13991   4.390   5.505   6.867  0.2509  0.0094  0.4308
 1071YOPC   C4A13992   4.410   5.603   7.290  0.0856  0.2802  0.1321
 1071YOPC   C1B13993   4.686   4.804   6.330  0.1636 -0.0508 -0.0275
 1071YOPC   C2B13994   4.714   4.952   6.720  0.1790 -0.1136  0.1093
 1071YOPC   D3B13995   4.782   4.817   7.092 -0.4050  0.0030  0.1900
 1071YOPC   C4B13996   4.684   4.633   7.476  0.1798  0.2130  0.1158
 1072YOPC   NC313997   4.246   3.518   5.755 -0.0714  0.0124 -0.3146
 1072YOPC   PO413998   3.959   3.844   5.580  0.1244  0.0134  0.1782
 1072YOPC   GL113999   3.857   3.834   6.026 -0.2112  0.0709 -0.2451
 1072YOPC   GL214000   3.835   4.135   6.214  0.0568  0.1847  0.1279
 1072YOPC   C1A14001   3.811   3.657   6.426 -0.2963 -0.0633 -0.1233
 1072YOPC   D2A14002   3.840   3.740   6.853 -0.1179  0.7259 -0.3038
 1072YOPC   C3A14003   4.213   3.908   6.992 -0.2376 -0.1825  0.0613
 1072YOPC   C4A14004   4.581   3.943   6.843 -0.0733 -0.2071 -0.0933
 1072YOPC   C1B14005   3.917   4.213   6.713 -0.1294 -0.0175 -0.2379
 1072YOPC   C2B14006   3.839   4.258   7.203  0.0515 -0.1378  0.0598
 1072YOPC   D3B14007   3.337   4.314   7.528 -0.0079 -0.2571  0.0815
 1072YOPC   C4B14008   3.012   4.618   7.510  0.0937 -0.0102  0.0344
 1073YOPC   NC314009   2.106  18.129   6.161 -0.2659  0.1354  0.3875
 1073YOPC   PO414010   1.796  17.839   6.050  0.0445 -0.0715 -0.1186
 1073YOPC   GL114011   1.944  17.833   6.562  0.2102  0.1721 -0.1552
 1073YOPC   GL214012   1.685  18.088   6.579  0.0691 -0.0019 -0.3428
 1073YOPC   C1A14013   1.702  17.610   6.968 -0.2633  0.0370 -0.0597
 1073YOPC   D2A14014   1.499  17.669   7.315 -0.1844  0.1826 -0.0930
 1073YOPC   C3A14015   1.445  18.041   7.545 -0.2903  0.0502 -0.0967
 1073YOPC   C4A14016   1.580  18.525   7.568 -0.0989 -0.3104 -0.2772
 1073YOPC   C1B14017   1.512  18.174   6.993  0.0088  0.1703 -0.2440
 1073YOPC   C2B14018   1.196  18.414   7.252 -0.0184  0.0116  0.0862
 1073YOPC   D3B14019   0.695  18.579   7.171  0.1405 -0.1984 -0.3837
 1073YOPC   C4B14020   0.406  18.575   7.432 -0.2102 -0.0702  0.2325
 1074YOPC   NC314021  18.267  13.541   5.043  0.1718  0.3320  0.3895
 1074YOPC   PO414022  18.112  13.881   5.380 -0.1032 -0.3869  0.2732
 1074YOPC   GL114023  18.319  13.824   5.822 -0.3153  0.2295  0.0025
 1074YOPC   GL214024  18.117  13.545   6.019  0.2921  0.0499  0.2240
 1074YOPC   C1A14025  18.426  13.814   6.271 -0.1223  0.0192 -0.0463
 1074YOPC   D2A14026  18.322  13.728   6.784  0.1866 -0.0108 -0.0807
 1074YOPC   C3A14027  18.306  13.675   7.229 -0.2941 -0.1115 -0.2116
 1074YOPC   C4A14028  18.721  13.610   7.444  0.1360 -0.1575 -0.2286
 1074YOPC   C1B14029  17.922  13.761   6.327  0.0271  0.1882 -0.0638
 1074YOPC   C2B14030  18.001  14.136   6.636 -0.1259  0.2507 -0.1520
 1074YOPC   D3B14031  18.027  14.242   7.063  0.0860 -0.0924  0.0011
 1074YOPC   C4B14032  17.986  14.070   7.484 -0.2497 -0.2034 -0.2699
 1075YOPC   NC314033   4.604   9.577   5.885 -0.0331 -0.0860  0.1249
 1075YOPC   PO414034   4.847   9.920   6.070 -0.0307  0.1828  0.3804
 1075YOPC   GL114035   4.740   9.922   6.503  0.0228 -0.1758 -0.2001
 1075YOPC   GL214036   4.562  10.107   6.568  0.3222 -0.0690  0.2318
 1075YOPC   C1A14037   4.762   9.851   6.941 -0.0607 -0.1781 -0.0677
 1075YOPC   D2A14038   4.806  10.043   7.346  0.0473 -0.0385  0.0844
 1075YOPC   C3A14039   4.995   9.961   7.675 -0.4427 -0.1497 -0.1956
 1075YOPC   C4A14040   5.108  10.176   8.106  0.0178 -0.0689  0.1065
 1075YOPC   C1B14041   4.999  10.314   6.907  0.0700 -0.0538 -0.1109
 1075YOPC   C2B14042   4.971  10.494   7.275  0.1888  0.4538  0.0447
 1075YOPC   D3B14043   4.696  10.532   7.587  0.0874 -0.0556 -0.3402
 1075YOPC   C4B14044   4.420  10.674   7.885  0.4367  0.1346 -0.1468
 1076YOPC   NC314045  14.605  12.496   5.353 -0.0958 -0.0399 -0.1216
 1076YOPC   PO414046  14.238  12.541   5.576  0.1888  0.0683  0.0482
 1076YOPC   GL114047  14.102  12.449   5.945  0.0710 -0.1186 -0.1095
 1076YOPC   GL214048  13.840  12.572   5.954 -0.1019 -0.1488 -0.0180
 1076YOPC   C1A14049  13.958  12.182   6.143  0.1197  0.2640 -0.3603
 1076YOPC   D2A14050  14.079  12.240   6.567 -0.1275 -0.0151 -0.2410
 1076YOPC   C3A14051  13.773  12.200   6.883 -0.3721  0.1941 -0.2510
 1076YOPC   C4A14052  13.379  12.397   7.090 -0.2956  0.4278 -0.1996
 1076YOPC   C1B14053  13.607  12.541   6.475 -0.0194  0.0196  0.2919
 1076YOPC   C2B14054  13.401  12.728   6.759  0.2108 -0.1132  0.2415
 1076YOPC   D3B14055  12.968  12.769   6.924  0.0091 -0.3012  0.0501
 1076YOPC   C4B14056  12.647  13.076   6.902  0.3235  0.0011  0.0947
 1077YOPC   NC314057   2.016   9.508   5.634  0.0099  0.1032  0.1754
 1077YOPC   PO414058   2.443   9.552   5.421  0.3237 -0.0314  0.2662
 1077YOPC   GL114059   2.512   9.520   5.894  0.1328  0.3641 -0.3784
 1077YOPC   GL214060   2.784   9.674   6.031 -0.1076 -0.2503  0.0067
 1077YOPC   C1A14061   2.357   9.425   6.289  0.0852 -0.2331 -0.2578
 1077YOPC   D2A14062   2.266   9.289   6.628 -0.0176 -0.0437 -0.3676
 1077YOPC   C3A14063   1.922   9.587   6.826  0.1076  0.0741  0.1022
 1077YOPC   C4A14064   1.727   9.968   6.878  0.0116  0.0267  0.2175
 1077YOPC   C1B14065   2.605   9.832   6.467  0.2239  0.1981  0.1531
 1077YOPC   C2B14066   2.411   9.750   6.761  0.4651  0.0981 -0.1653
 1077YOPC   D3B14067   2.305   9.426   7.143 -0.3692 -0.0308  0.2385
 1077YOPC   C4B14068   2.379   9.202   7.487  0.0908 -0.0682  0.0304
 1078YOPC   NC314069  15.279   9.186   5.632 -0.4127  0.0427  0.0304
 1078YOPC   PO414070  15.005   9.561   5.691  0.2753  0.1836  0.2363
 1078YOPC   GL114071  14.939   9.397   6.144  0.2654 -0.1132 -0.1172
 1078YOPC   GL214072  15.185   9.366   6.308  0.1052  0.0841  0.0012
 1078YOPC   C1A14073  14.676   9.327   6.525 -0.3128  0.0667 -0.1247
 1078YOPC   D2A14074  14.357   9.156   6.809  0.1205  0.0570 -0.0746
 1078YOPC   C3A14075  14.346   9.182   7.305  0.0979  0.1258  0.0680
 1078YOPC   C4A14076  14.534   9.340   7.716  0.3001 -0.2682  0.0056
 1078YOPC   C1B14077  15.159   9.167   6.576  0.0434 -0.1795  0.1225
 1078YOPC   C2B14078  14.896   9.108   6.963 -0.2732 -0.1883 -0.3012
 1078YOPC   D3B14079  14.865   9.432   7.235 -0.2553 -0.2264  0.0963
 1078YOPC   C4B14080  14.932   9.550   7.590  0.0180  0.1508  0.3000
 1079YOPC   NC314081  17.724   6.442   5.893  0.2591 -0.0545  0.1913
 1079YOPC   PO414082  17.399   6.093   5.836 -0.2580  0.0889 -0.0320
 1079YOPC   GL114083  17.457   6.084   6.194 -0.0614 -0.2324  0.2869
 1079YOPC   GL214084  17.668   6.426   6.399 -0.1638 -0.1696  0.2393
 1079YOPC   C1A14085  17.571   5.926   6.563  0.0365 -0.0634 -0.2943
 1079YOPC   D2A14086  17.615   5.640   6.886  0.1487  0.1788  0.4109
 1079YOPC   C3A14087  18.007   5.371   6.883  0.0233 -0.0066 -0.1898
 1079YOPC   C4A14088  18.264   5.090   7.164  0.3317  0.2920  0.0439
 1079YOPC   C1B14089  17.234   6.509   6.713  0.0440 -0.1110 -0.1797
 1079YOPC   C2B14090  16.925   6.598   6.854  0.1654  0.2522  0.3585
 1079YOPC   D3B14091  16.625   6.661   7.109 -0.0349  0.1816  0.3701
 1079YOPC   C4B14092  16.686   6.535   7.513  0.2896 -0.1011 -0.0282
 1080YOPC   NC314093  16.116  11.430   5.610 -0.2907 -0.1831 -0.0550
 1080YOPC   PO414094  15.679  11.308   5.741  0.1393 -0.1973  0.2464
 1080YOPC   GL114095  15.912  11.402   6.089 -0.0584 -0.3572 -0.2490
 1080YOPC   GL214096  16.163  11.354   6.237 -0.0354 -0.3142 -0.3364
 1080YOPC   C1A14097  15.826  11.610   6.488  0.2319 -0.0197 -0.1746
 1080YOPC   D2A14098  15.866  11.886   6.889  0.0686  0.3034 -0.0275
 1080YOPC   C3A14099  16.087  11.840   7.143  0.2476 -0.1794  0.0506
 1080YOPC   C4A14100  16.054  11.832   7.578 -0.2079 -0.1883 -0.0671
 1080YOPC   C1B14101  16.556  11.407   6.518  0.2954  0.0224  0.2137
 1080YOPC   C2B14102  16.973  11.576   6.609  0.0563 -0.1016  0.1278
 1080YOPC   D3B14103  17.181  11.523   6.981  0.0119 -0.1131  0.1652
 1080YOPC   C4B14104  17.640  11.343   6.932 -0.0771  0.1073 -0.1104
 1081YOPC   NC314105  17.994   1.516   5.241  0.1732  0.2714 -0.0936
 1081YOPC   PO414106  17.594   1.341   5.117 -0.3940  0.0838  0.0458
 1081YOPC   GL114107  17.471   1.436   5.452  0.0525  0.0933  0.3023
 1081YOPC   GL214108  17.270   1.308   5.640  0.0825  0.4372  0.5008
 1081YOPC   C1A14109  17.701   1.720   5.801 -0.1451 -0.2275 -0.1950
 1081YOPC   D2A14110  17.632   1.905   6.252  0.1882 -0.0140 -0.0673
 1081YOPC   C3A14111  17.993   1.862   6.632  0.0288  0.2455  0.1045
 1081YOPC   C4A14112  18.207   1.646   6.969  0.1546  0.0082  0.2130
 1081YOPC   C1B14113  17.250   1.672   5.936  0.2560 -0.1698  0.2488
 1081YOPC   C2B14114  17.100   2.017   6.101  0.0060 -0.2942 -0.1242
 1081YOPC   D3B14115  17.280   2.133   6.525  0.0588 -0.0581  0.0652
 1081YOPC   C4B14116  17.488   1.977   6.808  0.1892  0.1156 -0.4459
 1082YOPC   NC314117   6.381  10.746   5.370  0.0223  0.3021  0.1642
 1082YOPC   PO414118   6.585  11.037   5.665  0.1853 -0.1728  0.1905
 1082YOPC   GL114119   6.889  10.883   6.018  0.0182  0.0614  0.3626
 1082YOPC   GL214120   6.976  10.542   6.091 -0.2077  0.1472  0.0705
 1082YOPC   C1A14121   7.131  11.080   6.379  0.0422 -0.1762  0.4930
 1082YOPC   D2A14122   7.216  10.783   6.683  0.0760 -0.1046  0.1886
 1082YOPC   C3A14123   7.476  10.903   6.934 -0.3837  0.2126 -0.4062
 1082YOPC   C4A14124   7.650  11.202   7.358  0.2865 -0.2620 -0.4246
 1082YOPC   C1B14125   7.241  10.390   6.399 -0.2503  0.0418  0.1812
 1082YOPC   C2B14126   7.416  10.262   6.715 -0.0017 -0.0218 -0.5361
 1082YOPC   D3B14127   7.481  10.410   7.021 -0.1148 -0.0798  0.1274
 1082YOPC   C4B14128   7.666  10.532   7.416 -0.0623  0.2361 -0.1140
 1083YOPC   NC314129   3.552   7.229   5.617 -0.0343  0.1477  0.2200
 1083YOPC   PO414130   3.529   6.812   5.765  0.3086  0.2979 -0.1009
 1083YOPC   GL114131   3.532   7.038   6.097 -0.1628 -0.2018 -0.0829
 1083YOPC   GL214132   3.665   6.912   6.290 -0.1452 -0.1853  0.2160
 1083YOPC   C1A14133   3.312   7.255   6.259 -0.3174 -0.1557 -0.1887
 1083YOPC   D2A14134   2.874   7.017   6.455 -0.0421  0.1009 -0.2243
 1083YOPC   C3A14135   3.011   6.717   6.678 -0.0936 -0.0336  0.2120
 1083YOPC   C4A14136   3.275   6.671   7.020 -0.1152  0.1594 -0.0325
 1083YOPC   C1B14137   3.504   6.593   6.584 -0.2039  0.3687 -0.1653
 1083YOPC   C2B14138   3.648   6.295   6.843  0.1882 -0.0597  0.0347
 1083YOPC   D3B14139   3.706   6.403   7.308 -0.1322 -0.1090 -0.1299
 1083YOPC   C4B14140   3.787   6.624   7.651  0.0787  0.0078  0.1968
 1084YOPC   NC314141  14.380   4.736   5.555 -0.0490 -0.2664  0.5600
 1084YOPC   PO414142  14.197   4.408   5.806 -0.0027  0.3798  0.0798
 1084YOPC   GL114143  13.944   4.598   6.107 -0.0198  0.3505 -0.2653
 1084YOPC   GL214144  13.803   4.601   6.269 -0.1944  0.0932 -0.0717
 1084YOPC   C1A14145  14.170   4.842   6.489 -0.0107  0.3264 -0.2358
 1084YOPC   D2A14146  14.339   4.783   7.002  0.2311 -0.1314  0.3966
 1084YOPC   C3A14147  14.478   5.152   7.264 -0.2240 -0.3646  0.1431
 1084YOPC   C4A14148  14.589   5.451   7.703  0.1472 -0.0679  0.0478
 1084YOPC   C1B14149  13.749   4.649   6.669  0.1032 -0.0048 -0.2195
 1084YOPC   C2B14150  13.703   4.646   7.162  0.1574 -0.2354 -0.2107
 1084YOPC   D3B14151  13.939   4.476   7.409 -0.0620  0.0237  0.0346
 1084YOPC   C4B14152  14.305   4.534   7.442  0.0496  0.2147 -0.3306
 1085YOPC   NC314153   4.026   1.404   6.119  0.1452  0.2233  0.3883
 1085YOPC   PO414154   4.231   1.791   6.114 -0.2510  0.4391 -0.0472
 1085YOPC   GL114155   4.374   1.864   6.564 -0.0077  0.0483  0.0984
 1085YOPC   GL214156   4.616   1.743   6.653  0.3765 -0.3892  0.0003
 1085YOPC   C1A14157   4.388   2.054   6.963  0.0637 -0.1004  0.0697
 1085YOPC   D2A14158   4.101   2.170   7.273  0.1568 -0.0314 -0.3818
 1085YOPC   C3A14159   3.980   2.473   7.405  0.1899  0.0056  0.2429
 1085YOPC   C4A14160   4.086   2.925   7.636 -0.2719 -0.2246 -0.2692
 1085YOPC   C1B14161   4.873   1.846   6.998 -0.1304  0.3689 -0.0617
 1085YOPC   C2B14162   5.101   2.026   7.290 -0.2012  0.0948 -0.2564
 1085YOPC   D3B14163   4.952   2.331   7.672 -0.1835 -0.0092  0.2349
 1085YOPC   C4B14164   5.036   2.623   8.055  0.2340  0.2423 -0.2917
 1086YOPC   NC314165   6.571   3.438   6.275 -0.5661 -0.4191  0.0335
 1086YOPC   PO414166   6.886   3.600   6.592  0.3136 -0.1147 -0.2295
 1086YOPC   GL114167   6.948   3.813   6.965  0.1312  0.1401 -0.2582
 1086YOPC   GL214168   6.634   3.814   7.111 -0.1152 -0.0710  0.1538
 1086YOPC   C1A14169   7.147   3.702   7.312  0.2767  0.1257 -0.1066
 1086YOPC   D2A14170   7.226   3.677   7.640  0.1634  0.4317  0.0666
 1086YOPC   C3A14171   6.818   3.642   7.864 -0.0299 -0.1536 -0.1293
 1086YOPC   C4A14172   6.580   3.796   8.104 -0.2169  0.5326 -0.2817
 1086YOPC   C1B14173   6.787   3.949   7.496 -0.0151  0.2960 -0.2235
 1086YOPC   C2B14174   7.098   4.206   7.583 -0.0045 -0.1474 -0.1812
 1086YOPC   D3B14175   7.149   4.388   8.064  0.5107 -0.0921  0.0731
 1086YOPC   C4B14176   7.099   4.324   8.548 -0.0068 -0.0882  0.0239
 1087YOPC   NC314177   2.211  16.115   5.424  0.1457 -0.2989 -0.1316
 1087YOPC   PO414178   2.366  15.696   5.582  0.2125 -0.1500  0.1727
 1087YOPC   GL114179   2.421  15.396   5.936 -0.1877 -0.1289 -0.0882
 1087YOPC   GL214180   2.699  15.506   6.050  0.0133 -0.1649  0.0193
 1087YOPC   C1A14181   2.541  15.171   6.391  0.1789 -0.3129 -0.1883
 1087YOPC   D2A14182   2.583  15.185   6.870  0.1609 -0.0043 -0.1856
 1087YOPC   C3A14183   2.569  15.250   7.278 -0.0379 -0.3253 -0.2581
 1087YOPC   C4A14184   2.624  15.294   7.719 -0.0893 -0.3520  0.2323
 1087YOPC   C1B14185   2.311  15.782   6.301  0.2245 -0.1807 -0.1662
 1087YOPC   C2B14186   1.951  15.988   6.514 -0.1128 -0.0177 -0.0819
 1087YOPC   D3B14187   1.818  15.942   6.919 -0.1490  0.2620  0.0441
 1087YOPC   C4B14188   1.434  15.968   7.200 -0.1770 -0.3471  0.1873
 1088YOPC   NC314189   3.310   9.457   5.981 -0.1579  0.1317 -0.0238
 1088YOPC   PO414190   3.272   9.055   5.822  0.2396 -0.1483 -0.1075
 1088YOPC   GL114191   3.399   8.977   6.165 -0.0945 -0.3105 -0.1924
 1088YOPC   GL214192   3.783   9.205   6.188  0.4672 -0.3826  0.0567
 1088YOPC   C1A14193   3.380   9.002   6.590 -0.2348 -0.0995 -0.1258
 1088YOPC   D2A14194   3.218   8.884   7.099 -0.3016 -0.1134  0.3278
 1088YOPC   C3A14195   3.228   9.148   7.430 -0.0983 -0.3290  0.3015
 1088YOPC   C4A14196   3.103   9.288   7.912 -0.1026 -0.0059  0.2509
 1088YOPC   C1B14197   3.940   9.060   6.598  0.1723  0.0230 -0.1367
 1088YOPC   C2B14198   3.806   9.061   7.084 -0.0976  0.1160  0.1577
 1088YOPC   D3B14199   3.779   9.173   7.407  0.1205 -0.0807 -0.2884
 1088YOPC   C4B14200   3.604   9.385   7.762  0.0551 -0.2332  0.0860
 1089YOPC   NC314201   0.314   9.020   5.572  0.1937  0.2075 -0.2595
 1089YOPC   PO414202   0.007   8.919   5.972 -0.1100  0.0437  0.3406
 1089YOPC   GL114203   0.162   8.731   6.258  0.0800  0.2198  0.0495
 1089YOPC   GL214204   0.371   8.502   6.409 -0.2266 -0.3074 -0.3202
 1089YOPC   C1A14205   0.173   8.840   6.730  0.1370 -0.0523  0.1718
 1089YOPC   D2A14206  -0.003   8.765   7.177 -0.0360  0.2259  0.1214
 1089YOPC   C3A14207   0.309   8.552   7.500  0.3919  0.1019 -0.3555
 1089YOPC   C4A14208   0.328   8.721   7.984  0.0176 -0.4631 -0.2839
 1089YOPC   C1B14209   0.526   8.143   6.617  0.0654  0.1543  0.1200
 1089YOPC   C2B14210   0.363   7.927   6.951 -0.1274 -0.5698 -0.0002
 1089YOPC   D3B14211   0.744   7.778   7.291  0.3852 -0.0873 -0.1904
 1089YOPC   C4B14212   1.089   8.012   7.431  0.1555 -0.1946  0.1878
 1090YOPC   NC314213  13.402   5.103   5.140 -0.0089  0.2928 -0.1770
 1090YOPC   PO414214  13.452   4.768   5.353  0.3519 -0.1061  0.0117
 1090YOPC   GL114215  13.463   4.810   5.867 -0.0156 -0.2197  0.0302
 1090YOPC   GL214216  13.124   4.893   5.855  0.2245 -0.0163 -0.1670
 1090YOPC   C1A14217  13.239   5.006   6.297 -0.3009  0.2123 -0.0162
 1090YOPC   D2A14218  12.968   5.154   6.444 -0.2249 -0.2158  0.1029
 1090YOPC   C3A14219  13.140   5.458   6.667  0.4254 -0.2540 -0.1158
 1090YOPC   C4A14220  13.242   5.450   7.125 -0.1926 -0.1022  0.1679
 1090YOPC   C1B14221  12.843   5.259   5.972 -0.2067 -0.1665 -0.1360
 1090YOPC   C2B14222  12.505   5.425   6.138  0.1594  0.1646  0.2013
 1090YOPC   D3B14223  12.049   5.318   6.147  0.1303 -0.2082  0.1139
 1090YOPC   C4B14224  11.599   5.417   6.057  0.1127 -0.0880  0.4059
 1091YOPC   NC314225  12.205  15.467   4.850  0.0690 -0.0906 -0.2042
 1091YOPC   PO414226  12.326  15.832   5.007  0.3080 -0.0096 -0.1004
 1091YOPC   GL114227  12.436  15.666   5.389 -0.1343 -0.3543  0.1502
 1091YOPC   GL214228  12.482  15.268   5.399  0.2478 -0.1001  0.0162
 1091YOPC   C1A14229  12.714  15.726   5.794 -0.0072 -0.1483 -0.4894
 1091YOPC   D2A14230  12.743  15.920   6.138  0.1637 -0.2982 -0.3405
 1091YOPC   C3A14231  13.091  15.960   6.313 -0.1312 -0.0720  0.2859
 1091YOPC   C4A14232  13.464  15.935   6.591 -0.1111 -0.2720  0.0206
 1091YOPC   C1B14233  12.375  15.349   5.839  0.1109 -0.0031 -0.0942
 1091YOPC   C2B14234  12.506  15.459   6.291 -0.2226 -0.1635  0.1917
 1091YOPC   D3B14235  12.314  15.504   6.658  0.1196  0.1352 -0.0027
 1091YOPC   C4B14236  12.147  15.078   6.699  0.5397 -0.1086  0.0804
 1092YOPC   NC314237  15.514   9.611   5.876  0.2497  0.1071  0.2208
 1092YOPC   PO414238  15.856   9.655   6.198  0.0341 -0.1986  0.1513
 1092YOPC   GL114239  15.761   9.716   6.556 -0.0199 -0.2134  0.1288
 1092YOPC   GL214240  15.427   9.724   6.547 -0.0149 -0.1869  0.1385
 1092YOPC   C1A14241  15.606   9.817   6.979  0.1751 -0.0856 -0.2989
 1092YOPC   D2A14242  15.385   9.774   7.404 -0.2397  0.2490  0.0085
 1092YOPC   C3A14243  15.096  10.024   7.585  0.0930  0.0598  0.3166
 1092YOPC   C4A14244  14.928  10.258   7.918  0.0099 -0.0165  0.1757
 1092YOPC   C1B14245  15.136   9.661   6.829  0.2576  0.0186 -0.1590
 1092YOPC   C2B14246  14.963   9.858   7.152 -0.1094 -0.2285  0.3472
 1092YOPC   D3B14247  14.769  10.274   7.032  0.0318 -0.2009  0.2708
 1092YOPC   C4B14248  14.457  10.484   7.110 -0.2235 -0.0124 -0.0651
 1093YOPC   NC314249   7.146   7.569   5.447 -0.5106  0.3266  0.2620
 1093YOPC   PO414250   6.723   7.677   5.742  0.0453  0.3129 -0.0568
 1093YOPC   GL114251   6.531   7.864   6.125 -0.1836 -0.0654  0.3659
 1093YOPC   GL214252   6.292   7.650   6.184 -0.3109 -0.1218 -0.0969
 1093YOPC   C1A14253   6.448   8.056   6.589  0.0518  0.3492  0.1703
 1093YOPC   D2A14254   6.723   7.941   6.974 -0.0807  0.0741  0.0702
 1093YOPC   C3A14255   7.022   7.617   6.940 -0.0847 -0.1217 -0.0100
 1093YOPC   C4A14256   7.018   7.223   7.018  0.1406 -0.1187 -0.2561
 1093YOPC   C1B14257   6.499   7.490   6.553  0.2483  0.0436  0.0097
 1093YOPC   C2B14258   6.384   7.513   6.902 -0.0286 -0.0860  0.0925
 1093YOPC   D3B14259   6.510   7.249   7.208 -0.2210  0.1175  0.0885
 1093YOPC   C4B14260   6.465   6.882   7.555 -0.0778 -0.0248  0.3023
 1094YOPC   NC314261   7.653   8.637   5.393  0.0036  0.1517 -0.1659
 1094YOPC   PO414262   7.577   8.243   5.580 -0.0931  0.2685  0.0868
 1094YOPC   GL114263   7.721   8.177   6.046 -0.4083  0.0826 -0.1170
 1094YOPC   GL214264   7.951   8.106   6.097  0.6483 -0.0763  0.1400
 1094YOPC   C1A14265   7.807   8.567   6.292  0.1232 -0.0556  0.1120
 1094YOPC   D2A14266   7.920   9.005   6.412  0.1759  0.2214  0.1509
 1094YOPC   C3A14267   8.225   9.113   6.798  0.5354  0.1228  0.0050
 1094YOPC   C4A14268   8.480   9.253   7.183  0.2356  0.2295  0.0156
 1094YOPC   C1B14269   7.888   8.182   6.583 -0.0973 -0.2507 -0.0107
 1094YOPC   C2B14270   7.701   8.144   6.923 -0.2218  0.1221  0.3895
 1094YOPC   D3B14271   7.635   8.255   7.341 -0.0914  0.2172  0.0246
 1094YOPC   C4B14272   7.400   8.625   7.368  0.1991  0.1126  0.1570
 1095YOPC   NC314273  18.483   2.195   5.319 -0.0107 -0.2120 -0.0076
 1095YOPC   PO414274  18.690   2.220   5.548 -0.2076 -0.0871 -0.0662
 1095YOPC   GL114275  18.431   2.488   5.769 -0.4726 -0.0580 -0.0777
 1095YOPC   GL214276  18.194   2.675   5.765 -0.1273 -0.2334 -0.0664
 1095YOPC   C1A14277  17.926   2.343   6.025 -0.3013  0.2740 -0.0406
 1095YOPC   D2A14278  17.658   2.413   6.241 -0.1806 -0.1173  0.1629
 1095YOPC   C3A14279  17.698   2.470   6.693  0.0549  0.4376 -0.3708
 1095YOPC   C4A14280  18.089   2.375   6.970 -0.0338 -0.0767  0.0169
 1095YOPC   C1B14281  18.207   2.712   6.222  0.1387 -0.4482 -0.1311
 1095YOPC   C2B14282  18.164   2.785   6.659  0.2547  0.1185 -0.1106
 1095YOPC   D3B14283  17.916   2.972   6.906 -0.2995 -0.4743  0.2823
 1095YOPC   C4B14284  18.225   3.062   7.231  0.1623 -0.0217  0.2190
 1096YOPC   NC314285   1.213   1.102   6.102 -0.1321  0.0127 -0.2418
 1096YOPC   PO414286   1.303   0.699   6.217 -0.1857 -0.0207 -0.1704
 1096YOPC   GL114287   1.462   0.867   6.586  0.4656 -0.2627 -0.2933
 1096YOPC   GL214288   1.605   1.093   6.409  0.2669 -0.1605 -0.0819
 1096YOPC   C1A14289   1.651   1.073   7.022 -0.2468 -0.2885 -0.3412
 1096YOPC   D2A14290   1.638   1.465   7.342 -0.2007 -0.3317  0.2987
 1096YOPC   C3A14291   1.413   1.865   7.118 -0.1149  0.1754  0.2111
 1096YOPC   C4A14292   1.316   1.925   6.785  0.1751 -0.1025 -0.0287
 1096YOPC   C1B14293   1.530   1.464   6.749  0.2789 -0.1671 -0.0475
 1096YOPC   C2B14294   1.832   1.690   6.907 -0.1237 -0.2025  0.2504
 1096YOPC   D3B14295   1.956   1.831   7.269  0.0744  0.0470  0.2144
 1096YOPC   C4B14296   1.692   1.894   7.596  0.0259  0.3046  0.5018
 1097YOPC   NC314297   2.131   5.767   5.386  0.1241 -0.1417  0.0473
 1097YOPC   PO414298   2.314   5.613   5.689  0.1885  0.0069 -0.2609
 1097YOPC   GL114299   2.610   5.640   6.072 -0.0409  0.0762 -0.5486
 1097YOPC   GL214300   2.577   5.887   6.211 -0.0894  0.1616 -0.3294
 1097YOPC   C1A14301   2.411   5.458   6.370 -0.1889 -0.2823 -0.1761
 1097YOPC   D2A14302   2.322   5.384   6.750  0.0298 -0.0106 -0.3943
 1097YOPC   C3A14303   2.032   5.634   6.972  0.0525  0.0755 -0.0348
 1097YOPC   C4A14304   1.863   5.937   6.891 -0.1461 -0.0982 -0.2649
 1097YOPC   C1B14305   2.693   6.237   6.518  0.1555 -0.2369 -0.1968
 1097YOPC   C2B14306   2.762   6.354   6.973  0.0953 -0.1567 -0.0288
 1097YOPC   D3B14307   2.810   6.735   7.234 -0.3900 -0.0744  0.2109
 1097YOPC   C4B14308   2.649   6.984   7.546  0.0483  0.2539 -0.1767
 1098YOPC   NC314309   3.306  15.567   6.055 -0.3562 -0.4027  0.0522
 1098YOPC   PO414310   3.756  15.440   6.106  0.2156 -0.0448 -0.1843
 1098YOPC   GL114311   3.545  15.564   6.470 -0.2150 -0.2358 -0.0916
 1098YOPC   GL214312   3.788  15.724   6.608  0.0913  0.0121 -0.3457
 1098YOPC   C1A14313   3.265  15.415   6.685  0.3201 -0.0393  0.1777
 1098YOPC   D2A14314   3.081  15.182   7.062 -0.0035 -0.0453  0.2836
 1098YOPC   C3A14315   2.980  15.106   7.416  0.5682 -0.0366 -0.1135
 1098YOPC   C4A14316   2.900  14.924   7.815 -0.0114  0.1451 -0.0430
 1098YOPC   C1B14317   3.705  15.486   6.959  0.0776  0.0079  0.0687
 1098YOPC   C2B14318   3.605  15.427   7.351  0.1389  0.0720  0.2229
 1098YOPC   D3B14319   3.903  15.120   7.634 -0.2200 -0.1420  0.1039
 1098YOPC   C4B14320   3.861  15.049   8.044  0.0525 -0.0203 -0.2543
 1099YOPC   NC314321   4.163  15.630   6.258 -0.3374  0.0564 -0.1062
 1099YOPC   PO414322   4.597  15.743   6.326 -0.1286 -0.0496  0.1076
 1099YOPC   GL114323   4.599  15.374   6.518  0.2486  0.0321 -0.1604
 1099YOPC   GL214324   4.865  15.352   6.664  0.1836 -0.2349 -0.1709
 1099YOPC   C1A14325   4.641  15.157   7.026 -0.0617 -0.1812  0.0145
 1099YOPC   D2A14326   4.965  15.074   7.411 -0.0289 -0.0811 -0.1638
 1099YOPC   C3A14327   5.281  15.049   7.293  0.1356  0.0397 -0.0600
 1099YOPC   C4A14328   5.479  14.670   7.012  0.1565  0.1986  0.2907
 1099YOPC   C1B14329   4.969  15.523   6.983  0.0463  0.1376 -0.0064
 1099YOPC   C2B14330   4.795  15.563   7.398  0.1830 -0.1694 -0.4749
 1099YOPC   D3B14331   4.627  15.987   7.423 -0.0141 -0.1432  0.3596
 1099YOPC   C4B14332   4.554  16.397   7.388 -0.0605  0.0190  0.1276
 1100YOPC   NC314333   4.017  12.015   5.672 -0.4609  0.2231  0.2161
 1100YOPC   PO414334   4.304  12.308   5.760 -0.0949  0.3964  0.2890
 1100YOPC   GL114335   4.548  12.263   6.168 -0.0097 -0.2997  0.0214
 1100YOPC   GL214336   4.760  12.073   6.302  0.1886  0.1778 -0.1837
 1100YOPC   C1A14337   4.335  11.964   6.475 -0.2318 -0.0059 -0.3260
 1100YOPC   D2A14338   4.360  11.663   6.834 -0.0904  0.1142 -0.1065
 1100YOPC   C3A14339   4.359  11.762   7.161 -0.0600 -0.1104  0.0370
 1100YOPC   C4A14340   4.380  12.090   7.375 -0.0386  0.1047 -0.1456
 1100YOPC   C1B14341   5.043  12.241   6.545  0.1621 -0.0813 -0.0175
 1100YOPC   C2B14342   5.336  12.204   6.987  0.1365 -0.3975  0.1556
 1100YOPC   D3B14343   5.403  11.776   7.077  0.3531  0.0378 -0.1025
 1100YOPC   C4B14344   5.555  11.316   7.082  0.3022  0.3548  0.0668
 1101YOPC   NC314345   4.633  16.668   5.966  0.0359 -0.0844  0.0217
 1101YOPC   PO414346   4.185  16.628   6.077  0.3784  0.0247  0.0848
 1101YOPC   GL114347   4.259  16.977   6.376 -0.1484  0.1685  0.0012
 1101YOPC   GL214348   4.617  17.161   6.240  0.1832 -0.0268 -0.1110
 1101YOPC   C1A14349   4.471  17.005   6.786 -0.0526  0.2078  0.1955
 1101YOPC   D2A14350   4.458  17.351   6.853 -0.0013  0.2752  0.1125
 1101YOPC   C3A14351   4.121  17.476   7.222  0.0722  0.3159  0.1442
 1101YOPC   C4A14352   4.022  17.126   7.557  0.4251  0.0562 -0.1219
 1101YOPC   C1B14353   4.906  17.159   6.639  0.1071  0.0332  0.1036
 1101YOPC   C2B14354   5.008  17.206   7.113 -0.0482  0.0875 -0.0800
 1101YOPC   D3B14355   5.214  17.548   7.323 -0.0329  0.0141 -0.1035
 1101YOPC   C4B14356   5.303  17.847   7.689 -0.4484  0.4255 -0.0609
 1102YOPC   NC314357   5.059   5.348   5.551  0.3935 -0.1509 -0.0197
 1102YOPC   PO414358   5.434   5.539   5.718  0.1537 -0.0494 -0.2407
 1102YOPC   GL114359   5.432   5.540   6.114 -0.0943  0.4944 -0.1127
 1102YOPC   GL214360   5.752   5.601   6.241  0.0781 -0.2192  0.0754
 1102YOPC   C1A14361   5.161   5.454   6.509  0.4979 -0.0529  0.1536
 1102YOPC   D2A14362   4.903   5.393   6.940 -0.0277  0.1159 -0.0565
 1102YOPC   C3A14363   5.080   5.299   7.229 -0.3519 -0.0214 -0.1229
 1102YOPC   C4A14364   5.202   5.351   7.597  0.3336 -0.2313  0.1490
 1102YOPC   C1B14365   5.750   5.323   6.568  0.0911 -0.3451 -0.1517
 1102YOPC   C2B14366   5.500   5.427   6.956  0.4432  0.0576 -0.1211
 1102YOPC   D3B14367   5.695   5.609   7.411 -0.2061  0.0235 -0.2409
 1102YOPC   C4B14368   5.918   5.472   7.786 -0.0025 -0.0528 -0.4379
 1103YOPC   NC314369   4.623  14.388   5.693  0.1549  0.0516 -0.1107
 1103YOPC   PO414370   5.095  14.521   5.659 -0.3069  0.0192 -0.0953
 1103YOPC   GL114371   5.113  14.373   6.056  0.0268  0.0272  0.2287
 1103YOPC   GL214372   5.024  14.624   6.331 -0.0084  0.0169  0.3786
 1103YOPC   C1A14373   4.971  14.099   6.451  0.1557 -0.0364  0.3457
 1103YOPC   D2A14374   5.002  13.715   6.819 -0.0376 -0.2488  0.0413
 1103YOPC   C3A14375   5.111  13.660   7.268 -0.1357  0.2675  0.2080
 1103YOPC   C4A14376   5.365  13.435   7.577 -0.1789 -0.4083  0.1746
 1103YOPC   C1B14377   5.437  14.245   6.539  0.1568 -0.0756 -0.0403
 1103YOPC   C2B14378   5.752  13.982   6.513  0.1920  0.2441 -0.1701
 1103YOPC   D3B14379   5.578  13.595   6.788  0.0446  0.1167  0.1243
 1103YOPC   C4B14380   5.570  13.381   7.041  0.0564 -0.1691 -0.2616
 1104YOPC   NC314381   8.140  13.202   5.653  0.0184 -0.0258 -0.0994
 1104YOPC   PO414382   8.397  12.963   5.885 -0.1267 -0.2708  0.0294
 1104YOPC   GL114383   7.998  13.142   6.212 -0.2436  0.3500 -0.0337
 1104YOPC   GL214384   7.908  12.967   6.052  0.1340  0.2851 -0.1785
 1104YOPC   C1A14385   8.061  13.229   6.606  0.3065  0.2923 -0.2596
 1104YOPC   D2A14386   8.194  13.457   6.928  0.0980 -0.0827 -0.2140
 1104YOPC   C3A14387   8.166  13.363   7.371 -0.0380 -0.0730 -0.3438
 1104YOPC   C4A14388   7.883  13.151   7.711 -0.0748 -0.0575  0.0946
 1104YOPC   C1B14389   7.468  13.102   6.192  0.1106 -0.1473 -0.2376
 1104YOPC   C2B14390   6.983  12.970   6.337 -0.1993  0.0077 -0.3565
 1104YOPC   D3B14391   6.928  12.820   6.696  0.1761 -0.2768 -0.0562
 1104YOPC   C4B14392   6.988  13.007   7.023  0.1379  0.0874  0.1091
 1105YOPC   NC314393  14.356   6.896   5.458  0.7853  0.1558  0.4311
 1105YOPC   PO414394  14.268   6.744   5.837  0.4128  0.0917  0.1357
 1105YOPC   GL114395  14.269   6.976   6.037  0.0975 -0.4745  0.0198
 1105YOPC   GL214396  14.031   7.044   6.193 -0.1281  0.1061  0.1067
 1105YOPC   C1A14397  14.405   6.886   6.522  0.2654  0.0203  0.2813
 1105YOPC   D2A14398  14.192   6.503   6.740 -0.1168  0.0009 -0.0424
 1105YOPC   C3A14399  14.429   6.577   7.117 -0.6106 -0.0326  0.0419
 1105YOPC   C4A14400  14.378   6.426   7.608 -0.2507 -0.0974  0.1579
 1105YOPC   C1B14401  13.906   6.921   6.592  0.0587  0.2956  0.2608
 1105YOPC   C2B14402  14.151   6.948   6.987 -0.1099 -0.0318 -0.3483
 1105YOPC   D3B14403  14.037   6.686   7.387  0.1281 -0.2851  0.0681
 1105YOPC   C4B14404  13.589   6.614   7.552  0.1739  0.1749  0.2171
 1106YOPC   NC314405  14.358   0.159   5.591  0.1356 -0.1908 -0.2097
 1106YOPC   PO414406  14.045   0.063   5.708  0.0766  0.2867 -0.0841
 1106YOPC   GL114407  14.171   0.291   6.147  0.2221  0.4459  0.0128
 1106YOPC   GL214408  13.896   0.151   6.189 -0.0579  0.0621 -0.1646
 1106YOPC   C1A14409  14.178   0.099   6.558 -0.0863 -0.2773  0.2249
 1106YOPC   D2A14410  14.088  -0.148   6.891 -0.1773  0.1174 -0.2474
 1106YOPC   C3A14411  14.080  -0.694   6.876 -0.0789 -0.1799  0.1509
 1106YOPC   C4A14412  13.884  -1.068   7.071 -0.2050  0.0832  0.2540
 1106YOPC   C1B14413  13.575   0.284   6.432  0.1855 -0.0634 -0.0991
 1106YOPC   C2B14414  13.160   0.176   6.558 -0.0576  0.1407  0.0175
 1106YOPC   D3B14415  13.226   0.073   6.918 -0.1252 -0.0489 -0.1373
 1106YOPC   C4B14416  13.109  -0.094   7.163 -0.4167  0.0199 -0.1899
 1107YOPC   NC314417   0.555   8.562   5.412 -0.2291  0.1566  0.1542
 1107YOPC   PO414418   1.042   8.727   5.471  0.0902 -0.1371 -0.2723
 1107YOPC   GL114419   1.068   8.692   5.965 -0.0937  0.0907 -0.0082
 1107YOPC   GL214420   1.069   8.955   6.076  0.0563  0.0542 -0.0004
 1107YOPC   C1A14421   0.870   8.521   6.388  0.1444  0.3676  0.1998
 1107YOPC   D2A14422   0.647   8.722   6.755  0.2984 -0.0685  0.2297
 1107YOPC   C3A14423   0.661   8.847   7.193  0.3480  0.2303  0.1483
 1107YOPC   C4A14424   0.636   8.937   7.613 -0.2593  0.0325  0.2787
 1107YOPC   C1B14425   1.166   8.951   6.442 -0.0954 -0.2636  0.1635
 1107YOPC   C2B14426   1.317   8.683   6.684  0.1232  0.0884  0.0709
 1107YOPC   D3B14427   1.049   8.604   6.969 -0.1664 -0.1334  0.0546
 1107YOPC   C4B14428   1.041   8.570   7.348 -0.0749 -0.0429 -0.1394
 1108YOPC   NC314429   8.093   5.686   5.585  0.5355 -0.2451 -0.1045
 1108YOPC   PO414430   8.035   6.007   5.762 -0.2184 -0.3310  0.0629
 1108YOPC   GL114431   8.290   6.053   6.129 -0.1532  0.1108 -0.1861
 1108YOPC   GL214432   8.499   5.881   6.360 -0.3916 -0.0549  0.1040
 1108YOPC   C1A14433   8.278   6.275   6.528  0.6015 -0.2373 -0.3178
 1108YOPC   D2A14434   8.248   6.701   6.691 -0.4337  0.0962 -0.0839
 1108YOPC   C3A14435   8.416   6.739   7.071 -0.2017  0.0543  0.1955
 1108YOPC   C4A14436   8.469   6.514   7.565 -0.0341 -0.1048  0.1299
 1108YOPC   C1B14437   8.811   6.179   6.413 -0.1746 -0.3719  0.4073
 1108YOPC   C2B14438   8.910   6.624   6.598 -0.0423  0.3041  0.1684
 1108YOPC   D3B14439   8.987   6.681   6.984 -0.1992  0.4573  0.0639
 1108YOPC   C4B14440   8.906   6.685   7.421  0.2218 -0.1782  0.1402
 1109YOPC   NC314441  15.133  15.668   5.186 -0.0792 -0.0823  0.2407
 1109YOPC   PO414442  15.016  15.849   5.462  0.0440 -0.0894  0.3687
 1109YOPC   GL114443  14.982  15.946   5.943  0.0582 -0.2271 -0.1708
 1109YOPC   GL214444  15.251  15.911   6.010  0.0989  0.0831  0.2899
 1109YOPC   C1A14445  14.645  15.936   6.285 -0.0699  0.0127  0.0190
 1109YOPC   D2A14446  14.420  16.130   6.492  0.1851  0.0800 -0.0467
 1109YOPC   C3A14447  14.443  16.236   6.895  0.4180  0.0732 -0.0765
 1109YOPC   C4A14448  14.436  16.432   7.240 -0.2018  0.5620 -0.0319
 1109YOPC   C1B14449  15.266  15.638   6.371 -0.1503 -0.0487  0.1182
 1109YOPC   C2B14450  15.179  15.469   6.796 -0.2390  0.1466  0.4401
 1109YOPC   D3B14451  15.275  15.350   7.209 -0.0878  0.0222 -0.0291
 1109YOPC   C4B14452  15.328  15.123   7.667  0.0736  0.2434 -0.0610
 1110YOPC   NC314453   5.957   5.152   5.534  0.0550  0.4001  0.1194
 1110YOPC   PO414454   6.035   5.333   5.923 -0.1267 -0.0240 -0.1978
 1110YOPC   GL114455   6.428   5.709   6.136 -0.2529 -0.2096 -0.0330
 1110YOPC   GL214456   6.368   6.103   6.017  0.0389  0.0868 -0.3292
 1110YOPC   C1A14457   6.710   5.941   6.573 -0.0396  0.1838 -0.0530
 1110YOPC   D2A14458   6.758   6.171   6.949 -0.1677  0.1430  0.0542
 1110YOPC   C3A14459   6.842   5.721   7.054 -0.1047 -0.1352 -0.0073
 1110YOPC   C4A14460   6.679   5.571   7.449  0.4767 -0.1551  0.2234
 1110YOPC   C1B14461   6.186   6.115   6.469 -0.2006 -0.2789 -0.0995
 1110YOPC   C2B14462   6.438   6.414   6.706  0.2299  0.1330 -0.0895
 1110YOPC   D3B14463   6.752   6.716   6.547  0.1858  0.0243  0.2330
 1110YOPC   C4B14464   6.919   7.117   6.526  0.0303  0.1760 -0.1919
 1111YOPC   NC314465  14.479  16.903   4.803 -0.0615 -0.1308 -0.1644
 1111YOPC   PO414466  14.520  16.374   4.856 -0.4791 -0.0946  0.0658
 1111YOPC   GL114467  14.510  16.401   5.313 -0.0126 -0.1151 -0.0279
 1111YOPC   GL214468  14.777  16.407   5.499  0.3133 -0.0869 -0.0496
 1111YOPC   C1A14469  14.347  16.661   5.669 -0.1534 -0.0669  0.2215
 1111YOPC   D2A14470  14.351  16.897   6.025 -0.1287  0.0992 -0.3192
 1111YOPC   C3A14471  14.044  16.707   6.390 -0.0688 -0.0356  0.0151
 1111YOPC   C4A14472  14.208  16.673   6.804  0.0452 -0.1411 -0.0344
 1111YOPC   C1B14473  14.512  16.226   5.850 -0.3956  0.1254  0.0547
 1111YOPC   C2B14474  14.019  16.307   5.981  0.0189 -0.0631 -0.0971
 1111YOPC   D3B14475  13.713  16.673   5.916  0.2700  0.0385  0.0856
 1111YOPC   C4B14476  13.478  16.736   5.668  0.1802 -0.3193 -0.1305
 1112YOPC   NC314477  13.690   2.275   5.923  0.0929 -0.0649 -0.0337
 1112YOPC   PO414478  13.912   1.966   6.245 -0.0552 -0.2875 -0.0435
 1112YOPC   GL114479  14.116   2.102   6.527 -0.0897  0.1490 -0.0708
 1112YOPC   GL214480  14.418   2.279   6.585  0.0889 -0.0038 -0.0288
 1112YOPC   C1A14481  14.296   1.770   6.813  0.2820  0.2925 -0.1390
 1112YOPC   D2A14482  14.375   1.820   7.226 -0.1155  0.2009  0.1050
 1112YOPC   C3A14483  14.409   1.497   7.549 -0.2950  0.0836  0.0252
 1112YOPC   C4A14484  14.676   1.062   7.697  0.1566  0.0639  0.0365
 1112YOPC   C1B14485  14.333   2.274   6.984 -0.0918  0.0311  0.2961
 1112YOPC   C2B14486  14.187   2.218   7.356 -0.1302 -0.0614  0.0682
 1112YOPC   D3B14487  13.857   2.255   7.632 -0.3039 -0.1703 -0.3373
 1112YOPC   C4B14488  13.686   2.273   8.081 -0.1089 -0.0435 -0.1241
 1113YOPC   NC314489  11.378  11.932   5.169 -0.1428  0.0949 -0.1566
 1113YOPC   PO414490  10.884  12.145   5.289 -0.1080 -0.0453  0.2921
 1113YOPC   GL114491  10.769  12.343   5.663 -0.0878  0.1388  0.3895
 1113YOPC   GL214492  10.844  12.108   5.804 -0.1617  0.0094  0.0650
 1113YOPC   C1A14493  10.775  12.672   5.913  0.1201  0.2978 -0.0357
 1113YOPC   D2A14494  10.596  12.770   6.364 -0.0140 -0.1202 -0.3280
 1113YOPC   C3A14495  10.856  12.969   6.648  0.0095 -0.3605 -0.1197
 1113YOPC   C4A14496  10.957  13.239   7.058  0.1742  0.1368  0.0004
 1113YOPC   C1B14497  11.170  12.147   6.124  0.2363  0.0368 -0.1138
 1113YOPC   C2B14498  11.415  12.386   6.512 -0.0262  0.2848  0.0343
 1113YOPC   D3B14499  11.288  12.713   6.862  0.0381 -0.2550 -0.0737
 1113YOPC   C4B14500  11.395  12.713   7.276  0.2268 -0.1407  0.0829
 1114YOPC   NC314501  14.018   8.174   5.563  0.1015 -0.0345 -0.1687
 1114YOPC   PO414502  13.586   8.000   5.608 -0.2038 -0.1245  0.0233
 1114YOPC   GL114503  13.780   8.130   5.994  0.1500  0.0036 -0.1611
 1114YOPC   GL214504  13.465   8.313   6.053  0.1331 -0.0751  0.0413
 1114YOPC   C1A14505  13.959   7.994   6.430 -0.2916  0.1340  0.2004
 1114YOPC   D2A14506  14.238   8.058   6.820  0.0088  0.3729 -0.1580
 1114YOPC   C3A14507  14.128   7.864   7.182  0.0413  0.0123 -0.1801
 1114YOPC   C4A14508  13.887   7.902   7.504 -0.1221  0.1859  0.3223
 1114YOPC   C1B14509  13.184   8.038   6.068  0.0971  0.0103  0.0062
 1114YOPC   C2B14510  12.923   7.879   6.426  0.0678 -0.0709  0.1726
 1114YOPC   D3B14511  13.088   8.073   6.769  0.1184 -0.1263 -0.2860
 1114YOPC   C4B14512  13.201   8.443   6.979  0.3638  0.2288 -0.0145
 1115YOPC   NC314513   9.297  17.005   4.982  0.0873  0.1283  0.1293
 1115YOPC   PO414514   9.472  16.786   5.363 -0.0982  0.5475 -0.1378
 1115YOPC   GL114515   9.652  16.692   5.749 -0.0333 -0.0046 -0.0788
 1115YOPC   GL214516   9.517  16.679   6.089  0.2841 -0.1096 -0.0351
 1115YOPC   C1A14517   9.990  16.722   5.974  0.2284 -0.1348  0.0955
 1115YOPC   D2A14518  10.389  16.566   6.276  0.1628  0.1126 -0.1418
 1115YOPC   C3A14519  10.656  16.827   6.533  0.0307 -0.0112 -0.4034
 1115YOPC   C4A14520  10.966  17.105   6.716  0.1769 -0.1024 -0.1269
 1115YOPC   C1B14521   9.818  16.533   6.408 -0.0224 -0.2131 -0.1693
 1115YOPC   C2B14522  10.176  16.551   6.728 -0.0831  0.0338 -0.0048
 1115YOPC   D3B14523  10.470  16.675   7.114  0.0184  0.1633 -0.0849
 1115YOPC   C4B14524  10.874  16.989   7.226  0.1015  0.1618  0.1448
 1116YOPC   NC314525   5.246  17.562   5.673 -0.2300  0.0330  0.1689
 1116YOPC   PO414526   4.904  17.596   5.912 -0.1040  0.0779  0.2883
 1116YOPC   GL114527   5.215  17.604   6.273  0.0025  0.2972 -0.0405
 1116YOPC   GL214528   5.607  17.719   6.373  0.1239  0.0477  0.1056
 1116YOPC   C1A14529   5.308  17.437   6.720  0.0657  0.0246  0.0826
 1116YOPC   D2A14530   5.583  17.592   6.973  0.0636  0.0041 -0.0320
 1116YOPC   C3A14531   5.705  17.755   7.287 -0.2209 -0.0167  0.1756
 1116YOPC   C4A14532   5.710  18.072   7.737  0.3177  0.3360  0.4472
 1116YOPC   C1B14533   5.346  17.986   6.635 -0.4364 -0.2238  0.1149
 1116YOPC   C2B14534   5.172  18.209   6.949  0.1277 -0.0039 -0.2269
 1116YOPC   D3B14535   4.973  18.082   7.321 -0.0733  0.1084 -0.2427
 1116YOPC   C4B14536   4.696  18.116   7.638 -0.0582  0.2047  0.1036
 1117YOPC   NC314537  13.340   3.025   5.739  0.1284 -0.1329 -0.0303
 1117YOPC   PO414538  13.693   2.782   5.827 -0.1679  0.3621  0.1613
 1117YOPC   GL114539  13.735   3.154   6.081  0.0826  0.1531  0.0051
 1117YOPC   GL214540  13.946   3.101   6.370  0.0277  0.0355  0.0507
 1117YOPC   C1A14541  13.359   3.141   6.398  0.3010 -0.2006 -0.3245
 1117YOPC   D2A14542  12.869   3.207   6.576 -0.0484 -0.1324 -0.1281
 1117YOPC   C3A14543  12.663   2.910   6.579 -0.3183 -0.1689 -0.2800
 1117YOPC   C4A14544  12.784   2.584   6.924 -0.0052 -0.1059  0.1402
 1117YOPC   C1B14545  13.682   2.803   6.683 -0.1448  0.0150 -0.1009
 1117YOPC   C2B14546  13.671   2.325   6.729 -0.0731 -0.2434 -0.2305
 1117YOPC   D3B14547  13.746   2.081   7.077  0.2541 -0.0158 -0.0582
 1117YOPC   C4B14548  13.865   1.798   7.272  0.1938 -0.2685 -0.1183
 1118YOPC   NC314549  10.448  10.410   5.279 -0.0010  0.0413 -0.3270
 1118YOPC   PO414550  10.818  10.116   5.182  0.4249  0.1970 -0.0203
 1118YOPC   GL114551  10.670   9.833   5.554  0.3433 -0.2304  0.2640
 1118YOPC   GL214552  10.667   9.953   5.840 -0.2761 -0.0059 -0.1786
 1118YOPC   C1A14553  10.599   9.426   5.730  0.3575 -0.0519 -0.0261
 1118YOPC   D2A14554  10.292   9.374   6.041  0.0833  0.1547  0.0372
 1118YOPC   C3A14555  10.029   9.712   6.395 -0.1574  0.0491 -0.1952
 1118YOPC   C4A14556   9.745   9.752   6.689 -0.1542 -0.0729  0.0534
 1118YOPC   C1B14557  10.636   9.760   6.227 -0.1681  0.1567 -0.2674
 1118YOPC   C2B14558  10.508   9.638   6.680  0.1970  0.2778  0.3579
 1118YOPC   D3B14559  10.492   9.789   7.110 -0.2680 -0.0324 -0.0929
 1118YOPC   C4B14560  10.441   9.795   7.549 -0.2156 -0.1165 -0.0383
 1119YOPC   NC314561   3.695   1.836   6.122  0.3074  0.1194 -0.1624
 1119YOPC   PO414562   3.345   2.054   6.230  0.1822  0.2774  0.1413
 1119YOPC   GL114563   3.045   2.012   6.671 -0.0013  0.2778  0.1537
 1119YOPC   GL214564   2.679   2.214   6.649 -0.1558 -0.1197  0.1448
 1119YOPC   C1A14565   3.290   1.990   7.068 -0.1540  0.1008 -0.2546
 1119YOPC   D2A14566   3.158   1.885   7.487  0.2949  0.4080 -0.0249
 1119YOPC   C3A14567   3.437   1.749   7.833 -0.3685  0.2343  0.0138
 1119YOPC   C4A14568   3.664   1.400   7.976  0.1083 -0.1799  0.3408
 1119YOPC   C1B14569   2.787   2.120   7.155 -0.0064 -0.3079  0.2435
 1119YOPC   C2B14570   3.044   2.335   7.455  0.1068 -0.5003  0.0297
 1119YOPC   D3B14571   3.032   2.202   7.912 -0.3364  0.0522  0.1443
 1119YOPC   C4B14572   3.054   1.827   8.121  0.1022  0.2214 -0.0131
 1120YOPC   NC314573   5.243  18.512   5.757 -0.1146  0.0863 -0.0461
 1120YOPC   PO414574   4.972  18.834   5.884  0.0186 -0.0618 -0.0381
 1120YOPC   GL114575   4.758  18.800   6.269 -0.1951 -0.1407  0.0926
 1120YOPC   GL214576   4.442  18.587   6.337  0.2642 -0.0002 -0.1417
 1120YOPC   C1A14577   4.907  18.693   6.780  0.0427 -0.1356  0.2101
 1120YOPC   D2A14578   5.080  18.598   7.247 -0.2263 -0.2611 -0.0429
 1120YOPC   C3A14579   5.471  18.824   7.360 -0.0419 -0.2161 -0.0189
 1120YOPC   C4A14580   5.780  19.140   7.369  0.1153 -0.1281 -0.0429
 1120YOPC   C1B14581   4.392  18.593   6.835 -0.1765  0.0500 -0.1623
 1120YOPC   C2B14582   4.537  18.504   7.303 -0.1323  0.0270  0.2459
 1120YOPC   D3B14583   4.518  18.672   7.692 -0.1154 -0.0734 -0.0036
 1120YOPC   C4B14584   4.643  19.160   7.801  0.0939 -0.2457  0.4254
 1121YOPC   NC314585  16.075   6.021   5.381  0.0946 -0.0128 -0.1599
 1121YOPC   PO414586  16.036   6.320   5.372 -0.0794 -0.0599 -0.1741
 1121YOPC   GL114587  15.778   6.441   5.698 -0.0043  0.2004 -0.0322
 1121YOPC   GL214588  15.504   6.518   5.609  0.1433 -0.2480 -0.1173
 1121YOPC   C1A14589  15.873   6.608   6.119 -0.2340 -0.1432 -0.1645
 1121YOPC   D2A14590  15.851   6.707   6.548 -0.0643  0.4831  0.1249
 1121YOPC   C3A14591  15.687   6.990   6.847  0.1436  0.0458  0.2033
 1121YOPC   C4A14592  15.426   7.182   7.143 -0.1517  0.1209  0.1609
 1121YOPC   C1B14593  15.562   6.179   6.004 -0.0540  0.2173  0.0274
 1121YOPC   C2B14594  15.583   5.859   6.347 -0.2024 -0.3702 -0.2036
 1121YOPC   D3B14595  15.315   5.873   6.669  0.1322  0.0462 -0.2053
 1121YOPC   C4B14596  15.205   5.491   6.927 -0.1680 -0.2072  0.0123
 1122YOPC   NC314597  10.174  11.614   5.334  0.1263  0.2331  0.0994
 1122YOPC   PO414598  10.271  11.281   5.615  0.0732  0.1001  0.0150
 1122YOPC   GL114599   9.813  11.482   5.690 -0.0656  0.0986 -0.0452
 1122YOPC   GL214600   9.519  11.309   5.517 -0.0592 -0.0369  0.1120
 1122YOPC   C1A14601   9.751  11.482   6.126  0.0587  0.0153  0.2189
 1122YOPC   D2A14602   9.860  11.539   6.465  0.3554 -0.0153  0.2247
 1122YOPC   C3A14603   9.715  11.878   6.775 -0.1558 -0.0675 -0.2297
 1122YOPC   C4A14604   9.545  11.882   7.170 -0.1526  0.0542 -0.0830
 1122YOPC   C1B14605   9.569  11.103   5.866 -0.1051  0.1496 -0.1641
 1122YOPC   C2B14606   9.681  10.846   6.121 -0.1530  0.1634 -0.1900
 1122YOPC   D3B14607   9.740  10.450   5.989 -0.0474  0.1686  0.2883
 1122YOPC   C4B14608   9.449  10.176   5.925 -0.1760 -0.3398  0.1691
 1123YOPC   NC314609  14.619   9.855   5.854  0.0264  0.2578  0.2537
 1123YOPC   PO414610  15.073   9.891   6.115 -0.3545  0.0034  0.0133
 1123YOPC   GL114611  14.832   9.776   6.474  0.0477 -0.3621 -0.5098
 1123YOPC   GL214612  14.566   9.727   6.307  0.0244  0.1049  0.1726
 1123YOPC   C1A14613  14.503   9.640   6.882  0.1895  0.3770  0.1098
 1123YOPC   D2A14614  14.431   9.769   7.338  0.2826 -0.1417 -0.1225
 1123YOPC   C3A14615  14.628  10.128   7.488  0.0584  0.1071 -0.0629
 1123YOPC   C4A14616  14.934  10.475   7.434  0.0557 -0.0825 -0.0298
 1123YOPC   C1B14617  14.684  10.229   6.573  0.2030  0.1201  0.3145
 1123YOPC   C2B14618  14.916  10.556   6.551  0.2388  0.0849 -0.1383
 1123YOPC   D3B14619  14.952  10.725   6.945  0.0836 -0.3921 -0.2969
 1123YOPC   C4B14620  14.749  10.867   7.263  0.1555  0.0858 -0.0317
 1124YOPC   NC314621  16.459   3.849   5.135  0.2087  0.0768  0.6688
 1124YOPC   PO414622  16.334   3.600   5.468 -0.1990 -0.1979 -0.1960
 1124YOPC   GL114623  16.583   3.564   5.752  0.1350  0.0178 -0.2422
 1124YOPC   GL214624  16.771   3.845   5.617 -0.2229  0.0197 -0.1430
 1124YOPC   C1A14625  16.698   3.403   6.151 -0.2017  0.0682 -0.0554
 1124YOPC   D2A14626  16.563   3.348   6.668  0.0685  0.1644  0.0673
 1124YOPC   C3A14627  16.496   3.062   7.093  0.2160  0.1723 -0.1832
 1124YOPC   C4A14628  16.483   3.098   7.540 -0.1895 -0.1525  0.0256
 1124YOPC   C1B14629  17.066   3.510   5.864 -0.0681  0.1985  0.0741
 1124YOPC   C2B14630  17.125   3.078   6.200  0.0927  0.4515 -0.0988
 1124YOPC   D3B14631  17.475   3.187   6.422  0.2158  0.0741 -0.2778
 1124YOPC   C4B14632  17.976   3.225   6.446  0.0764  0.1833  0.3596
 1125YOPC   NC314633  16.469  14.034   5.789 -0.0041  0.1940 -0.0516
 1125YOPC   PO414634  16.562  13.571   5.791 -0.2461  0.3492  0.2850
 1125YOPC   GL114635  16.559  13.629   6.224  0.5142 -0.1181 -0.1506
 1125YOPC   GL214636  16.527  14.003   6.297 -0.0754 -0.0767  0.3655
 1125YOPC   C1A14637  16.725  13.581   6.604 -0.0298  0.1298 -0.1325
 1125YOPC   D2A14638  17.035  13.490   6.874  0.2077 -0.3584 -0.1336
 1125YOPC   C3A14639  16.954  13.434   7.207  0.0479  0.0324 -0.0668
 1125YOPC   C4A14640  16.928  13.530   7.623  0.0596 -0.0319  0.1667
 1125YOPC   C1B14641  16.353  13.929   6.631  0.0480  0.1584  0.0271
 1125YOPC   C2B14642  16.118  14.046   7.008 -0.0493 -0.0565 -0.1220
 1125YOPC   D3B14643  16.061  13.820   7.289 -0.1859  0.3708  0.2904
 1125YOPC   C4B14644  15.915  13.693   7.653  0.1751  0.3167  0.0399
 1126YOPC   NC314645  18.322   3.296   5.389  0.1901  0.1787 -0.4255
 1126YOPC   PO414646  17.951   2.968   5.389 -0.3077  0.3662 -0.1325
 1126YOPC   GL114647  18.005   3.275   5.754 -0.0553 -0.0318 -0.0220
 1126YOPC   GL214648  18.257   3.226   5.923 -0.3943  0.3350 -0.1250
 1126YOPC   C1A14649  17.910   3.552   6.045 -0.0670 -0.2044  0.1489
 1126YOPC   D2A14650  17.781   3.726   6.438 -0.0784  0.2182  0.1485
 1126YOPC   C3A14651  17.727   3.963   6.743  0.3691 -0.0141 -0.1968
 1126YOPC   C4A14652  17.986   4.215   7.162 -0.1284  0.1033 -0.0443
 1126YOPC   C1B14653  18.354   3.581   6.355 -0.0708 -0.1791  0.1846
 1126YOPC   C2B14654  18.197   3.702   6.754 -0.1180  0.1177 -0.5164
 1126YOPC   D3B14655  17.933   3.471   6.884 -0.1781 -0.3321 -0.2309
 1126YOPC   C4B14656  17.451   3.520   6.849  0.1034  0.2910 -0.0013
 1127YOPC   NC314657  12.290   2.362   5.409 -0.1413 -0.1378  0.0071
 1127YOPC   PO414658  12.197   2.735   5.399  0.1101  0.2467  0.1566
 1127YOPC   GL114659  12.285   2.800   5.787  0.1653 -0.1028  0.0307
 1127YOPC   GL214660  12.052   2.715   6.007  0.3311 -0.0618 -0.3120
 1127YOPC   C1A14661  12.485   3.140   6.165 -0.3246  0.2961 -0.4743
 1127YOPC   D2A14662  12.322   3.390   6.507  0.1157  0.0212 -0.1764
 1127YOPC   C3A14663  12.152   3.680   6.719 -0.4046 -0.0154 -0.0736
 1127YOPC   C4A14664  12.365   3.883   7.088 -0.0780  0.1529  0.2782
 1127YOPC   C1B14665  12.315   2.508   6.324  0.4715  0.2534 -0.0766
 1127YOPC   C2B14666  12.273   2.380   6.656 -0.0324 -0.2393 -0.0286
 1127YOPC   D3B14667  12.325   2.461   7.071  0.2219  0.0421  0.0245
 1127YOPC   C4B14668  12.524   2.728   7.386  0.0755 -0.1816 -0.1815
 1128YOPC   NC314669  11.693  16.739   4.931  0.0356 -0.3591 -0.0274
 1128YOPC   PO414670  11.938  16.870   5.168  0.1719  0.0876  0.1499
 1128YOPC   GL114671  11.841  16.547   5.450  0.0756  0.2456  0.0681
 1128YOPC   GL214672  12.093  16.499   5.550 -0.0521  0.1319 -0.3730
 1128YOPC   C1A14673  11.711  16.157   5.584  0.1403 -0.0643  0.0575
 1128YOPC   D2A14674  11.427  15.832   5.628 -0.2935 -0.2129 -0.0546
 1128YOPC   C3A14675  11.051  15.980   5.851  0.1744  0.0884 -0.1220
 1128YOPC   C4A14676  10.773  15.765   5.865 -0.1461  0.0837  0.1986
 1128YOPC   C1B14677  11.951  16.373   5.984  0.0286 -0.3052 -0.2408
 1128YOPC   C2B14678  11.813  16.150   6.286  0.3257 -0.1453 -0.0275
 1128YOPC   D3B14679  11.551  15.880   6.211  0.0018 -0.1201  0.1547
 1128YOPC   C4B14680  11.142  15.766   6.287  0.2443  0.1573  0.0987
 1129YOPC   NC314681  16.830   1.794   5.051  0.0290  0.0388  0.0187
 1129YOPC   PO414682  16.638   2.097   5.295 -0.0441 -0.2564 -0.1611
 1129YOPC   GL114683  16.746   1.994   5.650  0.3085  0.2758 -0.4661
 1129YOPC   GL214684  16.795   1.596   5.592  0.1519  0.3247  0.0776
 1129YOPC   C1A14685  16.669   1.865   6.058  0.3717  0.1815 -0.0780
 1129YOPC   D2A14686  16.807   1.737   6.545 -0.1750 -0.2747 -0.0457
 1129YOPC   C3A14687  17.217   1.684   6.482  0.0033 -0.2177 -0.1283
 1129YOPC   C4A14688  17.495   1.402   6.362  0.1282 -0.1594 -0.3023
 1129YOPC   C1B14689  16.503   1.450   5.838  0.1006 -0.3842 -0.0825
 1129YOPC   C2B14690  16.459   1.494   6.257  0.2895 -0.5701 -0.1940
 1129YOPC   D3B14691  16.058   1.776   6.199 -0.1683  0.2252  0.0870
 1129YOPC   C4B14692  15.607   1.755   6.269  0.2557  0.3605  0.3715
 1130YOPC   NC314693   5.439   2.744   5.691 -0.2245  0.3640 -0.2041
 1130YOPC   PO414694   5.567   3.030   6.041  0.0339 -0.2185  0.1345
 1130YOPC   GL114695   5.508   2.996   6.546  0.1269  0.2243  0.0052
 1130YOPC   GL214696   5.542   2.670   6.638  0.2333  0.1040  0.0625
 1130YOPC   C1A14697   5.530   3.195   6.938  0.0053 -0.1058  0.1697
 1130YOPC   D2A14698   5.429   3.288   7.403  0.1632  0.3048 -0.1684
 1130YOPC   C3A14699   5.164   3.034   7.666  0.0686  0.1589 -0.1289
 1130YOPC   C4A14700   4.786   3.125   7.979  0.0102 -0.0068  0.3655
 1130YOPC   C1B14701   5.568   2.710   7.011  0.3468 -0.3664  0.1985
 1130YOPC   C2B14702   5.683   2.845   7.452 -0.0091 -0.0099 -0.0410
 1130YOPC   D3B14703   5.504   2.630   7.810  0.0670  0.1628 -0.0632
 1130YOPC   C4B14704   5.543   2.442   8.254 -0.2877 -0.2065 -0.4750
 1131YOPC   NC314705  17.187  10.944   5.815  0.0426 -0.0680  0.0588
 1131YOPC   PO414706  17.145  11.233   6.108 -0.0411  0.1488 -0.1208
 1131YOPC   GL114707  17.040  11.100   6.356  0.0354  0.3331  0.0809
 1131YOPC   GL214708  16.949  10.712   6.449  0.1074 -0.0023  0.1203
 1131YOPC   C1A14709  16.832  11.126   6.821  0.1550  0.0916 -0.0523
 1131YOPC   D2A14710  16.787  11.219   7.211  0.2486 -0.0580  0.1071
 1131YOPC   C3A14711  16.723  11.175   7.678  0.4040 -0.1110  0.0441
 1131YOPC   C4A14712  16.552  11.258   8.033 -0.2136  0.2528  0.0020
 1131YOPC   C1B14713  16.749  10.587   6.868 -0.3143 -0.1037 -0.0352
 1131YOPC   C2B14714  16.534  10.667   7.194 -0.0188 -0.3127  0.2132
 1131YOPC   D3B14715  16.351  10.970   6.964  0.0538  0.0485 -0.0540
 1131YOPC   C4B14716  16.309  10.943   6.542 -0.2769  0.1503 -0.0866
 1132YOPC   NC314717  14.671  11.596   5.237 -0.1915  0.0442 -0.2791
 1132YOPC   PO414718  14.861  11.941   5.506 -0.1724  0.2383 -0.2514
 1132YOPC   GL114719  14.592  12.120   5.824 -0.0591  0.0464 -0.3454
 1132YOPC   GL214720  14.622  12.570   5.909 -0.0373 -0.1885 -0.1275
 1132YOPC   C1A14721  14.453  12.175   6.229 -0.1926  0.1114  0.0047
 1132YOPC   D2A14722  14.719  12.223   6.600  0.0710  0.4019  0.0665
 1132YOPC   C3A14723  14.767  12.264   7.115  0.3408  0.3118 -0.2926
 1132YOPC   C4A14724  15.113  12.349   7.390  0.0515 -0.0138  0.1315
 1132YOPC   C1B14725  14.869  12.581   6.283  0.0904 -0.2174  0.0825
 1132YOPC   C2B14726  14.870  12.690   6.706  0.1022 -0.4180  0.1305
 1132YOPC   D3B14727  15.168  12.817   7.082 -0.1371 -0.1555  0.3205
 1132YOPC   C4B14728  15.206  12.927   7.457  0.1176  0.3404  0.1673
 1133YOPC   NC314729   2.253   4.358   5.664  0.0438  0.1000  0.1320
 1133YOPC   PO414730   2.618   4.676   5.686 -0.0404 -0.1528  0.0788
 1133YOPC   GL114731   2.815   4.811   5.924  0.2132  0.2007  0.2440
 1133YOPC   GL214732   2.678   5.102   6.066 -0.1661 -0.2461  0.1752
 1133YOPC   C1A14733   2.996   4.760   6.338  0.0041  0.2223  0.2502
 1133YOPC   D2A14734   2.937   4.771   6.747  0.2978 -0.5119 -0.1086
 1133YOPC   C3A14735   3.096   4.913   7.142  0.0894  0.0193  0.2678
 1133YOPC   C4A14736   3.402   4.909   7.339 -0.4106  0.2794 -0.3093
 1133YOPC   C1B14737   2.822   5.205   6.504 -0.1340  0.1505 -0.1015
 1133YOPC   C2B14738   2.767   5.277   6.985  0.0362  0.0257 -0.0443
 1133YOPC   D3B14739   2.637   4.928   7.275 -0.1555 -0.0543 -0.2881
 1133YOPC   C4B14740   2.571   4.760   7.648 -0.0647  0.1035 -0.0774
 1134YOPC   NC314741   9.124   0.912   5.743 -0.1768 -0.1082  0.1217
 1134YOPC   PO414742   9.297   1.287   5.907 -0.3672  0.0181  0.2059
 1134YOPC   GL114743   9.288   1.393   6.374  0.0661  0.0834 -0.1295
 1134YOPC   GL214744   9.508   1.615   6.595 -0.0303  0.1607 -0.3952
 1134YOPC   C1A14745   9.240   1.239   6.756 -0.1525 -0.0733 -0.1803
 1134YOPC   D2A14746   9.246   1.376   7.175  0.0827 -0.2050  0.0644
 1134YOPC   C3A14747   9.507   1.156   7.382 -0.1517  0.0682  0.0754
 1134YOPC   C4A14748   9.686   1.184   7.764 -0.1615 -0.0433 -0.2627
 1134YOPC   C1B14749   9.429   1.943   6.922 -0.0003  0.1854  0.0641
 1134YOPC   C2B14750   9.386   2.242   7.267  0.5632  0.1990 -0.0906
 1134YOPC   D3B14751   9.330   2.012   7.682 -0.1731  0.2112 -0.0495
 1134YOPC   C4B14752   8.954   1.920   7.918  0.2905  0.1691 -0.4071
 1135YOPC   NC314753  12.234   8.060   5.400  0.1523 -0.0573 -0.2241
 1135YOPC   PO414754  12.197   8.480   5.393 -0.0185  0.1242 -0.0606
 1135YOPC   GL114755  12.296   8.502   5.724 -0.2249  0.0875 -0.4143
 1135YOPC   GL214756  12.264   8.113   5.918  0.2232  0.3970 -0.1707
 1135YOPC   C1A14757  12.315   8.587   6.182  0.0038 -0.1870 -0.1057
 1135YOPC   D2A14758  12.087   8.224   6.463 -0.0192  0.0569 -0.0927
 1135YOPC   C3A14759  12.149   7.915   6.363 -0.2450 -0.2211  0.1546
 1135YOPC   C4A14760  12.424   7.564   6.239 -0.0364  0.1950 -0.1676
 1135YOPC   C1B14761  12.601   8.190   6.183 -0.1009  0.0054 -0.3058
 1135YOPC   C2B14762  12.520   8.157   6.636  0.0005 -0.0462 -0.0757
 1135YOPC   D3B14763  12.661   8.101   7.045 -0.0004 -0.1666 -0.1866
 1135YOPC   C4B14764  12.481   8.174   7.409 -0.1740 -0.0627  0.1992
 1136YOPC   NC314765  12.501  18.149   5.464  0.0018  0.5205 -0.0871
 1136YOPC   PO414766  12.299  17.775   5.408 -0.1511 -0.2064  0.1052
 1136YOPC   GL114767  12.233  17.918   5.844 -0.0778  0.2206 -0.1762
 1136YOPC   GL214768  11.955  18.010   6.128 -0.1782 -0.0778  0.0227
 1136YOPC   C1A14769  12.358  18.331   6.048  0.2169  0.0110 -0.1881
 1136YOPC   D2A14770  12.237  18.678   6.193  0.0520 -0.0003 -0.2555
 1136YOPC   C3A14771  12.286  18.780   6.650  0.0547  0.1291 -0.0497
 1136YOPC   C4A14772  12.659  18.766   6.876 -0.0357  0.1300  0.2759
 1136YOPC   C1B14773  12.204  18.025   6.397  0.0728 -0.1962 -0.1107
 1136YOPC   C2B14774  12.568  17.900   6.703  0.2529  0.1668 -0.0486
 1136YOPC   D3B14775  12.318  17.708   6.982 -0.1806  0.0657  0.0003
 1136YOPC   C4B14776  11.994  17.844   6.869 -0.0304  0.4433  0.0091
 1137YOPC   NC314777  14.696   2.981   5.994 -0.0542  0.0725 -0.0987
 1137YOPC   PO414778  14.706   3.343   5.970 -0.3851  0.2108  0.1861
 1137YOPC   GL114779  14.987   3.480   6.397  0.2774 -0.2987  0.0376
 1137YOPC   GL214780  15.217   3.326   6.382 -0.0287  0.1145 -0.0942
 1137YOPC   C1A14781  14.841   3.407   6.697 -0.1398 -0.0540 -0.2234
 1137YOPC   D2A14782  14.835   3.470   7.109  0.1747  0.0055 -0.0880
 1137YOPC   C3A14783  15.116   3.296   7.312  0.5075 -0.0017  0.2833
 1137YOPC   C4A14784  15.041   2.948   7.597 -0.1504  0.2238  0.0690
 1137YOPC   C1B14785  15.304   3.209   6.845  0.3209 -0.0917 -0.0809
 1137YOPC   C2B14786  15.412   2.960   7.011 -0.0433  0.3613 -0.1215
 1137YOPC   D3B14787  15.210   2.578   7.224 -0.0554  0.2704 -0.0823
 1137YOPC   C4B14788  15.299   2.502   7.688 -0.0387 -0.1338 -0.0387
 1138YOPC   NC314789   8.019  17.126   5.314 -0.1795  0.0444  0.1391
 1138YOPC   PO414790   7.927  16.920   5.684 -0.0327 -0.2132 -0.0263
 1138YOPC   GL114791   7.764  16.821   6.016 -0.1276  0.1980  0.1728
 1138YOPC   GL214792   7.857  16.926   6.254  0.2946 -0.0082 -0.0709
 1138YOPC   C1A14793   7.450  16.632   6.310  0.2182 -0.0083  0.0472
 1138YOPC   D2A14794   7.142  16.621   6.540 -0.0404  0.1133 -0.2202
 1138YOPC   C3A14795   7.366  16.595   6.826  0.1689 -0.0591 -0.0004
 1138YOPC   C4A14796   7.101  16.467   7.147 -0.2561  0.2910  0.0779
 1138YOPC   C1B14797   7.847  16.738   6.635  0.2392 -0.0333 -0.0991
 1138YOPC   C2B14798   7.876  16.760   7.102  0.2455 -0.1170  0.4037
 1138YOPC   D3B14799   8.154  17.008   7.313  0.2752  0.1404 -0.3001
 1138YOPC   C4B14800   8.048  17.334   7.391 -0.0045 -0.2791  0.0257
 1139YOPC   NC314801  14.882   8.043   5.696  0.1815 -0.0239  0.0013
 1139YOPC   PO414802  15.280   7.810   5.579 -0.0437  0.0169 -0.2846
 1139YOPC   GL114803  15.279   7.719   6.012 -0.4552 -0.3871  0.0847
 1139YOPC   GL214804  15.117   7.984   6.171  0.0450 -0.0545 -0.1857
 1139YOPC   C1A14805  14.952   7.545   6.344 -0.2091  0.0475 -0.1099
 1139YOPC   D2A14806  14.822   7.118   6.436 -0.1165 -0.0017  0.0431
 1139YOPC   C3A14807  14.720   7.003   6.907 -0.0278  0.1723 -0.0823
 1139YOPC   C4A14808  15.001   7.050   7.282 -0.0431  0.4135  0.0208
 1139YOPC   C1B14809  15.172   7.858   6.658 -0.0042 -0.1356  0.2191
 1139YOPC   C2B14810  15.424   7.709   6.982 -0.0441 -0.2031  0.0626
 1139YOPC   D3B14811  15.462   7.883   7.376  0.1075 -0.1814  0.0735
 1139YOPC   C4B14812  15.791   8.018   7.698  0.0500 -0.0293  0.3067
 1140YOPC   NC314813  15.383  12.759   5.426 -0.0811  0.2153 -0.1220
 1140YOPC   PO414814  15.650  12.526   5.758 -0.4424  0.0873  0.3220
 1140YOPC   GL114815  15.595  12.384   6.199 -0.2525 -0.0586 -0.0636
 1140YOPC   GL214816  15.810  12.145   6.348 -0.0747 -0.0550  0.1553
 1140YOPC   C1A14817  15.221  12.162   6.362  0.0663  0.2092  0.3262
 1140YOPC   D2A14818  15.145  12.253   6.750 -0.1056  0.1977  0.3390
 1140YOPC   C3A14819  15.359  11.806   6.821  0.0661  0.1887 -0.1601
 1140YOPC   C4A14820  15.563  11.609   7.179  0.1082  0.0613  0.1605
 1140YOPC   C1B14821  15.653  12.351   6.700 -0.1663 -0.2528  0.0158
 1140YOPC   C2B14822  15.531  12.443   7.126 -0.2682  0.2725  0.2039
 1140YOPC   D3B14823  15.601  12.070   7.241 -0.1274 -0.1732  0.3084
 1140YOPC   C4B14824  15.586  11.839   7.657 -0.2365  0.1435  0.2474
 1141YOPC   NC314825  10.693  13.287   4.764  0.0331  0.1006  0.0042
 1141YOPC   PO414826  11.055  13.494   5.052  0.0895 -0.1911  0.1660
 1141YOPC   GL114827  11.203  13.510   5.494 -0.0778  0.0674 -0.2541
 1141YOPC   GL214828  11.016  13.229   5.718  0.0103 -0.1343  0.1704
 1141YOPC   C1A14829  11.426  13.522   5.966  0.1989  0.0858  0.2454
 1141YOPC   D2A14830  11.350  13.908   6.301 -0.4284 -0.1642  0.2374
 1141YOPC   C3A14831  11.309  13.753   6.638  0.0190 -0.0575  0.1394
 1141YOPC   C4A14832  11.097  13.765   6.981  0.1495 -0.5296  0.0998
 1141YOPC   C1B14833  11.077  13.144   6.211  0.1225 -0.3393 -0.0063
 1141YOPC   C2B14834  11.214  13.264   6.501 -0.2607  0.1749 -0.1072
 1141YOPC   D3B14835  11.437  13.236   6.906  0.1978 -0.0276  0.0956
 1141YOPC   C4B14836  11.711  13.384   7.304  0.0023  0.2337 -0.0312
 1142YOPC   NC314837   0.286  16.596   5.540  0.2486  0.2425  0.1741
 1142YOPC   PO414838   0.281  16.572   5.928  0.2802  0.1338 -0.0456
 1142YOPC   GL114839   0.539  16.795   6.139  0.3419  0.3287  0.3425
 1142YOPC   GL214840   0.502  16.976   6.018  0.0950 -0.1138  0.1486
 1142YOPC   C1A14841   0.759  16.932   6.436  0.2004  0.3298  0.0466
 1142YOPC   D2A14842   0.662  16.914   6.869 -0.0392  0.3653 -0.1051
 1142YOPC   C3A14843   0.897  16.908   7.163 -0.2103 -0.5335 -0.2140
 1142YOPC   C4A14844   0.989  16.822   7.527 -0.1029 -0.0075 -0.1307
 1142YOPC   C1B14845   0.229  17.266   6.203  0.1790  0.0611 -0.0470
 1142YOPC   C2B14846   0.198  17.546   6.563  0.1753 -0.0367 -0.0898
 1142YOPC   D3B14847   0.254  17.944   6.824 -0.2363 -0.3063  0.1960
 1142YOPC   C4B14848   0.236  18.396   6.974  0.2966 -0.5780 -0.1356
 1143YOPC   NC314849   6.069   3.327   6.408  0.0030  0.1454  0.1386
 1143YOPC   PO414850   6.203   3.743   6.298 -0.0365 -0.0679  0.2062
 1143YOPC   GL114851   6.332   3.612   6.745 -0.1132  0.4058  0.0410
 1143YOPC   GL214852   6.479   3.317   6.766 -0.0813  0.3369  0.2428
 1143YOPC   C1A14853   5.983   3.631   7.095 -0.2337 -0.4166  0.0365
 1143YOPC   D2A14854   5.905   3.793   7.518 -0.0596 -0.1546  0.2146
 1143YOPC   C3A14855   5.592   3.667   7.778  0.2967  0.0206 -0.0473
 1143YOPC   C4A14856   5.318   3.353   8.119 -0.2293 -0.0116 -0.1026
 1143YOPC   C1B14857   6.420   3.254   7.121 -0.0129  0.0492  0.1283
 1143YOPC   C2B14858   6.410   3.565   7.552  0.0306  0.0332 -0.0069
 1143YOPC   D3B14859   6.437   3.368   7.846  0.4414 -0.3277  0.1941
 1143YOPC   C4B14860   6.198   3.080   7.976 -0.2810  0.0026 -0.0686
 1144ERGO   ROH14861   6.889   6.175   9.681 -0.1074  0.0967  0.0153
 1144ERGO    R114862   6.865   6.030   9.439 -0.0122  0.0057  0.0598
 1144ERGO    R214863   6.651   6.061   9.267 -0.0430 -0.2010  0.0575
 1144ERGO    R314864   6.847   6.108   9.084 -0.0834 -0.1141  0.0363
 1144ERGO    R414865   6.633   5.978   8.932 -0.1638  0.0610 -0.0032
 1144ERGO    R514866   6.842   5.917   8.940 -0.1774 -0.0036 -0.1108
 1144ERGO    C114867   6.806   5.974   8.565 -0.2720  0.2951 -0.0584
 1144ERGO    C214868   6.853   5.973   8.283  0.0666  0.0395 -0.2372
 1145ERGO   ROH14869   1.524   5.792   9.613  0.1532  0.1043 -0.0074
 1145ERGO    R114870   1.668   5.735   9.376  0.0296  0.0644 -0.0742
 1145ERGO    R214871   1.710   5.478   9.285  0.0856  0.0413  0.0132
 1145ERGO    R314872   1.600   5.575   9.057 -0.1030 -0.1067  0.0385
 1145ERGO    R414873   1.740   5.331   8.974  0.1564  0.0483  0.0164
 1145ERGO    R514874   1.764   5.530   8.888 -0.1034  0.0702 -0.0100
 1145ERGO    C114875   1.654   5.337   8.578  0.0206 -0.0865  0.0421
 1145ERGO    C214876   1.763   5.233   8.248  0.0429 -0.1692 -0.1420
 1146ERGO   ROH14877   7.822  12.837   9.560 -0.1519  0.2784  0.1879
 1146ERGO    R114878   7.852  12.956   9.305 -0.1213  0.0946  0.1057
 1146ERGO    R214879   8.001  12.840   9.103 -0.0872 -0.0400  0.2195
 1146ERGO    R314880   7.771  12.869   8.961 -0.0615 -0.1556  0.1497
 1146ERGO    R414881   7.983  12.871   8.759  0.0554  0.2953  0.2371
 1146ERGO    R514882   7.828  13.021   8.785 -0.1387  0.1025  0.3304
 1146ERGO    C114883   7.757  12.916   8.425  0.1625  0.3819  0.1818
 1146ERGO    C214884   7.699  12.948   8.146  0.0139 -0.0699  0.1987
 1147ERGO   ROH14885   3.383  18.174   9.679 -0.1335  0.2029  0.0268
 1147ERGO    R114886   3.210  18.255   9.470  0.0559  0.3874 -0.0624
 1147ERGO    R214887   3.288  18.428   9.270  0.4815 -0.0139 -0.2576
 1147ERGO    R314888   3.204  18.228   9.107  0.0031 -0.0042 -0.0378
 1147ERGO    R414889   3.168  18.471   8.949  0.5367 -0.0652 -0.2856
 1147ERGO    R514890   3.017  18.320   8.990  0.1887  0.3092 -0.1037
 1147ERGO    C114891   3.018  18.308   8.609  0.1197 -0.0863 -0.0956
 1147ERGO    C214892   2.917  18.161   8.283  0.4262  0.1229 -0.1980
 1148ERGO   ROH14893  18.445  11.576   9.603 -0.1022  0.0600  0.0061
 1148ERGO    R114894  18.426  11.418   9.369 -0.0443  0.0518  0.0075
 1148ERGO    R214895  18.514  11.507   9.123  0.1039  0.0046  0.0463
 1148ERGO    R314896  18.657  11.276   9.126  0.0221 -0.0461  0.1256
 1148ERGO    R414897  18.622  11.337   8.842  0.1502 -0.0577  0.1009
 1148ERGO    R514898  18.571  11.150   8.941  0.0450 -0.0332  0.1025
 1148ERGO    C114899  18.819  11.021   8.681  0.1002 -0.1416  0.2069
 1148ERGO    C214900  18.853  11.023   8.340 -0.4272 -0.1123  0.0197
 1149ERGO   ROH14901  18.503  14.302   6.406 -0.0886  0.2366  0.0830
 1149ERGO    R114902  18.503  14.352   6.684 -0.0663  0.1262  0.1032
 1149ERGO    R214903  18.460  14.152   6.871 -0.0709  0.0559  0.0263
 1149ERGO    R314904  18.696  14.243   6.973 -0.0568 -0.0046  0.0487
 1149ERGO    R414905  18.578  14.083   7.189 -0.1233  0.0285  0.0400
 1149ERGO    R514906  18.647  14.289   7.203 -0.0696  0.0118  0.0437
 1149ERGO    C114907  18.868  14.128   7.469 -0.1408 -0.0443  0.0691
 1149ERGO    C214908  19.131  14.176   7.692  0.2321 -0.2727  0.0210
 1150ERGO   ROH14909   8.581   0.805   8.067  0.2676 -0.1222  0.2441
 1150ERGO    R114910   8.371   0.812   8.256  0.1767 -0.0197  0.1402
 1150ERGO    R214911   8.133   0.945   8.210  0.2275  0.0178 -0.0155
 1150ERGO    R314912   8.023   0.703   8.269  0.1462  0.0592  0.0047
 1150ERGO    R414913   7.794   0.884   8.236  0.2048  0.1246 -0.0533
 1150ERGO    R514914   7.836   0.756   8.408  0.1425  0.1367 -0.0286
 1150ERGO    C114915   7.494   0.621   8.308  0.1151  0.2258 -0.0562
 1150ERGO    C214916   7.177   0.509   8.265  0.1712  0.2377 -0.0296
 1151ERGO   ROH14917   9.403   3.221  10.036 -0.0704 -0.0983 -0.1746
 1151ERGO    R114918   9.456   3.281   9.764  0.0376 -0.1591 -0.1669
 1151ERGO    R214919   9.509   3.084   9.576 -0.0952 -0.2160 -0.1426
 1151ERGO    R314920   9.305   3.203   9.442  0.0353 -0.0438 -0.1946
 1151ERGO    R414921   9.483   3.105   9.232 -0.0319 -0.2730 -0.1517
 1151ERGO    R514922   9.409   3.309   9.255  0.1651 -0.1902 -0.2089
 1151ERGO    C114923   9.275   3.229   8.906  0.1274 -0.1445 -0.2059
 1151ERGO    C214924   9.069   3.164   8.562 -0.1844  0.2832  0.2919
 1152ERGO   ROH14925  14.002   5.792   6.575 -0.1437 -0.1282  0.0359
 1152ERGO    R114926  14.048   5.978   6.783 -0.3616  0.0871 -0.1061
 1152ERGO    R214927  13.843   6.108   6.914 -0.5519 -0.4708  0.1499
 1152ERGO    R314928  13.964   6.007   7.136  0.0978 -0.0400  0.0251
 1152ERGO    R414929  13.801   6.230   7.235 -0.9199 -0.7690  0.2232
 1152ERGO    R514930  14.014   6.199   7.270 -0.6935  0.1920  0.0598
 1152ERGO    C114931  13.889   6.205   7.630 -0.5243 -0.5384  0.1487
 1152ERGO    C214932  13.971   6.273   7.907  0.0769  0.0476 -0.1681
 1153ERGO   ROH14933  12.332  18.605   9.433  0.1194  0.0080  0.1469
 1153ERGO    R114934  12.417  18.761   9.213  0.2494 -0.1055  0.1147
 1153ERGO    R214935  12.555  18.654   8.998  0.0733 -0.2858  0.0855
 1153ERGO    R314936  12.355  18.769   8.854  0.1664 -0.0607  0.1310
 1153ERGO    R414937  12.572  18.728   8.661  0.0963 -0.2285  0.0987
 1153ERGO    R514938  12.468  18.915   8.702  0.2845 -0.1381  0.1484
 1153ERGO    C114939  12.394  18.878   8.329  0.1970  0.0162  0.1491
 1153ERGO    C214940  12.709  18.975   8.110  0.1322 -0.0403  0.0403
 1154ERGO   ROH14941   2.119   4.425   6.140 -0.0835 -0.1234  0.0214
 1154ERGO    R114942   2.024   4.531   6.384  0.0117  0.0111  0.0019
 1154ERGO    R214943   1.901   4.376   6.576 -0.2099  0.1701 -0.0005
 1154ERGO    R314944   2.092   4.482   6.738 -0.0952 -0.0524  0.0120
 1154ERGO    R414945   1.909   4.342   6.920 -0.2707  0.1795  0.0015
 1154ERGO    R514946   1.972   4.550   6.934 -0.0227  0.1006 -0.0017
 1154ERGO    C114947   2.094   4.422   7.272 -0.1984 -0.0240  0.0145
 1154ERGO    C214948   2.074   4.452   7.641  0.2817  0.2796  0.1261
 1155ERGO   ROH14949   7.396  10.119   9.240 -0.0642  0.2555 -0.0058
 1155ERGO    R114950   7.519  10.036   8.999 -0.0221  0.2405  0.0202
 1155ERGO    R214951   7.377   9.924   8.790  0.0469  0.0062  0.0921
 1155ERGO    R314952   7.494  10.123   8.646 -0.1470  0.0410 -0.0202
 1155ERGO    R414953   7.399   9.932   8.445  0.0404 -0.1586  0.0869
 1155ERGO    R514954   7.602  10.010   8.465 -0.0375  0.0486  0.0433
 1155ERGO    C114955   7.522  10.124   8.110 -0.1454 -0.2220 -0.0215
 1155ERGO    C214956   7.544  10.069   7.798  0.3817  0.0460 -0.1622
 1156ERGO   ROH14957  10.306  13.270   8.903  0.1548  0.0217  0.0758
 1156ERGO    R114958  10.233  13.235   8.632  0.1145 -0.0022  0.0908
 1156ERGO    R214959  10.419  13.198   8.431  0.0761 -0.1231  0.0854
 1156ERGO    R314960  10.270  12.976   8.379 -0.0237 -0.0697  0.1358
 1156ERGO    R414961  10.404  13.036   8.126  0.1181 -0.2544  0.1515
 1156ERGO    R514962  10.190  13.009   8.156  0.0831 -0.1255  0.0827
 1156ERGO    C114963  10.255  12.734   7.900  0.0488 -0.2807  0.2371
 1156ERGO    C214964  10.059  12.504   7.642  0.0409  0.0815  0.1512
 1157ERGO   ROH14965   2.356  14.740   6.371 -0.1026  0.1299  0.0751
 1157ERGO    R114966   2.385  14.630   6.629 -0.1693  0.0343  0.0431
 1157ERGO    R214967   2.592  14.700   6.798 -0.0774 -0.1978  0.0378
 1157ERGO    R314968   2.390  14.754   6.972 -0.0095 -0.0547  0.0729
 1157ERGO    R414969   2.632  14.753   7.138  0.0293 -0.0391  0.0007
 1157ERGO    R514970   2.451  14.637   7.172  0.0110  0.0320  0.1127
 1157ERGO    C114971   2.465  14.836   7.497  0.1552  0.1878  0.0121
 1157ERGO    C214972   2.457  14.718   7.829 -0.1136 -0.2412 -0.1164
 1158ERGO   ROH14973  14.450   3.278   6.403  0.2009  0.1309 -0.0471
 1158ERGO    R114974  14.349   3.338   6.660 -0.0509  0.0257 -0.1185
 1158ERGO    R214975  14.122   3.216   6.763  0.0586 -0.2953 -0.2399
 1158ERGO    R314976  14.288   3.156   6.969  0.0255 -0.0149 -0.1276
 1158ERGO    R414977  14.020   3.106   7.074  0.0299 -0.5060 -0.3228
 1158ERGO    R514978  14.172   3.233   7.164 -0.2547 -0.2355 -0.2014
 1158ERGO    C114979  14.116   2.986   7.449 -0.0177 -0.3654 -0.2657
 1158ERGO    C214980  14.313   2.696   7.685 -0.2718  0.0556  0.0742
 1159ERGO   ROH14981   7.918  14.549   9.446 -0.1359  0.0732 -0.1145
 1159ERGO    R114982   7.869  14.714   9.221 -0.3311 -0.0940 -0.1968
 1159ERGO    R214983   8.067  14.779   9.039 -0.3233  0.3030 -0.0532
 1159ERGO    R314984   7.889  14.679   8.859  0.0375 -0.1550 -0.1751
 1159ERGO    R414985   8.107  14.788   8.696 -0.0954  0.3647 -0.0268
 1159ERGO    R514986   7.895  14.834   8.677 -0.2101 -0.1507 -0.1836
 1159ERGO    C114987   7.964  14.699   8.327  0.3761 -0.0294 -0.1258
 1159ERGO    C214988   8.260  14.624   8.037  0.1655  0.0058 -0.0042
 1160ERGO   ROH14989  12.326  12.045   9.084 -0.1529 -0.0184 -0.0215
 1160ERGO    R114990  12.506  12.082   8.868 -0.0964  0.1376  0.0506
 1160ERGO    R214991  12.553  11.886   8.679  0.2193  0.1420  0.1201
 1160ERGO    R314992  12.486  12.083   8.505  0.0646  0.0211  0.0400
 1160ERGO    R414993  12.620  11.882   8.340  0.0916 -0.0069  0.0956
 1160ERGO    R514994  12.670  12.093   8.352  0.0025  0.0230 -0.0355
 1160ERGO    C114995  12.595  12.065   7.979 -0.1280 -0.2072  0.0061
 1160ERGO    C214996  12.592  12.246   7.579 -0.0551  0.0027  0.0688
 1161ERGO   ROH14997  14.124  15.380   9.300 -0.0827  0.0592 -0.1572
 1161ERGO    R114998  14.271  15.569   9.148  0.1070  0.0908  0.0576
 1161ERGO    R214999  14.547  15.574   9.143  0.1202 -0.1832  0.0619
 1161ERGO    R315000  14.510  15.560   8.874  0.0919  0.1591  0.0440
 1161ERGO    R415001  14.769  15.695   8.907  0.1741 -0.0458  0.1825
 1161ERGO    R515002  14.598  15.767   8.791  0.2147  0.1994  0.2787
 1161ERGO    C115003  14.864  15.752   8.518  0.1789  0.3555  0.2358
 1161ERGO    C215004  14.957  15.860   8.305 -0.1751 -0.0566  0.2395
 1162ERGO   ROH15005   7.309   3.171   6.770  0.1890 -0.3463 -0.1364
 1162ERGO    R115006   7.435   3.355   6.944 -0.1338 -0.1825 -0.0682
 1162ERGO    R215007   7.419   3.336   7.220 -0.0399 -0.3639 -0.0737
 1162ERGO    R315008   7.690   3.342   7.204 -0.0430  0.1789 -0.1336
 1162ERGO    R415009   7.629   3.456   7.466 -0.2090 -0.0450 -0.0782
 1162ERGO    R515010   7.752   3.546   7.311 -0.4182  0.2635 -0.0688
 1162ERGO    C115011   8.006   3.531   7.595 -0.3103  0.6504 -0.1371
 1162ERGO    C215012   8.083   3.514   7.939  0.2414 -0.0497 -0.0401
 1163ERGO   ROH15013   6.971  11.584   8.474 -0.3046 -0.2532  0.0655
 1163ERGO    R115014   6.954  11.525   8.197 -0.1994 -0.1477  0.0356
 1163ERGO    R215015   7.176  11.521   8.033 -0.1507  0.0384  0.0904
 1163ERGO    R315016   7.087  11.271   7.973 -0.0034  0.0148 -0.0341
 1163ERGO    R415017   7.302  11.322   7.780 -0.0790  0.2613 -0.0519
 1163ERGO    R515018   7.098  11.260   7.734 -0.0478  0.1577 -0.0421
 1163ERGO    C115019   7.292  10.971   7.576  0.1011  0.3691 -0.2516
 1163ERGO    C215020   7.247  10.677   7.563 -0.1336  0.1823  0.1145
 1164ERGO   ROH15021  10.199   2.237   9.916  0.1102  0.2130 -0.0943
 1164ERGO    R115022  10.208   2.224   9.633  0.0877  0.1722 -0.0937
 1164ERGO    R215023  10.001   2.316   9.473  0.0348  0.0694 -0.0903
 1164ERGO    R315024  10.200   2.461   9.357 -0.0306  0.1275 -0.1283
 1164ERGO    R415025  10.008   2.411   9.141 -0.0890  0.1367 -0.0736
 1164ERGO    R515026  10.222   2.368   9.138 -0.0844  0.1766 -0.1528
 1164ERGO    C115027  10.198   2.603   8.839 -0.2224  0.2305 -0.0996
 1164ERGO    C215028  10.201   2.741   8.594 -0.1833  0.0204 -0.0213
 1165ERGO   ROH15029   0.816  13.858   9.823  0.1334 -0.0767  0.1000
 1165ERGO    R115030   0.910  13.967   9.579  0.2724 -0.1029  0.1398
 1165ERGO    R215031   1.072  13.825   9.405  0.0447 -0.2735  0.0549
 1165ERGO    R315032   0.879  13.887   9.225  0.1110  0.1034  0.1069
 1165ERGO    R415033   1.111  13.815   9.062 -0.0316 -0.2107  0.0448
 1165ERGO    R515034   0.995  13.999   9.048  0.2598 -0.0183  0.1298
 1165ERGO    C115035   0.952  13.867   8.693 -0.0138  0.1797  0.0877
 1165ERGO    C215036   1.042  13.923   8.390 -0.3167 -0.2564 -0.3134
 1166ERGO   ROH15037   8.688  10.313   9.294  0.0219 -0.0152 -0.0274
 1166ERGO    R115038   8.634  10.458   9.057  0.0499 -0.0231 -0.0370
 1166ERGO    R215039   8.790  10.436   8.830  0.0842 -0.0146 -0.0050
 1166ERGO    R315040   8.553  10.378   8.711  0.1100 -0.0285 -0.0524
 1166ERGO    R415041   8.719  10.491   8.496  0.2025 -0.1208 -0.0496
 1166ERGO    R515042   8.520  10.558   8.556  0.1853 -0.0712 -0.1287
 1166ERGO    C115043   8.455  10.469   8.190  0.2955 -0.1959 -0.1199
 1166ERGO    C215044   8.579  10.458   7.813  0.0905  0.0772  0.0016
 1167ERGO   ROH15045   4.666   6.588   6.595  0.3182 -0.0893 -0.0903
 1167ERGO    R115046   4.649   6.444   6.839  0.0898 -0.0468 -0.0789
 1167ERGO    R215047   4.870   6.398   6.999 -0.0220 -0.2034  0.0282
 1167ERGO    R315048   4.714   6.513   7.190 -0.0195 -0.0561 -0.0559
 1167ERGO    R415049   4.936   6.392   7.338 -0.2993 -0.4336  0.0827
 1167ERGO    R515050   4.724   6.360   7.375 -0.3828 -0.1495 -0.1031
 1167ERGO    C115051   4.828   6.496   7.715 -0.4585 -0.4293  0.0354
 1167ERGO    C215052   4.709   6.562   8.030 -0.1062 -0.0294  0.2715
 1168ERGO   ROH15053   9.639   6.915   9.270  0.0674  0.2873 -0.0341
 1168ERGO    R115054   9.510   6.802   9.045  0.3744  0.2094 -0.1751
 1168ERGO    R215055   9.246   6.855   8.982  0.1706 -0.5247 -0.0262
 1168ERGO    R315056   9.351   6.926   8.741 -0.0857  0.1827  0.0461
 1168ERGO    R415057   9.071   6.865   8.683  0.0457 -0.5046  0.0465
 1168ERGO    R515058   9.245   6.780   8.584  0.2679  0.1382 -0.1625
 1168ERGO    C115059   9.069   6.937   8.284 -0.2676  0.1711  0.1567
 1168ERGO    C215060   9.055   7.074   7.861 -0.0611  0.2370 -0.0352
 1169ERGO   ROH15061  14.503  10.422   9.799  0.2532  0.3079 -0.0614
 1169ERGO    R115062  14.487  10.408   9.517  0.2359  0.3582 -0.0620
 1169ERGO    R215063  14.656  10.551   9.351  0.5185  0.0510 -0.0400
 1169ERGO    R315064  14.707  10.306   9.245  0.0572 -0.0444 -0.0655
 1169ERGO    R415065  14.647  10.476   9.014  0.5143  0.1540 -0.0639
 1169ERGO    R515066  14.552  10.287   9.064  0.0860  0.3267 -0.1457
 1169ERGO    C115067  14.690  10.203   8.718  0.0789  0.1244 -0.1020
 1169ERGO    C215068  14.764  10.316   8.467 -0.1037  0.2482 -0.0413
 1170ERGO   ROH15069  15.862  12.555   9.576 -0.0425 -0.2170 -0.0285
 1170ERGO    R115070  16.031  12.538   9.350 -0.1497 -0.1643 -0.1140
 1170ERGO    R215071  15.953  12.623   9.098 -0.1721  0.1533 -0.0050
 1170ERGO    R315072  16.181  12.771   9.113 -0.0226 -0.0782  0.0501
 1170ERGO    R415073  16.148  12.714   8.828 -0.1643  0.1876  0.0122
 1170ERGO    R515074  16.325  12.675   8.948 -0.1645 -0.0836 -0.0717
 1170ERGO    C115075  16.476  12.905   8.684 -0.0194 -0.0096  0.0740
 1170ERGO    C215076  16.635  13.049   8.554 -0.0280 -0.0575 -0.1268
 1171ERGO   ROH15077   4.102  11.462   9.424  0.0307  0.1229 -0.0161
 1171ERGO    R115078   3.946  11.545   9.202 -0.2339  0.2364  0.2062
 1171ERGO    R215079   3.949  11.412   8.961 -0.0226  0.7178 -0.0754
 1171ERGO    R315080   3.680  11.402   8.998 -0.0011  0.0519  0.0306
 1171ERGO    R415081   3.715  11.424   8.707 -0.1739  0.7624  0.0634
 1171ERGO    R515082   3.592  11.553   8.834 -0.4093  0.2268  0.3989
 1171ERGO    C115083   3.326  11.422   8.594 -0.2418  0.1634  0.2440
 1171ERGO    C215084   3.030  11.456   8.429 -0.1033  0.2833 -0.3656
 1172ERGO   ROH15085   5.838   2.745  10.114 -0.1700  0.0801 -0.0712
 1172ERGO    R115086   5.831   2.761   9.831 -0.0305  0.1230 -0.0733
 1172ERGO    R215087   6.060   2.760   9.677  0.0409 -0.0657  0.0272
 1172ERGO    R315088   5.937   2.552   9.553 -0.0956  0.0609 -0.0509
 1172ERGO    R415089   6.071   2.699   9.337  0.0727  0.0026  0.0161
 1172ERGO    R515090   5.860   2.644   9.345  0.0274  0.1689 -0.0481
 1172ERGO    C115091   5.961   2.468   9.022 -0.0369  0.1612 -0.0637
 1172ERGO    C215092   5.928   2.401   8.658  0.1689  0.1419  0.1774
 1173ERGO   ROH15093  10.111  14.343   9.455  0.0345 -0.3311  0.1640
 1173ERGO    R115094  10.172  14.393   9.183  0.2770 -0.3263  0.2175
 1173ERGO    R215095  10.275  14.200   9.015 -0.0927 -0.4868  0.1684
 1173ERGO    R315096  10.063  14.267   8.859  0.1231  0.0913  0.0988
 1173ERGO    R415097  10.220  14.082   8.695 -0.3709 -0.4586  0.2039
 1173ERGO    R515098  10.153  14.282   8.638  0.2284 -0.2625  0.1100
 1173ERGO    C115099   9.988  14.077   8.363 -0.3304  0.1005  0.1592
 1173ERGO    C215100  10.163  13.925   8.155  0.0986 -0.0804 -0.0615
 1174ERGO   ROH15101  17.381  10.979   6.678 -0.1530  0.2120  0.1469
 1174ERGO    R115102  17.330  10.824   6.909 -0.0356  0.1432  0.1271
 1174ERGO    R215103  17.297  10.936   7.159 -0.0474  0.0796  0.1532
 1174ERGO    R315104  17.064  10.796   7.156  0.0211 -0.0358  0.1700
 1174ERGO    R415105  17.116  10.849   7.440 -0.0619  0.1274  0.1588
 1174ERGO    R515106  17.078  10.654   7.349  0.0518  0.0628  0.2425
 1174ERGO    C115107  16.792  10.666   7.601 -0.0060  0.0469  0.1777
 1174ERGO    C215108  16.692  10.777   7.974  0.0005 -0.1183  0.0821
 1175ERGO   ROH15109  14.032  12.293   9.416  0.1855 -0.1211 -0.2348
 1175ERGO    R115110  14.020  12.309   9.134  0.0529 -0.0416 -0.2259
 1175ERGO    R215111  13.850  12.482   9.001  0.0293  0.0375 -0.0981
 1175ERGO    R315112  14.079  12.563   8.881 -0.0072  0.0133 -0.1840
 1175ERGO    R415113  13.869  12.614   8.683 -0.0754  0.0657 -0.0929
 1175ERGO    R515114  14.052  12.499   8.652 -0.1077  0.0416 -0.1784
 1175ERGO    C115115  14.096  12.767   8.384 -0.1707  0.0596 -0.1706
 1175ERGO    C215116  14.229  12.864   8.019 -0.1343  0.1468  0.1063
 1176ERGO   ROH15117   2.851   7.379   9.625 -0.0954  0.2330 -0.1659
 1176ERGO    R115118   2.942   7.454   9.367  0.1772  0.1741 -0.0906
 1176ERGO    R215119   3.176   7.354   9.257  0.0256 -0.2677 -0.0350
 1176ERGO    R315120   3.011   7.285   9.053 -0.0406  0.1792 -0.1426
 1176ERGO    R415121   3.280   7.230   8.952 -0.0968 -0.2205 -0.0961
 1176ERGO    R515122   3.129   7.352   8.855  0.1435  0.1268 -0.0534
 1176ERGO    C115123   3.186   7.092   8.583 -0.2302  0.2265 -0.2326
 1176ERGO    C215124   3.430   7.014   8.473  0.4723  0.1654  0.0483
 1177ERGO   ROH15125   6.139   1.001  10.079  0.1287  0.0626 -0.0136
 1177ERGO    R115126   6.078   0.972   9.804  0.0742 -0.1030  0.0143
 1177ERGO    R215127   5.853   0.837   9.715 -0.0890  0.0687  0.1473
 1177ERGO    R315128   5.807   1.069   9.582  0.1629  0.0140 -0.0420
 1177ERGO    R415129   5.768   0.860   9.381 -0.0432 -0.1032  0.1235
 1177ERGO    R515130   5.899   1.033   9.364  0.1382 -0.2540 -0.0082
 1177ERGO    C115131   5.674   1.091   9.062  0.2198 -0.2547 -0.0681
 1177ERGO    C215132   5.494   1.009   8.775  0.2765 -0.0442  0.0524
 1178ERGO   ROH15133   5.664  17.029   9.678  0.1507  0.0032  0.1598
 1178ERGO    R115134   5.532  17.087   9.434  0.0939 -0.0064  0.1873
 1178ERGO    R215135   5.569  17.325   9.298  0.1278 -0.0442  0.1235
 1178ERGO    R315136   5.629  17.159   9.091  0.0136 -0.1102  0.1432
 1178ERGO    R415137   5.582  17.421   8.966  0.1489 -0.1081  0.1065
 1178ERGO    R515138   5.486  17.232   8.913  0.0389 -0.0604  0.1464
 1178ERGO    C115139   5.646  17.321   8.579  0.0541 -0.2070  0.1150
 1178ERGO    C215140   5.599  17.497   8.336  0.2764 -0.0486 -0.0731
 1179ERGO   ROH15141  18.298   5.188   8.989 -0.0200 -0.0331 -0.0843
 1179ERGO    R115142  18.486   5.213   8.779 -0.0243 -0.0439 -0.0920
 1179ERGO    R215143  18.512   5.025   8.578 -0.0483 -0.0467 -0.1084
 1179ERGO    R315144  18.475   5.240   8.416 -0.0445 -0.0328 -0.0868
 1179ERGO    R415145  18.565   5.029   8.236 -0.1552 -0.0173 -0.1238
 1179ERGO    R515146  18.652   5.227   8.257 -0.1087 -0.0523 -0.1410
 1179ERGO    C115147  18.562   5.233   7.886 -0.2139  0.0128 -0.1125
 1179ERGO    C215148  18.562   5.251   7.594 -0.4719 -0.0519  0.1077
 1180ERGO   ROH15149   3.145  10.634   6.593  0.0870  0.1122 -0.2895
 1180ERGO    R115150   3.144  10.530   6.856  0.0097 -0.0193 -0.3402
 1180ERGO    R215151   3.374  10.511   7.009 -0.0362 -0.0882 -0.2798
 1180ERGO    R315152   3.228  10.653   7.189 -0.0945 -0.1824 -0.2522
 1180ERGO    R415153   3.442  10.529   7.347  0.0332 -0.0274 -0.2970
 1180ERGO    R515154   3.228  10.516   7.386  0.0490 -0.1766 -0.2459
 1180ERGO    C115155   3.345  10.673   7.713  0.0190 -0.0803 -0.2811
 1180ERGO    C215156   3.391  10.672   8.012  0.3751  0.2090  0.2865
 1181ERGO   ROH15157  13.461   0.881   6.206  0.1214  0.0978  0.0314
 1181ERGO    R115158  13.403   0.860   6.482  0.1675  0.0589  0.0370
 1181ERGO    R215159  13.262   0.647   6.589  0.1441  0.0726  0.0197
 1181ERGO    R315160  13.479   0.627   6.752  0.1663 -0.0063 -0.0169
 1181ERGO    R415161  13.250   0.576   6.927  0.1589  0.2140  0.0517
 1181ERGO    R515162  13.407   0.724   6.959  0.2670  0.1269 -0.0384
 1181ERGO    C115163  13.446   0.516   7.276  0.1886  0.2223  0.0361
 1181ERGO    C215164  13.206   0.391   7.378  0.4208 -0.2581  0.1326
 1182ERGO   ROH15165   3.724  15.728   9.705  0.1577 -0.0349  0.0206
 1182ERGO    R115166   3.856  15.665   9.463  0.0178  0.0077 -0.0682
 1182ERGO    R215167   4.077  15.499   9.453  0.0327  0.0353 -0.2209
 1182ERGO    R315168   3.927  15.365   9.271 -0.0631  0.0371 -0.1443
 1182ERGO    R415169   4.203  15.336   9.175 -0.0969 -0.1023 -0.2001
 1182ERGO    R515170   4.033  15.411   9.061 -0.0937 -0.0710 -0.1838
 1182ERGO    C115171   4.135  15.115   8.842 -0.2624 -0.1807 -0.1161
 1182ERGO    C215172   4.112  15.038   8.568 -0.1453  0.0896 -0.3948
 1183ERGO   ROH15173   9.675   1.645   9.857  0.1619 -0.2204 -0.0407
 1183ERGO    R115174   9.499   1.825   9.727  0.0958 -0.2124  0.0597
 1183ERGO    R215175   9.589   2.039   9.577  0.0175 -0.1404  0.1186
 1183ERGO    R315176   9.432   1.928   9.384  0.0015 -0.1034  0.1095
 1183ERGO    R415177   9.517   2.185   9.272  0.1106 -0.1399  0.0962
 1183ERGO    R515178   9.312   2.113   9.291  0.0797 -0.0657  0.0778
 1183ERGO    C115179   9.328   2.165   8.914  0.1498 -0.1048  0.0748
 1183ERGO    C215180   9.158   2.113   8.521  0.0458  0.1934  0.0676
 1184ERGO   ROH15181  11.985   4.998   8.863 -0.0032 -0.1564  0.1154
 1184ERGO    R115182  11.874   5.036   8.605 -0.1154 -0.1966  0.1573
 1184ERGO    R215183  12.027   5.030   8.375 -0.1634  0.0757  0.1151
 1184ERGO    R315184  11.847   4.842   8.299  0.0454 -0.1206  0.0937
 1184ERGO    R415185  11.979   4.922   8.050 -0.0875  0.1041  0.0940
 1184ERGO    R515186  11.764   4.920   8.088 -0.0813 -0.1603  0.1277
 1184ERGO    C115187  11.781   4.683   7.790  0.1529 -0.0635  0.0616
 1184ERGO    C215188  11.777   4.519   7.532 -0.0014  0.0862  0.2813
 1185ERGO   ROH15189   0.978  10.218   9.274  0.2281 -0.0781 -0.0569
 1185ERGO    R115190   1.013  10.285   9.002  0.2030 -0.0570 -0.0550
 1185ERGO    R215191   0.837  10.204   8.805  0.1411  0.0270 -0.0339
 1185ERGO    R315192   0.828  10.470   8.749  0.2217  0.0368 -0.0005
 1185ERGO    R415193   0.870  10.342   8.489 -0.0695  0.0380 -0.0528
 1185ERGO    R515194   0.991  10.500   8.576  0.0863 -0.0282 -0.1428
 1185ERGO    C115195   0.882  10.671   8.253 -0.1165  0.0535 -0.0326
 1185ERGO    C215196   0.656  10.720   8.003 -0.1168 -0.2879  0.1419
 1186ERGO   ROH15197  18.625  16.927   9.487 -0.1564  0.2399  0.0871
 1186ERGO    R115198  18.540  16.987   9.223 -0.1559  0.1209  0.0590
 1186ERGO    R215199  18.626  17.211   9.087 -0.2410  0.1192 -0.0032
 1186ERGO    R315200  18.699  17.029   8.898 -0.1400  0.0908  0.0636
 1186ERGO    R415201  18.634  17.272   8.747 -0.1762  0.0260 -0.0181
 1186ERGO    R515202  18.552  17.073   8.714 -0.1064 -0.0058  0.0159
 1186ERGO    C115203  18.708  17.137   8.372 -0.0437 -0.0548  0.0359
 1186ERGO    C215204  18.967  17.156   8.109  0.1829  0.3574 -0.0393
 1187ERGO   ROH15205   5.088  10.370   6.235 -0.0419 -0.1515  0.0951
 1187ERGO    R115206   4.993  10.514   6.459 -0.0359 -0.1490  0.0961
 1187ERGO    R215207   4.776  10.685   6.445 -0.0091 -0.1126  0.0888
 1187ERGO    R315208   4.684  10.532   6.650 -0.0476 -0.1122  0.0721
 1187ERGO    R415209   4.591  10.803   6.713  0.0731 -0.0931  0.1376
 1187ERGO    R515210   4.706  10.672   6.843  0.0327 -0.1630  0.0966
 1187ERGO    C115211   4.398  10.728   7.061  0.0847 -0.0814  0.1504
 1187ERGO    C215212   4.243  10.805   7.372 -0.0411 -0.0873 -0.2714
 1188ERGO   ROH15213  14.910   1.929   6.460 -0.1061 -0.0551 -0.0272
 1188ERGO    R115214  14.866   2.045   6.714  0.0071  0.0712 -0.0649
 1188ERGO    R215215  14.819   1.893   6.941 -0.0870  0.1889 -0.0076
 1188ERGO    R315216  15.028   2.035   7.040  0.0322  0.0667 -0.0771
 1188ERGO    R415217  14.900   1.915   7.276  0.0065  0.1889 -0.0289
 1188ERGO    R515218  14.945   2.126   7.246  0.1404  0.1556 -0.0716
 1188ERGO    C115219  15.144   2.061   7.565  0.1730  0.0743 -0.1066
 1188ERGO    C215220  15.347   1.851   7.795 -0.1210  0.0003  0.1235
 1189ERGO   ROH15221  16.558   9.789   9.541  0.0101  0.0926  0.0973
 1189ERGO    R115222  16.563   9.862   9.268 -0.1192  0.1262  0.1041
 1189ERGO    R215223  16.727   9.739   9.083 -0.0778  0.2720  0.0493
 1189ERGO    R315224  16.494   9.700   8.949 -0.0831  0.1110  0.1023
 1189ERGO    R415225  16.699   9.717   8.739 -0.1276  0.2477  0.0545
 1189ERGO    R515226  16.516   9.835   8.752 -0.2110  0.1276  0.0931
 1189ERGO    C115227  16.465   9.667   8.413 -0.1619  0.0824  0.1074
 1189ERGO    C215228  16.398   9.560   8.258  0.3209 -0.0992 -0.0384
 1190ERGO   ROH15229  15.229  10.218   6.808 -0.0874 -0.1500  0.1726
 1190ERGO    R115230  15.258  10.281   7.082 -0.1300  0.1586  0.1077
 1190ERGO    R215231  15.492  10.239   7.220 -0.2423  0.0536  0.2528
 1190ERGO    R315232  15.467  10.502   7.282  0.0439  0.1669 -0.0761
 1190ERGO    R415233  15.656  10.396   7.481 -0.3415  0.1009  0.2883
 1190ERGO    R515234  15.472  10.508   7.522 -0.2529  0.4133 -0.0627
 1190ERGO    C115235  15.728  10.736   7.690 -0.1307  0.2348  0.0002
 1190ERGO    C215236  15.711  10.976   7.941  0.1325 -0.0350 -0.1656
 1191ERGO   ROH15237   6.045  15.755   6.510  0.0208 -0.0514 -0.1118
 1191ERGO    R115238   6.023  15.569   6.722  0.2026  0.0122 -0.0355
 1191ERGO    R215239   5.856  15.349   6.711  0.1527  0.0345  0.1936
 1191ERGO    R315240   6.084  15.214   6.770  0.1920  0.0159  0.0025
 1191ERGO    R415241   5.870  15.048   6.880  0.2646 -0.0471  0.0411
 1191ERGO    R515242   6.045  15.121   6.986  0.3188 -0.0916 -0.0206
 1191ERGO    C115243   6.092  14.745   7.033  0.3667 -0.1122 -0.2270
 1191ERGO    C215244   6.086  14.498   7.320  0.3241  0.0084  0.0970
 1192ERGO   ROH15245  14.964   3.991   8.131 -0.0930 -0.0711  0.0178
 1192ERGO    R115246  15.181   3.957   7.953 -0.1172 -0.0664 -0.0147
 1192ERGO    R215247  15.431   4.065   8.003 -0.1535  0.0956 -0.1377
 1192ERGO    R315248  15.513   3.808   7.966 -0.0382  0.1124  0.0034
 1192ERGO    R415249  15.742   3.972   7.884 -0.1049  0.1564 -0.0567
 1192ERGO    R515250  15.645   3.815   7.767 -0.0225  0.0579  0.0177
 1192ERGO    C115251  16.000   3.676   7.781  0.0317  0.2076  0.1229
 1192ERGO    C215252  16.264   3.460   7.924  0.5118 -0.0075  0.1439
 1193ERGO   ROH15253  17.531   4.105   9.323  0.2122 -0.0201 -0.0784
 1193ERGO    R115254  17.624   4.111   9.056  0.1648 -0.1443 -0.0973
 1193ERGO    R215255  17.754   3.897   8.938  0.0446 -0.2368 -0.0538
 1193ERGO    R315256  17.560   3.925   8.749  0.0241 -0.2091 -0.0306
 1193ERGO    R415257  17.787   3.806   8.606 -0.0054 -0.2353 -0.0606
 1193ERGO    R515258  17.680   3.988   8.551  0.0094 -0.2192 -0.0446
 1193ERGO    C115259  17.625   3.780   8.236 -0.0537 -0.2085 -0.0428
 1193ERGO    C215260  17.578   3.812   7.927 -0.3627 -0.0510 -0.1580
 1194ERGO   ROH15261  13.459  14.416   5.868  0.0864  0.3548  0.0630
 1194ERGO    R115262  13.502  14.412   6.147 -0.0839  0.1215  0.0882
 1194ERGO    R215263  13.362  14.574   6.321 -0.1047  0.0618  0.1261
 1194ERGO    R315264  13.304  14.338   6.444 -0.3011 -0.0028 -0.0838
 1194ERGO    R415265  13.205  14.546   6.628  0.2580 -0.0584  0.3068
 1194ERGO    R515266  13.342  14.383   6.677  0.0808 -0.3367 -0.0712
 1194ERGO    C115267  13.059  14.309   6.922  0.2847 -0.1890  0.2151
 1194ERGO    C215268  12.944  14.496   7.269  0.2031  0.0607 -0.0324
 1195ERGO   ROH15269   9.029   4.770   6.406 -0.1152 -0.0522  0.0689
 1195ERGO    R115270   9.105   4.885   6.653 -0.1968  0.1007  0.0248
 1195ERGO    R215271   9.293   4.769   6.820 -0.3172  0.1534  0.2043
 1195ERGO    R315272   9.411   5.012   6.802 -0.2245  0.0993  0.0813
 1195ERGO    R415273   9.506   4.903   7.056 -0.1428  0.1306  0.0608
 1195ERGO    R515274   9.411   5.096   7.026 -0.0765  0.1605  0.0583
 1195ERGO    C115275   9.742   5.209   7.177  0.0459  0.0666 -0.1382
 1195ERGO    C215276   9.878   5.403   7.409 -0.1118  0.0224 -0.1682
 1196ERGO   ROH15277  14.083   7.179   9.645 -0.0532 -0.1398 -0.0630
 1196ERGO    R115278  14.175   7.206   9.379 -0.0213 -0.0416 -0.0426
 1196ERGO    R215279  14.443   7.212   9.314 -0.0103  0.0511 -0.0025
 1196ERGO    R315280  14.374   7.010   9.146  0.0682  0.0762 -0.0648
 1196ERGO    R415281  14.505   7.209   8.974  0.1188  0.1077  0.0200
 1196ERGO    R515282  14.307   7.121   8.944  0.1393  0.1014 -0.0716
 1196ERGO    C115283  14.476   7.017   8.618  0.2677  0.1642 -0.0255
 1196ERGO    C215284  14.574   7.068   8.354  0.1625 -0.4267 -0.0367
 1197ERGO   ROH15285  13.364   4.753   9.486 -0.3764  0.0568  0.2368
 1197ERGO    R115286  13.277   4.687   9.225 -0.2920 -0.0585  0.2366
 1197ERGO    R215287  13.033   4.770   9.124 -0.2482 -0.0759  0.1092
 1197ERGO    R315288  13.187   4.869   8.923 -0.1623 -0.1918  0.1173
 1197ERGO    R415289  12.915   4.864   8.814 -0.1797  0.1465  0.1486
 1197ERGO    R515290  13.092   4.774   8.724 -0.2931 -0.0284  0.1024
 1197ERGO    C115291  12.989   5.011   8.443 -0.0592  0.1672  0.1791
 1197ERGO    C215292  13.001   5.068   8.042  0.7270 -0.1200  0.1191
 1198ERGO   ROH15293   6.350  11.259   9.308  0.1629  0.1237  0.0825
 1198ERGO    R115294   6.449  11.355   9.061  0.3175 -0.0200  0.0863
 1198ERGO    R215295   6.626  11.211   8.905  0.1236 -0.2813  0.0966
 1198ERGO    R315296   6.439  11.250   8.712  0.1837 -0.0126  0.0885
 1198ERGO    R415297   6.689  11.204   8.565  0.1642 -0.1278  0.1004
 1198ERGO    R515298   6.553  11.374   8.542  0.3075 -0.0043  0.1799
 1198ERGO    C115299   6.549  11.236   8.186  0.2445  0.2139  0.0950
 1198ERGO    C215300   6.566  11.203   7.821  0.2702 -0.0763 -0.2111
 1199ERGO   ROH15301   1.597  12.799   9.623  0.0700  0.0298  0.0362
 1199ERGO    R115302   1.691  12.937   9.394  0.1835 -0.0817  0.0123
 1199ERGO    R215303   1.865  12.823   9.213  0.1063 -0.2506  0.0317
 1199ERGO    R315304   1.673  12.894   9.033  0.1586 -0.1376  0.0221
 1199ERGO    R415305   1.920  12.876   8.876  0.1817 -0.0803  0.0709
 1199ERGO    R515306   1.785  13.047   8.885  0.2024 -0.0759  0.1258
 1199ERGO    C115307   1.773  12.973   8.511  0.2747  0.1249  0.0847
 1199ERGO    C215308   1.677  13.065   8.230 -0.1287 -0.0852  0.3228
 1200ERGO   ROH15309   1.214  18.588  10.018 -0.0591  0.0075 -0.0150
 1200ERGO    R115310   1.370  18.462   9.818 -0.0259 -0.0912  0.0696
 1200ERGO    R215311   1.259  18.309   9.617 -0.0114 -0.0627  0.0243
 1200ERGO    R315312   1.399  18.477   9.456  0.1448 -0.1365  0.0835
 1200ERGO    R415313   1.306  18.263   9.278  0.0034  0.0058  0.0182
 1200ERGO    R515314   1.511  18.332   9.302  0.0457 -0.1720  0.0588
 1200ERGO    C115315   1.464  18.394   8.929  0.1586 -0.0233  0.0703
 1200ERGO    C215316   1.562  18.469   8.530  0.2625  0.1005 -0.0857
 1201ERGO   ROH15317  11.147  14.138   9.061 -0.4184  0.0223 -0.0650
 1201ERGO    R115318  11.250  14.244   8.820 -0.4037  0.2691  0.0465
 1201ERGO    R215319  11.356  14.084   8.621  0.1252  0.5050  0.1229
 1201ERGO    R315320  11.175  14.214   8.465 -0.0076  0.1494 -0.0337
 1201ERGO    R415321  11.327  14.047   8.278  0.4215  0.3563  0.1102
 1201ERGO    R515322  11.294  14.262   8.263  0.0516  0.3042  0.0338
 1201ERGO    C115323  11.140  14.149   7.933  0.4694 -0.0641 -0.0443
 1201ERGO    C215324  11.006  13.938   7.626  0.2244 -0.0448  0.0029
 1202ERGO   ROH15325  10.622   5.809   5.554  0.0002 -0.0830  0.1714
 1202ERGO    R115326  10.564   5.760   5.827 -0.0518 -0.1586  0.1476
 1202ERGO    R215327  10.760   5.749   6.021 -0.0842 -0.2333  0.1812
 1202ERGO    R315328  10.606   5.937   6.142 -0.0896 -0.2539  0.2052
 1202ERGO    R415329  10.821   5.881   6.334  0.1592  0.0573  0.0169
 1202ERGO    R515330  10.606   5.873   6.373  0.2082 -0.0729  0.2567
 1202ERGO    C115331  10.711   6.134   6.631  0.2958  0.2071 -0.0563
 1202ERGO    C215332  10.625   6.328   6.884 -0.1145 -0.1261  0.3179
 1203ERGO   ROH15333   6.940   3.295   6.993  0.1587  0.1372 -0.0280
 1203ERGO    R115334   6.937   3.146   7.234  0.2344  0.0770 -0.0624
 1203ERGO    R215335   7.092   3.214   7.453  0.1435  0.1511 -0.0165
 1203ERGO    R315336   6.853   3.210   7.582  0.1211 -0.0690 -0.0625
 1203ERGO    R415337   7.052   3.165   7.792  0.0895 -0.3167 -0.0852
 1203ERGO    R515338   6.878   3.041   7.749  0.1208 -0.2919 -0.2851
 1203ERGO    C115339   6.805   3.132   8.112  0.0369 -0.7957 -0.1683
 1203ERGO    C215340   6.752   3.359   8.334 -0.1169 -0.0820 -0.2978
 1204ERGO   ROH15341   1.160  15.020   9.666  0.0184 -0.1468  0.0199
 1204ERGO    R115342   1.289  14.923   9.433 -0.1193 -0.2548 -0.0126
 1204ERGO    R215343   1.150  14.850   9.206 -0.2191  0.1920 -0.1031
 1204ERGO    R315344   1.319  15.026   9.086  0.1853 -0.0670  0.0654
 1204ERGO    R415345   1.216  14.859   8.867 -0.1995  0.3578 -0.0959
 1204ERGO    R515346   1.425  14.898   8.914 -0.1021 -0.1573 -0.0522
 1204ERGO    C115347   1.412  15.030   8.556  0.1915  0.2110  0.0664
 1204ERGO    C215348   1.368  14.928   8.321  0.0766  0.3306  0.0212
 1205ERGO   ROH15349  14.869  13.520   6.297 -0.0492 -0.1570 -0.0374
 1205ERGO    R115350  14.772  13.535   6.562 -0.0507 -0.1470 -0.0383
 1205ERGO    R215351  14.690  13.772   6.677 -0.0515 -0.1417 -0.0468
 1205ERGO    R315352  14.462  13.631   6.726 -0.0516 -0.1401 -0.0447
 1205ERGO    R415353  14.500  13.797   6.965  0.0729 -0.3073  0.0509
 1205ERGO    R515354  14.472  13.580   6.960  0.0390 -0.2993 -0.0828
 1205ERGO    C115355  14.176  13.679   7.179  0.1451 -0.4025  0.1098
 1205ERGO    C215356  13.859  13.882   7.240  0.0741 -0.2189 -0.0373
 1206ERGO   ROH15357  16.813  15.489   6.080  0.0550  0.2241 -0.0704
 1206ERGO    R115358  16.888  15.574   6.339  0.0086  0.1331 -0.0275
 1206ERGO    R215359  17.014  15.407   6.519 -0.0999  0.0494 -0.0369
 1206ERGO    R315360  17.197  15.608   6.527 -0.0340 -0.0135  0.0761
 1206ERGO    R415361  17.193  15.499   6.800 -0.1390 -0.1266  0.0470
 1206ERGO    R515362  17.166  15.708   6.743 -0.0580 -0.0870  0.1143
 1206ERGO    C115363  17.469  15.741   6.971 -0.1003 -0.2882  0.2020
 1206ERGO    C215364  17.696  15.635   7.171  0.3624 -0.2848 -0.3791
 1207ERGO   ROH15365   4.222   6.801   6.535 -0.0986  0.1670 -0.1548
 1207ERGO    R115366   4.030   6.947   6.683 -0.3206 -0.2070 -0.0617
 1207ERGO    R215367   3.857   6.826   6.861  0.2579 -0.5171  0.3228
 1207ERGO    R315368   3.958   7.010   7.034 -0.0057 -0.0164 -0.0277
 1207ERGO    R415369   3.720   6.904   7.169  0.3839 -0.4436  0.3609
 1207ERGO    R515370   3.765   7.114   7.130 -0.1757 -0.3650  0.0244
 1207ERGO    C115371   3.736   7.121   7.510  0.2099  0.0692  0.0541
 1207ERGO    C215372   3.692   7.362   7.767  0.0572 -0.0282 -0.1541
 1208ERGO   ROH15373  13.270  18.345   6.372 -0.0636 -0.1776 -0.1077
 1208ERGO    R115374  13.219  18.332   6.650  0.0946 -0.1871 -0.0793
 1208ERGO    R215375  12.979  18.411   6.762  0.2345  0.0075  0.0822
 1208ERGO    R315376  12.984  18.161   6.869  0.0720 -0.0185  0.0323
 1208ERGO    R415377  12.752  18.289   6.993 -0.0950 -0.0248 -0.2488
 1208ERGO    R515378  12.917  18.191   7.096 -0.2361 -0.0625 -0.0452
 1208ERGO    C115379  12.625  17.983   7.227 -0.4394 -0.0683 -0.4885
 1208ERGO    C215380  12.586  17.572   7.358 -0.2678  0.0636 -0.1340
 1209ERGO   ROH15381   1.884   0.545   6.857  0.3330  0.0263  0.0857
 1209ERGO    R115382   1.757   0.453   7.093  0.0732  0.1138 -0.0171
 1209ERGO    R215383   1.893   0.319   7.292 -0.2124 -0.1022  0.0324
 1209ERGO    R315384   1.788   0.513   7.450 -0.0807 -0.0200  0.0217
 1209ERGO    R415385   1.888   0.311   7.638 -0.1201 -0.0403  0.0360
 1209ERGO    R515386   1.687   0.394   7.632 -0.0891  0.0549  0.0725
 1209ERGO    C115387   1.787   0.489   7.987  0.0572  0.0729  0.0280
 1209ERGO    C215388   1.621   0.522   8.326 -0.3110 -0.0094 -0.0700
 1210ERGO   ROH15389  17.612   9.752   9.327 -0.0689 -0.0584 -0.0833
 1210ERGO    R115390  17.695   9.950   9.142 -0.0709  0.0657  0.0473
 1210ERGO    R215391  17.749   9.894   8.877  0.1654  0.1953  0.0652
 1210ERGO    R315392  17.569  10.092   8.832  0.0578  0.0851  0.0029
 1210ERGO    R415393  17.776  10.132   8.629 -0.0299  0.0540 -0.0958
 1210ERGO    R515394  17.703  10.281   8.770 -0.0487  0.1096 -0.1621
 1210ERGO    C115395  17.623  10.458   8.442 -0.2447 -0.1318 -0.2481
 1210ERGO    C215396  17.570  10.432   8.074  0.0961 -0.2557 -0.5038
 1211ERGO   ROH15397   3.628   0.442   9.678 -0.0850 -0.0364  0.0649
 1211ERGO    R115398   3.785   0.526   9.458  0.0222 -0.0656  0.1294
 1211ERGO    R215399   3.854   0.357   9.251  0.0053 -0.0566  0.1167
 1211ERGO    R315400   3.743   0.552   9.097  0.1440  0.0274  0.1210
 1211ERGO    R415401   3.869   0.368   8.906  0.0368 -0.0442  0.1183
 1211ERGO    R515402   3.900   0.583   8.919  0.1782 -0.0648  0.1342
 1211ERGO    C115403   3.773   0.557   8.560  0.1855  0.0419  0.1233
 1211ERGO    C215404   3.714   0.481   8.146 -0.2662 -0.0658 -0.0695
 1212ERGO   ROH15405  17.061   6.945   9.605 -0.2750  0.1566  0.0869
 1212ERGO    R115406  17.007   6.886   9.333 -0.1691  0.0592  0.0862
 1212ERGO    R215407  16.750   6.847   9.238 -0.1253 -0.0869  0.0215
 1212ERGO    R315408  16.822   7.041   9.061 -0.1644 -0.0988 -0.0073
 1212ERGO    R415409  16.677   6.842   8.900  0.0357 -0.2375 -0.0124
 1212ERGO    R515410  16.877   6.920   8.861  0.0037 -0.1260  0.0557
 1212ERGO    C115411  16.702   7.020   8.537  0.0927 -0.3364 -0.0592
 1212ERGO    C215412  16.330   6.995   8.339 -0.1299  0.1225  0.1212
 1213ERGO   ROH15413  13.169   7.235   9.205  0.1339 -0.0823 -0.0138
 1213ERGO    R115414  13.123   7.296   8.933  0.0160 -0.0411  0.0144
 1213ERGO    R215415  13.304   7.438   8.779 -0.1073  0.0984 -0.0098
 1213ERGO    R315416  13.283   7.223   8.614 -0.0391  0.1244 -0.0517
 1213ERGO    R415417  13.473   7.401   8.480  0.1799  0.0444  0.1557
 1213ERGO    R515418  13.292   7.316   8.394  0.2286  0.1377 -0.0359
 1213ERGO    C115419  13.552   7.178   8.151  0.4112  0.0374  0.2129
 1213ERGO    C215420  13.675   7.042   7.801 -0.0416  0.2464 -0.2310
 1214ERGO   ROH15421  17.438  13.942   6.146  0.2275 -0.4040 -0.0778
 1214ERGO    R115422  17.434  13.981   6.426  0.1998 -0.0476 -0.1231
 1214ERGO    R215423  17.392  13.774   6.605 -0.0324  0.2112  0.1309
 1214ERGO    R315424  17.625  13.863   6.713  0.0268  0.1308  0.0703
 1214ERGO    R415425  17.528  13.662   6.902  0.0334  0.1194  0.0668
 1214ERGO    R515426  17.584  13.867   6.948  0.1030  0.0984  0.0859
 1214ERGO    C115427  17.826  13.680   7.176  0.1272 -0.0096 -0.0274
 1214ERGO    C215428  17.925  13.286   7.255 -0.1807  0.0216 -0.1280
 1215ERGO   ROH15429  15.048  13.204   9.921  0.0074 -0.0750  0.0358
 1215ERGO    R115430  15.214  13.258   9.698  0.0432 -0.0519  0.0679
 1215ERGO    R215431  15.217  13.097   9.472  0.1381 -0.0736  0.0847
 1215ERGO    R315432  15.166  13.332   9.345  0.1028 -0.1004  0.0494
 1215ERGO    R415433  15.344  13.185   9.163 -0.0361 -0.1854 -0.0206
 1215ERGO    R515434  15.373  13.388   9.239  0.0488 -0.1688 -0.0957
 1215ERGO    C115435  15.370  13.457   8.863 -0.1708 -0.2756 -0.1151
 1215ERGO    C215436  15.280  13.408   8.563 -0.0702 -0.1990 -0.1051
 1216ERGO   ROH15437   6.951   1.789   9.785  0.1394 -0.1718 -0.0701
 1216ERGO    R115438   6.816   1.854   9.544  0.2104 -0.1751 -0.1102
 1216ERGO    R215439   6.832   2.104   9.428  0.0129 -0.0891  0.0479
 1216ERGO    R315440   6.911   1.962   9.210  0.2919  0.1217  0.0040
 1216ERGO    R415441   6.765   2.190   9.100 -0.1786 -0.1253  0.0761
 1216ERGO    R515442   6.728   1.980   9.057  0.2376 -0.1995  0.0197
 1216ERGO    C115443   6.799   2.107   8.705 -0.0282  0.0516  0.0516
 1216ERGO    C215444   6.821   2.201   8.308  0.0213  0.4495 -0.1382
 1217ERGO   ROH15445   6.243  13.192   6.196  0.0093  0.1911 -0.1249
 1217ERGO    R115446   6.371  13.135   6.442  0.0724  0.1531 -0.1667
 1217ERGO    R215447   6.580  13.288   6.539 -0.0914  0.3111 -0.0618
 1217ERGO    R315448   6.421  13.307   6.759 -0.1102 -0.0173 -0.0423
 1217ERGO    R415449   6.688  13.380   6.854 -0.1746  0.1683  0.0097
 1217ERGO    R515450   6.558  13.227   6.938 -0.0280 -0.0288 -0.1075
 1217ERGO    C115451   6.603  13.451   7.244 -0.2408 -0.2230  0.0697
 1217ERGO    C215452   6.863  13.639   7.482  0.0365 -0.0606  0.1091
 1218ERGO   ROH15453   7.935   3.380   9.964 -0.0928  0.0816 -0.1088
 1218ERGO    R115454   7.957   3.186   9.759 -0.1768 -0.0079 -0.0340
 1218ERGO    R215455   7.741   3.107   9.605 -0.1862  0.1238 -0.0896
 1218ERGO    R315456   7.904   3.176   9.399 -0.0457 -0.0844 -0.0519
 1218ERGO    R415457   7.684   3.028   9.274 -0.0777 -0.0182 -0.0755
 1218ERGO    R515458   7.897   2.987   9.252 -0.0904 -0.1598  0.0454
 1218ERGO    C115459   7.804   3.046   8.887  0.1172 -0.2963 -0.0320
 1218ERGO    C215460   7.689   3.024   8.602  0.0332 -0.0287 -0.1378
 1219ERGO   ROH15461   7.595  15.621   6.145  0.3706  0.0047  0.2306
 1219ERGO    R115462   7.619  15.639   6.426  0.2800 -0.0315  0.2413
 1219ERGO    R215463   7.414  15.730   6.588  0.2561  0.0279  0.1795
 1219ERGO    R315464   7.454  15.494   6.716  0.1260  0.0001  0.1698
 1219ERGO    R415465   7.381  15.682   6.928 -0.0157 -0.0303  0.1472
 1219ERGO    R515466   7.558  15.555   6.922 -0.0272 -0.0510  0.2628
 1219ERGO    C115467   7.400  15.431   7.247 -0.2962 -0.0902  0.1193
 1219ERGO    C215468   7.258  15.272   7.500  0.0973  0.1453  0.2941
 1220ERGO   ROH15469  10.454   5.333   9.234 -0.0817 -0.2434  0.0612
 1220ERGO    R115470  10.445   5.449   8.976 -0.1748 -0.0439  0.1510
 1220ERGO    R215471  10.609   5.365   8.769  0.0623  0.4045  0.1401
 1220ERGO    R315472  10.373   5.335   8.638  0.1594  0.1003  0.0273
 1220ERGO    R415473  10.570   5.382   8.426  0.1734  0.5201  0.1329
 1220ERGO    R515474  10.384   5.492   8.458 -0.0145  0.2133  0.1151
 1220ERGO    C115475  10.326   5.364   8.103  0.3293  0.3018  0.0228
 1220ERGO    C215476  10.223   5.289   7.724  0.2342 -0.0262 -0.0406
 1221ERGO   ROH15477  16.512  14.516   6.136 -0.1178 -0.1831 -0.0036
 1221ERGO    R115478  16.621  14.547   6.395  0.0034 -0.1974 -0.0522
 1221ERGO    R215479  16.476  14.653   6.606  0.1697 -0.0038 -0.0309
 1221ERGO    R315480  16.549  14.422   6.729  0.0116 -0.0317  0.0126
 1221ERGO    R415481  16.434  14.587   6.943  0.0565  0.0552 -0.0328
 1221ERGO    R515482  16.630  14.492   6.943  0.0025 -0.0550  0.0229
 1221ERGO    C115483  16.479  14.332   7.254 -0.1579  0.0634  0.0070
 1221ERGO    C215484  16.391  14.252   7.461 -0.1785  0.0532  0.0908
 1222ERGO   ROH15485   4.038   1.979  10.015  0.1372  0.2907 -0.0561
 1222ERGO    R115486   4.091   2.078   9.755  0.2080  0.1665 -0.0906
 1222ERGO    R215487   4.243   1.938   9.571  0.1405  0.0102 -0.0354
 1222ERGO    R315488   4.024   1.972   9.413  0.1648  0.0779 -0.0538
 1222ERGO    R415489   4.236   1.890   9.229  0.1232 -0.0962 -0.0197
 1222ERGO    R515490   4.109   2.067   9.211  0.2208 -0.0352 -0.0812
 1222ERGO    C115491   4.026   1.893   8.882  0.1360 -0.0947 -0.0278
 1222ERGO    C215492   3.933   1.876   8.467  0.1317 -0.1001 -0.2415
 1223ERGO   ROH15493   0.970   0.821   6.571  0.2012 -0.2758  0.1794
 1223ERGO    R115494   0.995   0.829   6.853  0.2905 -0.1086  0.1678
 1223ERGO    R215495   1.143   1.023   6.983  0.0241  0.2021  0.0290
 1223ERGO    R315496   0.911   1.063   7.118 -0.0018 -0.1221  0.0884
 1223ERGO    R415497   1.121   1.126   7.312 -0.0473  0.1140  0.0520
 1223ERGO    R515498   0.956   0.986   7.340  0.1407 -0.1025  0.0630
 1223ERGO    C115499   0.890   1.223   7.631 -0.1132 -0.2417  0.1212
 1223ERGO    C215500   1.043   1.407   7.944  0.2048  0.3096 -0.2490
 1224ERGO   ROH15501  10.721   6.323   9.123 -0.2858 -0.2941 -0.0199
 1224ERGO    R115502  10.528   6.284   8.920 -0.2651 -0.0905 -0.0820
 1224ERGO    R215503  10.357   6.485   8.837 -0.1528  0.0422 -0.0128
 1224ERGO    R315504  10.458   6.425   8.592 -0.1269  0.1227 -0.0209
 1224ERGO    R415505  10.197   6.547   8.537 -0.1503  0.0639 -0.0084
 1224ERGO    R515506  10.268   6.354   8.465 -0.0979  0.1018 -0.0466
 1224ERGO    C115507  10.199   6.527   8.132 -0.1247  0.1521 -0.0135
 1224ERGO    C215508   9.922   6.662   7.916  0.2546 -0.0971  0.1933
 1225ERGO   ROH15509   2.610  15.191   9.729  0.0836  0.0297 -0.0804
 1225ERGO    R115510   2.482  15.218   9.478  0.0721  0.0103 -0.0759
 1225ERGO    R215511   2.619  15.204   9.238  0.0259 -0.2357 -0.0855
 1225ERGO    R315512   2.435  15.012   9.181 -0.1521 -0.1050  0.0354
 1225ERGO    R415513   2.530  15.103   8.920 -0.1385 -0.2722 -0.0297
 1225ERGO    R515514   2.323  15.093   8.986 -0.1364 -0.0751  0.0335
 1225ERGO    C115515   2.306  14.864   8.681 -0.4013 -0.1707  0.1164
 1225ERGO    C215516   2.346  14.780   8.376 -0.0045 -0.3934 -0.1189
 1226ERGO   ROH15517   2.249   2.534  10.012  0.1694  0.2910  0.3010
 1226ERGO    R115518   2.416   2.374   9.851 -0.0743  0.1613  0.1707
 1226ERGO    R215519   2.487   2.444   9.593 -0.1386  0.1558  0.1502
 1226ERGO    R315520   2.740   2.410   9.687 -0.1209 -0.1208  0.0104
 1226ERGO    R415521   2.766   2.395   9.395 -0.2367  0.2918 -0.0243
 1226ERGO    R515522   2.836   2.247   9.540 -0.2619  0.0396 -0.2643
 1226ERGO    C115523   3.166   2.334   9.368 -0.2771  0.1113 -0.2572
 1226ERGO    C215524   3.419   2.470   9.086  0.1780  0.1513  0.2116
 1227ERGO   ROH15525   2.843   9.156   6.077 -0.0534  0.0528 -0.0902
 1227ERGO    R115526   2.753   9.196   6.342  0.0822  0.0381 -0.0409
 1227ERGO    R215527   2.643   8.994   6.494 -0.1011  0.0923 -0.0958
 1227ERGO    R315528   2.835   9.067   6.672  0.0473 -0.2080 -0.1270
 1227ERGO    R415529   2.610   8.979   6.838 -0.0161  0.0216 -0.0906
 1227ERGO    R515530   2.714   9.170   6.851  0.2303 -0.1125 -0.0566
 1227ERGO    C115531   2.771   9.039   7.205  0.1726 -0.3017 -0.1168
 1227ERGO    C215532   2.768   8.940   7.609  0.2884  0.0994 -0.3678
 1228ERGO   ROH15533   1.341  14.199   6.367 -0.1016  0.2344 -0.2175
 1228ERGO    R115534   1.439  14.335   6.596 -0.0129  0.0441 -0.1381
 1228ERGO    R215535   1.299  14.541   6.718  0.1629  0.1407 -0.0798
 1228ERGO    R315536   1.329  14.385   6.939 -0.0410  0.0090 -0.1437
 1228ERGO    R415537   1.285  14.653   7.044  0.2575  0.0068 -0.0305
 1228ERGO    R515538   1.450  14.522   7.093  0.0972 -0.2029 -0.0682
 1228ERGO    C115539   1.305  14.573   7.441  0.1213 -0.1948 -0.0618
 1228ERGO    C215540   1.106  14.413   7.642  0.1429  0.0783  0.1653
 1229ERGO   ROH15541   1.548   2.862   6.342 -0.1941  0.0007  0.1001
 1229ERGO    R115542   1.599   2.854   6.620 -0.0417 -0.0637  0.0718
 1229ERGO    R215543   1.485   3.032   6.797  0.1273 -0.0447  0.1660
 1229ERGO    R315544   1.404   2.806   6.923  0.1067 -0.0331  0.1727
 1229ERGO    R415545   1.423   3.007   7.136  0.0234 -0.0032  0.1502
 1229ERGO    R515546   1.519   2.811   7.134  0.0399  0.0052  0.2075
 1229ERGO    C115547   1.311   2.780   7.452 -0.0564  0.0317  0.1473
 1229ERGO    C215548   1.107   2.963   7.742 -0.1421 -0.2088 -0.0068
 1230ERGO   ROH15549  12.948   3.017   9.794 -0.1122 -0.2415 -0.1370
 1230ERGO    R115550  12.849   3.105   9.544 -0.0607 -0.0937 -0.1060
 1230ERGO    R215551  12.778   3.368   9.497 -0.0287 -0.0596  0.0277
 1230ERGO    R315552  12.951   3.343   9.288  0.0062  0.0400  0.0438
 1230ERGO    R415553  12.860   3.622   9.277 -0.0473  0.0221  0.1140
 1230ERGO    R515554  12.854   3.476   9.114  0.0058  0.0715  0.0699
 1230ERGO    C115555  13.070   3.746   8.953 -0.0254  0.1632  0.1793
 1230ERGO    C215556  12.999   3.921   8.710  0.0223  0.0802  0.2906
 1231ERGO   ROH15557  13.075   8.736   5.819  0.0193  0.0221  0.0228
 1231ERGO    R115558  12.902   8.657   6.029  0.1379 -0.1391  0.0605
 1231ERGO    R215559  12.993   8.529   6.256  0.3463  0.1543  0.1427
 1231ERGO    R315560  12.866   8.732   6.384 -0.0088  0.0224  0.0146
 1231ERGO    R415561  12.874   8.514   6.580  0.4779  0.1738  0.1935
 1231ERGO    R515562  12.697   8.624   6.514  0.2339 -0.2117  0.1531
 1231ERGO    C115563  12.685   8.697   6.889  0.2212  0.0614  0.1028
 1231ERGO    C215564  12.679   8.622   7.250 -0.1316 -0.2013  0.0248
 1232ERGO   ROH15565   5.683  14.462   9.906  0.0462  0.1472 -0.0752
 1232ERGO    R115566   5.768  14.605   9.677 -0.0208  0.0679 -0.1503
 1232ERGO    R215567   5.989  14.531   9.529  0.0445  0.1210 -0.0852
 1232ERGO    R315568   5.812  14.534   9.323  0.0605 -0.1137 -0.1041
 1232ERGO    R415569   6.075  14.570   9.196  0.0451 -0.0543 -0.1059
 1232ERGO    R515570   5.900  14.698   9.172 -0.0207 -0.1679 -0.2074
 1232ERGO    C115571   5.958  14.594   8.809  0.0606 -0.3767 -0.1357
 1232ERGO    C215572   6.131  14.682   8.637 -0.1816  0.0523 -0.1780
 1233ERGO   ROH15573   0.976  16.978   9.810  0.1493  0.2814 -0.0052
 1233ERGO    R115574   0.934  16.840   9.566  0.0497  0.1447  0.0874
 1233ERGO    R215575   0.804  16.955   9.351  0.0410  0.0571  0.0438
 1233ERGO    R315576   1.030  16.884   9.218 -0.0108 -0.1009  0.0384
 1233ERGO    R415577   0.837  16.953   9.007  0.0590  0.1097  0.0453
 1233ERGO    R515578   0.950  16.767   9.024 -0.0978  0.0113  0.0070
 1233ERGO    C115579   1.069  16.886   8.682  0.0208 -0.0080  0.0413
 1233ERGO    C215580   1.147  16.999   8.401 -0.0368  0.3201  0.2026
 1234ERGO   ROH15581   6.356  16.370   9.580 -0.2158  0.1137  0.2809
 1234ERGO    R115582   6.297  16.590   9.413 -0.1164  0.0280  0.1313
 1234ERGO    R215583   6.468  16.676   9.213 -0.0092 -0.0919  0.1731
 1234ERGO    R315584   6.248  16.646   9.057  0.0687 -0.1597  0.0739
 1234ERGO    R415585   6.440  16.791   8.889  0.0921 -0.0770  0.1687
 1234ERGO    R515586   6.235  16.851   8.933  0.0494 -0.1537  0.0841
 1234ERGO    C115587   6.217  16.831   8.552  0.2241 -0.1321  0.0729
 1234ERGO    C215588   6.139  16.701   8.230 -0.0978 -0.4822 -0.1189
 1235ERGO   ROH15589  10.186   3.130   6.136  0.1077 -0.0700  0.1171
 1235ERGO    R115590  10.342   3.273   6.324  0.0538  0.0754  0.0510
 1235ERGO    R215591  10.576   3.173   6.432  0.0329  0.1683  0.1777
 1235ERGO    R315592  10.681   3.406   6.340  0.0417  0.1109  0.0375
 1235ERGO    R415593  10.801   3.369   6.606 -0.0832  0.3417  0.1359
 1235ERGO    R515594  10.694   3.545   6.535 -0.0780  0.2719 -0.0637
 1235ERGO    C115595  11.030   3.702   6.622 -0.1424  0.3888 -0.0201
 1235ERGO    C215596  11.181   4.036   6.847  0.0057  0.1952  0.0014
 1236ERGO   ROH15597   0.048   7.778   9.353 -0.1841  0.2904  0.0679
 1236ERGO    R115598   0.022   7.808   9.073 -0.0925  0.2431  0.0544
 1236ERGO    R215599  -0.222   7.841   8.948 -0.0478  0.2538 -0.0272
 1236ERGO    R315600  -0.103   8.062   8.844  0.0134  0.2188 -0.0326
 1236ERGO    R415601  -0.231   7.933   8.615 -0.1074  0.2960 -0.0144
 1236ERGO    R515602  -0.022   7.992   8.631 -0.0762  0.2095 -0.0659
 1236ERGO    C115603  -0.123   8.195   8.324 -0.0847  0.2877 -0.0120
 1236ERGO    C215604  -0.091   8.424   8.213 -0.0556  0.1623  0.0683
 1237ERGO   ROH15605   3.379   4.041   6.072 -0.0049  0.0515 -0.0220
 1237ERGO    R115606   3.334   4.091   6.347 -0.1634 -0.1412 -0.0112
 1237ERGO    R215607   3.236   3.898   6.519  0.2381 -0.4283 -0.0918
 1237ERGO    R315608   3.458   3.961   6.664  0.0846  0.0244 -0.0369
 1237ERGO    R415609   3.255   3.891   6.864  0.1384 -0.2797 -0.0819
 1237ERGO    R515610   3.372   4.074   6.857 -0.1891 -0.0623 -0.1011
 1237ERGO    C115611   3.475   3.945   7.201 -0.0638  0.2319 -0.0246
 1237ERGO    C215612   3.374   3.855   7.534  0.1056  0.1787 -0.1404
 1238ERGO   ROH15613   5.300  10.675   9.360  0.2187 -0.0659 -0.0562
 1238ERGO    R115614   5.320  10.735   9.084  0.1902 -0.0929 -0.0651
 1238ERGO    R215615   5.366  10.541   8.892  0.0099 -0.1378 -0.0726
 1238ERGO    R315616   5.141  10.646   8.781  0.0496  0.0118 -0.0119
 1238ERGO    R415617   5.301  10.556   8.553 -0.1235 -0.1700 -0.0485
 1238ERGO    R515618   5.218  10.755   8.582  0.0491 -0.1018 -0.0684
 1238ERGO    C115619   5.052  10.663   8.251 -0.1639 -0.0483  0.0225
 1238ERGO    C215620   4.881  10.637   8.043  0.0015 -0.0255 -0.1018
 1239ERGO   ROH15621  10.289   8.078   9.100  0.0496 -0.0915 -0.0686
 1239ERGO    R115622  10.189   7.928   8.881  0.1532 -0.1339 -0.0885
 1239ERGO    R215623  10.046   8.044   8.674 -0.0838 -0.2316  0.0133
 1239ERGO    R315624  10.236   7.925   8.520  0.0138  0.0756 -0.1092
 1239ERGO    R415625  10.012   7.971   8.338 -0.2276 -0.3858  0.0604
 1239ERGO    R515626  10.113   7.782   8.373  0.1535 -0.1938  0.0319
 1239ERGO    C115627  10.170   7.818   7.998 -0.2198 -0.1871 -0.0270
 1239ERGO    C215628  10.468   7.703   7.689 -0.0521  0.1706  0.0281
 1240ERGO   ROH15629  17.165   6.988   6.447  0.1161 -0.0180  0.0094
 1240ERGO    R115630  17.051   7.138   6.658  0.0622 -0.0231 -0.0150
 1240ERGO    R215631  16.784   7.208   6.663  0.0273 -0.1442 -0.0106
 1240ERGO    R315632  16.791   7.089   6.907  0.1031 -0.0895  0.0140
 1240ERGO    R415633  16.567   7.277   6.923  0.1718 -0.0170  0.0778
 1240ERGO    R515634  16.735   7.263   7.061  0.2309 -0.0383  0.0010
 1240ERGO    C115635  16.446   7.204   7.303  0.3268  0.1083  0.1524
 1240ERGO    C215636  16.180   7.337   7.521 -0.3362  0.0657  0.0121
 1241ERGO   ROH15637   8.313   8.516   6.045 -0.0441  0.2412 -0.1413
 1241ERGO    R115638   8.313   8.453   6.321  0.0152  0.1182 -0.1684
 1241ERGO    R215639   8.536   8.483   6.481  0.0389  0.0901 -0.1909
 1241ERGO    R315640   8.366   8.632   6.634  0.0344 -0.0086 -0.0997
 1241ERGO    R415641   8.583   8.557   6.816  0.0671 -0.0473 -0.1641
 1241ERGO    R515642   8.370   8.525   6.848  0.0813 -0.0996 -0.1481
 1241ERGO    C115643   8.451   8.739   7.153  0.0792 -0.2199 -0.0628
 1241ERGO    C215644   8.440   8.739   7.572  0.1254  0.3300 -0.2993
 1242ERGO   ROH15645   1.118   4.543   5.913  0.1987 -0.3408  0.1001
 1242ERGO    R115646   0.908   4.558   6.101  0.1636 -0.1338  0.0482
 1242ERGO    R215647   0.693   4.384   6.098  0.0323  0.0221  0.0469
 1242ERGO    R315648   0.766   4.341   6.357 -0.0570  0.0380  0.0743
 1242ERGO    R415649   0.500   4.221   6.334 -0.0655  0.0745  0.0025
 1242ERGO    R515650   0.563   4.368   6.481 -0.0917  0.0793  0.0069
 1242ERGO    C115651   0.455   4.086   6.713 -0.2062  0.1199  0.0023
 1242ERGO    C215652   0.236   4.014   6.869  0.3701  0.1151  0.3320
 1243ERGO   ROH15653   3.792   1.387   6.529  0.0349  0.2450 -0.2687
 1243ERGO    R115654   3.945   1.381   6.766 -0.0832  0.1011 -0.1947
 1243ERGO    R215655   4.220   1.413   6.767 -0.0584 -0.1122 -0.0590
 1243ERGO    R315656   4.164   1.610   6.946  0.0109 -0.0865 -0.0650
 1243ERGO    R415657   4.407   1.483   7.049  0.1936  0.0795 -0.2684
 1243ERGO    R515658   4.221   1.516   7.158  0.2810  0.0091 -0.0893
 1243ERGO    C115659   4.464   1.709   7.381  0.4055  0.2151 -0.3960
 1243ERGO    C215660   4.768   1.723   7.461  0.0830 -0.2070  0.1018
 1244ERGO   ROH15661  10.174  17.694   9.320 -0.1362  0.0519  0.0219
 1244ERGO    R115662  10.384  17.620   9.146 -0.1863  0.1804 -0.0959
 1244ERGO    R215663  10.515  17.377   9.166  0.1548  0.3639  0.0034
 1244ERGO    R315664  10.444  17.354   8.904 -0.0505  0.0489  0.0806
 1244ERGO    R415665  10.701  17.214   8.924  0.1491  0.3934 -0.0204
 1244ERGO    R515666  10.651  17.374   8.785 -0.1786  0.2124 -0.1186
 1244ERGO    C115667  10.743  17.099   8.538 -0.0470  0.1150  0.0382
 1244ERGO    C215668  10.706  17.043   8.216  0.3588  0.0947  0.1085
 1245ERGO   ROH15669  17.981   8.772   9.427 -0.0634 -0.2035 -0.1144
 1245ERGO    R115670  17.835   8.807   9.187 -0.1164 -0.1721 -0.0781
 1245ERGO    R215671  17.953   8.795   8.937 -0.1385  0.0329 -0.1016
 1245ERGO    R315672  17.760   8.609   8.890 -0.0254 -0.0678 -0.1716
 1245ERGO    R415673  17.850   8.692   8.624 -0.1690  0.1902 -0.1435
 1245ERGO    R515674  17.645   8.691   8.697 -0.1457 -0.0053 -0.0749
 1245ERGO    C115675  17.609   8.458   8.397 -0.0805  0.1873 -0.2336
 1245ERGO    C215676  17.443   8.282   8.176  0.1328  0.4025 -0.0205
 1246ERGO   ROH15677  12.546   8.681   9.228 -0.1844 -0.1368 -0.0729
 1246ERGO    R115678  12.783   8.652   9.077 -0.0761  0.0325  0.0611
 1246ERGO    R215679  12.825   8.441   8.905  0.1813  0.0520  0.0990
 1246ERGO    R315680  12.873   8.638   8.724  0.1344  0.0738  0.1103
 1246ERGO    R415681  12.984   8.395   8.601  0.3944  0.1374  0.1959
 1246ERGO    R515682  13.088   8.585   8.634  0.2330  0.2254  0.2420
 1246ERGO    C115683  13.121   8.554   8.255  0.4743  0.2074  0.2631
 1246ERGO    C215684  13.165   8.203   8.067  0.0588  0.1477 -0.1660
 1247ERGO   ROH15685   1.254  18.144   6.211  0.1387 -0.0744 -0.0024
 1247ERGO    R115686   1.158  18.240   6.459  0.0217  0.0162 -0.0825
 1247ERGO    R215687   1.302  18.417   6.616 -0.0126  0.0004 -0.0386
 1247ERGO    R315688   1.074  18.564   6.602  0.0461  0.0791 -0.2063
 1247ERGO    R415689   1.219  18.675   6.830 -0.1901 -0.1431  0.0695
 1247ERGO    R515690   1.014  18.603   6.830 -0.2199 -0.0853 -0.2400
 1247ERGO    C115691   0.957  18.963   6.942 -0.2384 -0.1529 -0.0249
 1247ERGO    C215692   0.870  19.178   7.096  0.1190  0.1490  0.0665
 1248ERGO   ROH15693  14.732  11.534   9.614  0.0841  0.1458  0.2209
 1248ERGO    R115694  14.597  11.605   9.376  0.1734  0.1012  0.1572
 1248ERGO    R215695  14.344  11.717   9.375  0.1161 -0.0306  0.0365
 1248ERGO    R315696  14.465  11.910   9.227  0.0931  0.0494  0.1198
 1248ERGO    R415697  14.208  11.866   9.095  0.1376  0.0024  0.0427
 1248ERGO    R515698  14.404  11.859   9.001  0.1653  0.0904  0.0892
 1248ERGO    C115699  14.242  12.134   8.792  0.1285  0.0967  0.1245
 1248ERGO    C215700  14.280  12.303   8.278  0.0034 -0.1130 -0.0944
 1249ERGO   ROH15701  15.125  16.438   5.907 -0.1241 -0.2637 -0.0037
 1249ERGO    R115702  14.982  16.377   6.143 -0.0732 -0.4071 -0.0094
 1249ERGO    R215703  15.080  16.205   6.337  0.2023 -0.1246  0.1074
 1249ERGO    R315704  15.033  16.416   6.501 -0.2369 -0.1175 -0.0142
 1249ERGO    R415705  15.039  16.184   6.679  0.3622 -0.0113  0.1348
 1249ERGO    R515706  14.880  16.332   6.665  0.0029 -0.3798  0.0863
 1249ERGO    C115707  14.971  16.370   7.033  0.0429  0.0614  0.0365
 1249ERGO    C215708  15.049  16.522   7.373  0.2460 -0.0976 -0.2969
 1250ERGO   ROH15709  12.590  15.925   6.760  0.0179  0.0700  0.1577
 1250ERGO    R115710  12.826  15.769   6.745 -0.0218  0.0170  0.0530
 1250ERGO    R215711  13.063  15.845   6.865  0.0804  0.0096 -0.1203
 1250ERGO    R315712  13.046  15.599   6.979  0.0912  0.0508 -0.0323
 1250ERGO    R415713  13.332  15.637   6.929  0.0553 -0.0555 -0.2279
 1250ERGO    R515714  13.211  15.468   6.864 -0.0277 -0.0354 -0.0911
 1250ERGO    C115715  13.473  15.285   7.073  0.0508 -0.0546 -0.2081
 1250ERGO    C215716  13.674  15.070   7.324 -0.0736 -0.0147  0.1353
 1251ERGO   ROH15717  10.347  12.253   5.982 -0.2122 -0.0655  0.0321
 1251ERGO    R115718  10.289  12.510   6.085 -0.0322 -0.0799  0.1773
 1251ERGO    R215719  10.047  12.637   6.040  0.1840  0.2711 -0.0683
 1251ERGO    R315720  10.043  12.654   6.312 -0.1850  0.0212 -0.0502
 1251ERGO    R415721   9.887  12.884   6.221  0.2399  0.3076 -0.0690
 1251ERGO    R515722  10.057  12.889   6.356  0.0533 -0.0352  0.1865
 1251ERGO    C115723   9.790  13.045   6.580 -0.0739  0.0942 -0.0525
 1251ERGO    C215724   9.563  13.062   6.726 -0.0348 -0.1519  0.2866
 1252ERGO   ROH15725  11.557   9.058   5.875  0.0108  0.2973  0.0518
 1252ERGO    R115726  11.575   9.125   6.149 -0.1100  0.2386  0.0745
 1252ERGO    R215727  11.367   9.084   6.326 -0.1210  0.0246  0.0128
 1252ERGO    R315728  11.556   8.948   6.466 -0.0459  0.1379  0.0227
 1252ERGO    R415729  11.365   9.039   6.669 -0.0841  0.0690  0.0191
 1252ERGO    R515730  11.580   9.072   6.670 -0.0997  0.1778  0.0056
 1252ERGO    C115731  11.542   8.885   7.000  0.0080  0.2014  0.0320
 1252ERGO    C215732  11.646   8.564   7.214  0.0597  0.2030 -0.2267
 1253ERGO   ROH15733  13.482   6.925   6.282  0.0252  0.0621  0.0559
 1253ERGO    R115734  13.375   6.991   6.536  0.0393  0.0081  0.0758
 1253ERGO    R215735  13.169   6.848   6.652 -0.0463  0.0663 -0.0052
 1253ERGO    R315736  13.343   6.829   6.860 -0.0742 -0.1175  0.0032
 1253ERGO    R415737  13.079   6.839   6.986 -0.0904 -0.1752 -0.0220
 1253ERGO    R515738  13.249   6.968   7.030 -0.0760 -0.2322  0.0981
 1253ERGO    C115739  13.191   6.815   7.375 -0.1423 -0.4884 -0.0240
 1253ERGO    C215740  13.152   6.803   7.715 -0.1557  0.0563  0.0745
 1254ERGO   ROH15741  10.271  15.250   9.118  0.1207  0.0604 -0.1135
 1254ERGO    R115742  10.206  15.330   8.854 -0.0183 -0.0790 -0.1233
 1254ERGO    R215743  10.359  15.510   8.711 -0.2786  0.1113 -0.1745
 1254ERGO    R315744  10.362  15.311   8.526 -0.0206  0.0741 -0.1335
 1254ERGO    R415745  10.322  15.555   8.370 -0.3302 -0.0085 -0.1849
 1254ERGO    R515746  10.198  15.376   8.365 -0.1026 -0.1693 -0.1512
 1254ERGO    C115747  10.303  15.394   7.999 -0.1179 -0.1133 -0.1524
 1254ERGO    C215748  10.277  15.243   7.790  0.0554  0.1642  0.1072
 1255ERGO   ROH15749   4.909  18.605   9.878  0.1206 -0.0895  0.0316
 1255ERGO    R115750   4.759  18.648   9.642  0.0992  0.0562  0.0701
 1255ERGO    R215751   4.772  18.883   9.497  0.3789  0.0050  0.0036
 1255ERGO    R315752   4.831  18.715   9.292  0.0810 -0.1362  0.0289
 1255ERGO    R415753   4.748  18.963   9.161  0.1827 -0.1304 -0.0160
 1255ERGO    R515754   4.668  18.765   9.125 -0.0088 -0.0810  0.1346
 1255ERGO    C115755   4.789  18.852   8.774 -0.2112 -0.3419 -0.0036
 1255ERGO    C215756   4.887  19.118   8.481 -0.1621  0.1118  0.2075
 1256ERGO   ROH15757   4.560   2.083   9.950 -0.0253 -0.1009 -0.0349
 1256ERGO    R115758   4.686   2.105   9.697  0.0527 -0.0575  0.0074
 1256ERGO    R215759   4.733   1.886   9.535  0.0266 -0.0188 -0.0514
 1256ERGO    R315760   4.598   2.033   9.352  0.1266  0.0862 -0.0421
 1256ERGO    R415761   4.678   1.791   9.208 -0.0986  0.0046 -0.0377
 1256ERGO    R515762   4.716   1.997   9.147  0.0694 -0.0295 -0.0562
 1256ERGO    C115763   4.518   1.875   8.844 -0.0776  0.1168 -0.0210
 1256ERGO    C215764   4.428   1.848   8.465 -0.1681 -0.0174  0.0288
 1257ERGO   ROH15765   9.311   4.418   9.409 -0.0958  0.0084 -0.0377
 1257ERGO    R115766   9.418   4.375   9.150  0.0923  0.1916  0.0069
 1257ERGO    R215767   9.309   4.194   8.972  0.4697  0.0077 -0.0475
 1257ERGO    R315768   9.302   4.409   8.807  0.1807  0.0058 -0.0432
 1257ERGO    R415769   9.221   4.184   8.638  0.0789 -0.0303  0.0509
 1257ERGO    R515770   9.382   4.326   8.597 -0.0287  0.0405 -0.1392
 1257ERGO    C115771   9.164   4.380   8.288 -0.4200 -0.0541  0.1122
 1257ERGO    C215772   8.858   4.559   8.239  0.1557 -0.0681 -0.1693
 1258ERGO   ROH15773   4.954  12.175   9.510  0.2480  0.2558 -0.0104
 1258ERGO    R115774   4.855  12.063   9.270  0.1898  0.0596  0.1038
 1258ERGO    R215775   4.828  12.209   9.037 -0.0354 -0.0833  0.0373
 1258ERGO    R315776   4.979  12.009   8.932  0.0404 -0.0400  0.0637
 1258ERGO    R415777   4.851  12.133   8.700  0.0844 -0.0459  0.0366
 1258ERGO    R515778   4.848  11.922   8.752  0.1146 -0.0516  0.0146
 1258ERGO    C115779   5.007  11.901   8.406  0.2253  0.0166  0.0609
 1258ERGO    C215780   5.063  11.914   7.949  0.0119  0.1973 -0.3910
 1259ERGO   ROH15781  14.056   7.750   6.030 -0.0199  0.0286  0.1075
 1259ERGO    R115782  14.122   7.554   6.223 -0.0605  0.0062  0.0980
 1259ERGO    R215783  14.368   7.545   6.348 -0.0426 -0.0871  0.0511
 1259ERGO    R315784  14.217   7.550   6.574  0.0032 -0.0270  0.0812
 1259ERGO    R415785  14.479   7.448   6.660 -0.0597 -0.2754  0.0008
 1259ERGO    R515786  14.285   7.354   6.695 -0.1364 -0.1237  0.0090
 1259ERGO    C115787  14.402   7.397   7.055 -0.0267 -0.3285 -0.0003
 1259ERGO    C215788  14.609   7.469   7.365  0.3843  0.1477  0.1654
 1260ERGO   ROH15789  16.023   0.781   6.165 -0.1161  0.1239  0.1535
 1260ERGO    R115790  15.958   0.879   6.423  0.0839  0.0863  0.2198
 1260ERGO    R215791  15.982   0.724   6.651  0.1174  0.0043  0.1584
 1260ERGO    R315792  16.133   0.933   6.737  0.2898 -0.1119  0.1432
 1260ERGO    R415793  16.007   0.826   6.980  0.0518  0.1129  0.1309
 1260ERGO    R515794  16.002   1.033   6.912  0.2985  0.0956  0.0373
 1260ERGO    C115795  16.165   1.080   7.253  0.1755  0.0670  0.1006
 1260ERGO    C215796  16.337   1.187   7.482 -0.1008  0.3885 -0.0745
 1261ERGO   ROH15797   6.105  10.410   6.244  0.1060 -0.0176 -0.0814
 1261ERGO    R115798   6.327  10.460   6.413  0.0729  0.0397 -0.0542
 1261ERGO    R215799   6.545  10.611   6.333  0.0486  0.0912 -0.0308
 1261ERGO    R315800   6.488  10.752   6.558 -0.0169  0.0824 -0.0422
 1261ERGO    R415801   6.760  10.831   6.490 -0.0650  0.2200 -0.0539
 1261ERGO    R515802   6.692  10.755   6.682 -0.0174  0.2033 -0.0475
 1261ERGO    C115803   6.832  11.091   6.793 -0.1927  0.2870 -0.0781
 1261ERGO    C215804   6.677  11.324   7.032 -0.3637 -0.0966 -0.1570
 1262ERGO   ROH15805  12.128   1.226   9.865 -0.3020  0.0442 -0.1228
 1262ERGO    R115806  12.186   1.188   9.591 -0.2481  0.0136 -0.1084
 1262ERGO    R215807  12.197   0.937   9.474 -0.2455 -0.0036 -0.0871
 1262ERGO    R315808  12.017   1.046   9.302 -0.2028  0.0013 -0.1259
 1262ERGO    R415809  12.232   0.947   9.130 -0.0438  0.2676 -0.0610
 1262ERGO    R515810  12.150   1.149   9.132 -0.1700  0.2065  0.0300
 1262ERGO    C115811  12.083   1.055   8.769  0.1137  0.4300 -0.0822
 1262ERGO    C215812  11.977   1.030   8.479  0.0096  0.0358  0.1240
 1263ERGO   ROH15813  11.065  14.917   6.119 -0.0274 -0.2741 -0.0388
 1263ERGO    R115814  10.981  14.807   6.366 -0.1318 -0.1348 -0.0111
 1263ERGO    R215815  11.158  14.724   6.560 -0.2069 -0.3093 -0.0136
 1263ERGO    R315816  11.015  14.892   6.718  0.0020 -0.1118 -0.0293
 1263ERGO    R415817  11.076  14.662   6.890 -0.1447 -0.0965  0.0428
 1263ERGO    R515818  10.879  14.746   6.851 -0.0831  0.0668  0.0811
 1263ERGO    C115819  10.893  14.784   7.231  0.0876  0.2130  0.0608
 1263ERGO    C215820  10.924  14.946   7.566  0.1285  0.2330  0.1457
 1264ERGO   ROH15821  11.338  13.178   9.079 -0.1801  0.1616 -0.0436
 1264ERGO    R115822  11.445  13.018   8.872  0.0432  0.0584  0.1472
 1264ERGO    R215823  11.291  12.923   8.663  0.1994 -0.3027  0.1894
 1264ERGO    R315824  11.482  13.043   8.511  0.1288 -0.2632  0.1314
 1264ERGO    R415825  11.277  12.956   8.319 -0.0058 -0.1211  0.2133
 1264ERGO    R515826  11.490  12.910   8.311 -0.0209 -0.1605  0.0568
 1264ERGO    C115827  11.447  13.088   7.976 -0.1916  0.0217  0.1730
 1264ERGO    C215828  11.229  13.044   7.566  0.0346 -0.2413 -0.2741
 1265ERGO   ROH15829  11.597  17.706   9.362 -0.0378 -0.1192  0.1165
 1265ERGO    R115830  11.651  17.877   9.143 -0.0130 -0.0985  0.1387
 1265ERGO    R215831  11.868  17.841   8.975  0.0110 -0.0759  0.1668
 1265ERGO    R315832  11.677  17.844   8.781  0.0400 -0.0653  0.1385
 1265ERGO    R415833  11.930  17.834   8.635  0.0896  0.4145  0.1646
 1265ERGO    R515834  11.770  17.979   8.607 -0.0820  0.2645  0.3174
 1265ERGO    C115835  11.788  17.833   8.255  0.1627  0.7096  0.1368
 1265ERGO    C215836  11.864  17.820   7.885 -0.0862 -0.0398  0.1794
 1266ERGO   ROH15837  13.052   0.758   9.805  0.1053  0.3579 -0.0718
 1266ERGO    R115838  13.087   0.843   9.537  0.0578  0.2040 -0.1281
 1266ERGO    R215839  13.244   0.704   9.356 -0.0090  0.0751 -0.0898
 1266ERGO    R315840  13.017   0.709   9.206 -0.0441  0.0325 -0.0382
 1266ERGO    R415841  13.234   0.687   9.011 -0.0862  0.0684 -0.0874
 1266ERGO    R515842  13.076   0.837   9.012 -0.1120  0.0397 -0.0536
 1266ERGO    C115843  13.016   0.682   8.669 -0.1641  0.0247 -0.0374
 1266ERGO    C215844  12.850   0.573   8.460 -0.0297  0.3522 -0.0211
 1267ERGO   ROH15845  12.893  10.471   6.326 -0.0348 -0.0681 -0.0767
 1267ERGO    R115846  12.816  10.550   6.586 -0.1012  0.1029 -0.1472
 1267ERGO    R215847  12.586  10.694   6.636 -0.3301 -0.2152 -0.2619
 1267ERGO    R315848  12.534  10.491   6.808  0.0447 -0.1124 -0.0142
 1267ERGO    R415849  12.409  10.726   6.931 -0.3800 -0.1731 -0.2958
 1267ERGO    R515850  12.552  10.590   7.025 -0.1242  0.1896 -0.1302
 1267ERGO    C115851  12.257  10.552   7.265 -0.0573 -0.0523 -0.0830
 1267ERGO    C215852  12.120  10.459   7.568 -0.1193 -0.1446 -0.1283
 1268ERGO   ROH15853  13.985  14.955   9.287 -0.1037  0.1010  0.0948
 1268ERGO    R115854  14.024  15.070   9.031  0.0123  0.2197  0.1646
 1268ERGO    R215855  14.274  15.132   8.932  0.0927 -0.1362  0.1356
 1268ERGO    R315856  14.194  14.978   8.723 -0.2376  0.1443  0.0463
 1268ERGO    R415857  14.400  15.154   8.611  0.2258 -0.2884  0.1755
 1268ERGO    R515858  14.197  15.127   8.535  0.1626  0.2332  0.1141
 1268ERGO    C115859  14.398  15.023   8.228 -0.0069 -0.1137  0.1150
 1268ERGO    C215860  14.515  14.917   7.937  0.3188  0.2841 -0.1958
 1269ERGO   ROH15861  10.588  11.125   9.250 -0.2360 -0.2374  0.0350
 1269ERGO    R115862  10.736  11.013   9.036 -0.1742 -0.1641  0.0382
 1269ERGO    R215863  10.617  10.872   8.830 -0.1194 -0.0705 -0.0623
 1269ERGO    R315864  10.749  11.052   8.674 -0.0503 -0.0162  0.0580
 1269ERGO    R415865  10.682  10.830   8.493 -0.0899  0.1094 -0.0797
 1269ERGO    R515866  10.880  10.916   8.526 -0.0710  0.0348 -0.0052
 1269ERGO    C115867  10.843  10.974   8.150 -0.0079  0.2652  0.0231
 1269ERGO    C215868  10.713  10.979   7.745  0.0364 -0.1264  0.1980
 1270ERGO   ROH15869  17.906   1.976   7.217 -0.0380  0.1171  0.2581
 1270ERGO    R115870  17.707   2.151   7.316 -0.1959 -0.0264  0.1971
 1270ERGO    R215871  17.546   2.302   7.151 -0.0419  0.0831  0.1543
 1270ERGO    R315872  17.346   2.183   7.290 -0.1798 -0.0937 -0.1826
 1270ERGO    R415873  17.222   2.420   7.170  0.0585  0.3376  0.3586
 1270ERGO    R515874  17.220   2.365   7.381 -0.0350 -0.1879  0.2408
 1270ERGO    C115875  16.845   2.377   7.311 -0.0125  0.3198  0.1613
 1270ERGO    C215876  16.516   2.460   7.177 -0.0775  0.5325  0.1575
 1271ERGO   ROH15877  18.578   4.406   9.352  0.5508 -0.1477  0.2438
 1271ERGO    R115878  18.703   4.361   9.102  0.2946 -0.0915  0.1020
 1271ERGO    R215879  18.561   4.340   8.865  0.0637  0.1298  0.2176
 1271ERGO    R315880  18.730   4.536   8.784  0.1160  0.0663  0.1717
 1271ERGO    R415881  18.625   4.422   8.536  0.0001  0.1091  0.1997
 1271ERGO    R515882  18.835   4.447   8.588  0.0257  0.0282  0.1399
 1271ERGO    C115883  18.822   4.654   8.268  0.0121  0.0376  0.1462
 1271ERGO    C215884  18.927   4.675   8.025  0.0542  0.2239  0.3043
 1272ERGO   ROH15885  13.302  14.017   9.565  0.1681  0.1785 -0.0016
 1272ERGO    R115886  13.300  13.892   9.312 -0.0270  0.2001 -0.0117
 1272ERGO    R215887  13.163  13.995   9.095  0.0743  0.3942  0.0169
 1272ERGO    R315888  13.406  13.976   8.974  0.0368  0.0937 -0.0189
 1272ERGO    R415889  13.212  13.971   8.754  0.0022  0.6044 -0.0101
 1272ERGO    R515890  13.369  13.825   8.791 -0.2332  0.3053 -0.1469
 1272ERGO    C115891  13.467  13.939   8.441 -0.0748  0.4447 -0.0594
 1272ERGO    C215892  13.396  13.969   8.148 -0.4249  0.4368  0.0865
 1273ERGO   ROH15893   9.594   9.898   8.834 -0.0463 -0.0509 -0.1622
 1273ERGO    R115894   9.496   9.949   8.573 -0.0516  0.1663 -0.1209
 1273ERGO    R215895   9.476  10.204   8.469  0.2376  0.2374 -0.0250
 1273ERGO    R315896   9.625  10.098   8.267  0.0594  0.1206 -0.0949
 1273ERGO    R415897   9.457  10.299   8.137  0.1540  0.2366 -0.0196
 1273ERGO    R515898   9.475  10.090   8.081 -0.0312  0.2262 -0.0227
 1273ERGO    C115899   9.586  10.254   7.755 -0.0621  0.1264 -0.0821
 1273ERGO    C215900   9.624  10.342   7.435 -0.2096  0.3800  0.1668
 1274ERGO   ROH15901  16.244  18.306   9.173  0.1449  0.0874 -0.1836
 1274ERGO    R115902  16.300  18.373   8.904  0.1492  0.0244 -0.2009
 1274ERGO    R215903  16.513  18.535   8.831  0.1726 -0.0019 -0.2433
 1274ERGO    R315904  16.576  18.324   8.673  0.1460 -0.0522 -0.1824
 1274ERGO    R415905  16.724  18.547   8.558  0.1051 -0.1142 -0.2982
 1274ERGO    R515906  16.589  18.415   8.452  0.0970 -0.1486 -0.2134
 1274ERGO    C115907  16.906  18.356   8.250  0.0411 -0.2267 -0.2730
 1274ERGO    C215908  17.067  18.140   8.111  0.0002 -0.3795 -0.5114
 1275ERGO   ROH15909  14.250  17.407   9.190 -0.1289 -0.1863 -0.1969
 1275ERGO    R115910  14.221  17.590   8.976 -0.0781 -0.1755 -0.1935
 1275ERGO    R215911  14.299  17.531   8.717 -0.2003 -0.2352 -0.2136
 1275ERGO    R315912  14.043  17.602   8.659 -0.1736 -0.0686 -0.1379
 1275ERGO    R415913  14.198  17.681   8.423 -0.1815 -0.1457 -0.1754
 1275ERGO    R515914  14.064  17.808   8.539 -0.0725 -0.0688 -0.1261
 1275ERGO    C115915  13.898  17.835   8.197 -0.1455  0.0630 -0.0819
 1275ERGO    C215916  13.950  18.001   7.848  0.2092  0.2809 -0.0178
 1276ERGO   ROH15917   8.977   8.182   9.251 -0.1907 -0.1680  0.0190
 1276ERGO    R115918   8.818   8.192   9.017 -0.0937 -0.0811 -0.0439
 1276ERGO    R215919   8.625   8.383   8.976 -0.0522 -0.0448 -0.0695
 1276ERGO    R315920   8.761   8.427   8.745  0.0478  0.0034 -0.0017
 1276ERGO    R415921   8.482   8.387   8.661  0.1092 -0.1405 -0.1448
 1276ERGO    R515922   8.657   8.280   8.587  0.2021 -0.0610 -0.0450
 1276ERGO    C115923   8.528   8.431   8.261  0.2970 -0.1510 -0.1251
 1276ERGO    C215924   8.334   8.426   7.939 -0.0122  0.0514  0.0455
 1277ERGO   ROH15925  17.367  17.643   9.669  0.0447  0.1406 -0.0961
 1277ERGO    R115926  17.465  17.425   9.517  0.1982  0.3385 -0.2845
 1277ERGO    R215927  17.347  17.175   9.523  0.5845  0.1602 -0.2190
 1277ERGO    R315928  17.338  17.209   9.254  0.2107  0.2305 -0.2060
 1277ERGO    R415929  17.299  16.921   9.293  0.4318  0.1857 -0.2197
 1277ERGO    R515930  17.448  17.016   9.165  0.2173  0.3119 -0.3977
 1277ERGO    C115931  17.264  16.806   8.906 -0.0078  0.2664 -0.2079
 1277ERGO    C215932  17.283  16.755   8.625 -0.0973  0.3133 -0.2416
 1278ERGO   ROH15933   5.302   1.985  10.207  0.0968 -0.0183  0.0074
 1278ERGO    R115934   5.249   1.901   9.942 -0.1792  0.1187  0.0144
 1278ERGO    R215935   5.091   2.047   9.768 -0.0445  0.4140  0.1228
 1278ERGO    R315936   5.309   2.028   9.607 -0.1474  0.0972  0.0140
 1278ERGO    R415937   5.094   2.118   9.430 -0.1349  0.2239  0.0813
 1278ERGO    R515938   5.223   1.946   9.399 -0.3355  0.0750  0.1050
 1278ERGO    C115939   5.300   2.143   9.082 -0.2841 -0.1842 -0.0450
 1278ERGO    C215940   5.348   2.187   8.804  0.0666  0.1403 -0.3502
 1279ERGO   ROH15941  18.143   6.613   9.422 -0.1054 -0.0530  0.0752
 1279ERGO    R115942  17.971   6.767   9.260 -0.0729  0.2399  0.3085
 1279ERGO    R215943  18.012   7.035   9.211  0.4053  0.1479  0.1396
 1279ERGO    R315944  17.998   6.958   8.951 -0.1923  0.0584  0.1841
 1279ERGO    R415945  17.919   7.241   8.950  0.5427  0.2795  0.1930
 1279ERGO    R515946  17.807   7.074   8.865 -0.0325  0.5248  0.4287
 1279ERGO    C115947  17.852   7.288   8.553  0.0616  0.2721  0.2659
 1279ERGO    C215948  18.038   7.421   8.302  0.4854 -0.1538  0.0283
 1280ERGO   ROH15949  10.779   3.228   9.213  0.1612  0.3953 -0.0816
 1280ERGO    R115950  10.990   3.286   9.033  0.2835 -0.0177 -0.0855
 1280ERGO    R215951  11.101   3.094   8.867 -0.1536 -0.2314 -0.1681
 1280ERGO    R315952  11.040   3.275   8.673  0.2117 -0.0209 -0.0916
 1280ERGO    R415953  11.196   3.069   8.536  0.0437 -0.1003 -0.1209
 1280ERGO    R515954  11.236   3.282   8.535  0.3090 -0.1586  0.0528
 1280ERGO    C115955  11.194   3.223   8.161  0.5014  0.1737 -0.0217
 1280ERGO    C215956  11.232   3.061   7.787  0.1113  0.2066  0.1570
 1281ERGO   ROH15957   2.279  18.307   6.617 -0.0253  0.0944 -0.1242
 1281ERGO    R115958   2.084  18.291   6.822  0.0693  0.1635 -0.0288
 1281ERGO    R215959   2.059  18.070   6.986 -0.0946  0.0644 -0.1883
 1281ERGO    R315960   2.084  18.255   7.184  0.2293 -0.1164 -0.0533
 1281ERGO    R415961   1.939  18.032   7.308 -0.3136  0.0964 -0.2638
 1281ERGO    R515962   1.878  18.241   7.305  0.1387  0.2453 -0.1508
 1281ERGO    C115963   1.894  18.183   7.681 -0.1371 -0.0549 -0.1809
 1281ERGO    C215964   2.028  18.114   7.942  0.0837 -0.1252  0.0537
 1282ERGO   ROH15965  11.396  16.363   5.908 -0.1450  0.0633 -0.0317
 1282ERGO    R115966  11.250  16.302   6.143 -0.2586  0.1546 -0.0777
 1282ERGO    R215967  11.357  16.331   6.397 -0.1874 -0.2538 -0.0552
 1282ERGO    R315968  11.135  16.482   6.438  0.0992  0.1492  0.0701
 1282ERGO    R415969  11.214  16.391   6.705 -0.0016 -0.1242  0.0078
 1282ERGO    R515970  11.018  16.369   6.613 -0.0734  0.2861  0.0451
 1282ERGO    C115971  10.923  16.568   6.924  0.3757  0.3300  0.1621
 1282ERGO    C215972  10.983  16.462   7.218  0.1039  0.0573 -0.2641
 1283ERGO   ROH15973   8.331  17.156   6.338 -0.2404 -0.2084 -0.2106
 1283ERGO    R115974   8.272  16.952   6.525 -0.1262 -0.2114 -0.1763
 1283ERGO    R215975   8.457  16.759   6.598 -0.0009 -0.0725 -0.1087
 1283ERGO    R315976   8.400  16.846   6.849 -0.0963 -0.0555 -0.1368
 1283ERGO    R415977   8.480  16.566   6.883 -0.0865 -0.0444 -0.0834
 1283ERGO    R515978   8.296  16.658   6.954 -0.1178 -0.0532 -0.1568
 1283ERGO    C115979   8.440  16.534   7.285 -0.2261 -0.0118 -0.0950
 1283ERGO    C215980   8.476  16.565   7.582 -0.1663 -0.0648 -0.1349
 1284ERGO   ROH15981  18.105  13.205   9.571  0.1904  0.1654  0.0204
 1284ERGO    R115982  17.988  13.094   9.338  0.1164 -0.0031  0.1359
 1284ERGO    R215983  18.037  13.193   9.085 -0.1289 -0.0511  0.0657
 1284ERGO    R315984  18.107  12.935   9.033  0.0319 -0.0174  0.1105
 1284ERGO    R415985  18.111  13.068   8.771 -0.1905 -0.0926  0.0681
 1284ERGO    R515986  18.001  12.887   8.823 -0.0350 -0.1565  0.1760
 1284ERGO    C115987  18.219  12.753   8.540 -0.0759 -0.0853  0.1115
 1284ERGO    C215988  18.245  12.721   8.245  0.0231 -0.0870  0.1413
 1285ERGO   ROH15989   8.318   2.726   6.732  0.1981 -0.2044 -0.0028
 1285ERGO    R115990   8.352   2.764   7.010  0.0044  0.1387 -0.0202
 1285ERGO    R215991   8.564   2.656   7.150 -0.3860 -0.1790  0.3599
 1285ERGO    R315992   8.603   2.914   7.228  0.1594 -0.1326 -0.0094
 1285ERGO    R415993   8.703   2.753   7.452 -0.3822 -0.0345  0.3123
 1285ERGO    R515994   8.555   2.913   7.463 -0.0225  0.3402 -0.0365
 1285ERGO    C115995   8.819   3.051   7.700  0.1321  0.0933 -0.0621
 1285ERGO    C215996   9.027   3.002   7.981  0.1253 -0.0627 -0.1134
 1286ERGO   ROH15997   5.274   5.347   9.622 -0.0679  0.2364 -0.1208
 1286ERGO    R115998   5.183   5.464   9.381  0.1384  0.1542 -0.2417
 1286ERGO    R215999   5.324   5.445   9.144  0.1191 -0.3286 -0.2275
 1286ERGO    R316000   5.089   5.347   9.049 -0.0542 -0.0244 -0.1254
 1286ERGO    R416001   5.202   5.496   8.824  0.0272 -0.1539 -0.1657
 1286ERGO    R516002   5.003   5.521   8.909  0.0979  0.0934 -0.0711
 1286ERGO    C116003   4.911   5.433   8.550 -0.1890  0.2335 -0.0336
 1286ERGO    C216004   4.932   5.230   8.201 -0.1084  0.4684  0.2202
 1287ERGO   ROH16005  18.578   0.031   9.533 -0.0805 -0.0825 -0.0102
 1287ERGO    R116006  18.678  -0.071   9.289  0.0004 -0.0433  0.0052
 1287ERGO    R216007  18.526  -0.082   9.058  0.0071 -0.1977  0.0025
 1287ERGO    R316008  18.735   0.056   8.952 -0.0991 -0.0490 -0.0131
 1287ERGO    R416009  18.585  -0.042   8.720 -0.0395 -0.1625 -0.0005
 1287ERGO    R516010  18.797  -0.070   8.759 -0.0178 -0.0070 -0.0124
 1287ERGO    C116011  18.815   0.111   8.424 -0.1661 -0.0024 -0.0170
 1287ERGO    C216012  19.006   0.216   8.296  0.0694  0.2862  0.3470
 1288ERGO   ROH16013  18.274  15.265   5.979  0.0123  0.1234 -0.1290
 1288ERGO    R116014  18.153  15.301   6.232 -0.0363  0.2564 -0.1699
 1288ERGO    R216015  18.212  15.141   6.450 -0.3394  0.1411 -0.1665
 1288ERGO    R316016  18.265  15.379   6.570 -0.0538  0.0563 -0.1175
 1288ERGO    R416017  18.129  15.219   6.776  0.0382  0.0700 -0.0491
 1288ERGO    R516018  18.073  15.419   6.708  0.1101  0.1367  0.0894
 1288ERGO    C116019  18.131  15.488   7.079  0.5262 -0.0511  0.0652
 1288ERGO    C216020  18.146  15.469   7.409 -0.3589 -0.0985 -0.1883
 1289ERGO   ROH16021  14.042   1.134   9.670 -0.0123 -0.0133  0.0814
 1289ERGO    R116022  14.162   1.110   9.415  0.1360 -0.1336  0.1608
 1289ERGO    R216023  14.283   0.877   9.329 -0.1368 -0.2941  0.2027
 1289ERGO    R316024  14.114   0.905   9.119  0.0487 -0.0062  0.0853
 1289ERGO    R416025  14.352   0.779   9.004 -0.0085 -0.2498  0.2160
 1289ERGO    R516026  14.255   0.961   8.934  0.2591 -0.1012  0.2120
 1289ERGO    C116027  14.232   0.749   8.618  0.2405  0.0464  0.1136
 1289ERGO    C216028  14.132   0.806   8.278 -0.0279 -0.2974 -0.0091
 1290ERGO   ROH16029   0.876   3.139   9.130 -0.2049 -0.0959 -0.0383
 1290ERGO    R116030   0.777   3.135   8.865 -0.1071  0.0185 -0.0772
 1290ERGO    R216031   0.944   3.142   8.644 -0.0176 -0.0484 -0.0124
 1290ERGO    R316032   0.808   2.917   8.575 -0.1390  0.0525 -0.1062
 1290ERGO    R416033   0.947   2.999   8.330 -0.0462  0.0453 -0.0559
 1290ERGO    R516034   0.734   2.960   8.351 -0.0740  0.1652 -0.1070
 1290ERGO    C116035   0.822   2.704   8.081 -0.1769  0.1946 -0.1691
 1290ERGO    C216036   0.862   2.352   7.930  0.1238  0.2347 -0.1092
 1291ERGO   ROH16037  12.888   2.361   6.142 -0.0449  0.0625  0.1070
 1291ERGO    R116038  12.745   2.315   6.381 -0.1158 -0.1250  0.0283
 1291ERGO    R216039  12.690   2.060   6.476  0.1041 -0.1915 -0.0466
 1291ERGO    R316040  12.811   2.153   6.701 -0.1098 -0.1084  0.0388
 1291ERGO    R416041  12.651   1.925   6.791  0.3479 -0.5494 -0.1611
 1291ERGO    R516042  12.646   2.127   6.872 -0.0927 -0.6048  0.0061
 1291ERGO    C116043  12.741   1.934   7.187  0.2890 -0.6797 -0.1475
 1291ERGO    C216044  12.890   2.012   7.531 -0.1959  0.0724 -0.2156
 1292ERGO   ROH16045   0.147  11.377   6.089 -0.1867  0.1990 -0.0688
 1292ERGO    R116046   0.243  11.361   6.354 -0.4107 -0.0323  0.0020
 1292ERGO    R216047   0.426  11.541   6.458  0.0033 -0.4955  0.1082
 1292ERGO    R316048   0.237  11.572   6.651 -0.0629  0.0231 -0.0266
 1292ERGO    R416049   0.485  11.671   6.772  0.0751 -0.3991  0.0556
 1292ERGO    R516050   0.351  11.520   6.855 -0.2927 -0.0770  0.0802
 1292ERGO    C116051   0.341  11.777   7.137  0.0547  0.1440 -0.1017
 1292ERGO    C216052   0.393  11.952   7.429 -0.2794  0.3648 -0.1402
 1293ERGO   ROH16053  11.771   9.375   9.167  0.2074 -0.1040  0.0617
 1293ERGO    R116054  11.846   9.543   8.952  0.1000 -0.0850  0.0382
 1293ERGO    R216055  12.101   9.544   8.846  0.0708 -0.0141 -0.0332
 1293ERGO    R316056  11.969   9.500   8.612  0.0179 -0.0545  0.0044
 1293ERGO    R416057  12.252   9.508   8.537 -0.0035  0.0072 -0.0722
 1293ERGO    R516058  12.091   9.626   8.450 -0.0544 -0.0334 -0.0343
 1293ERGO    C116059  12.216   9.445   8.138 -0.0965 -0.0185 -0.0597
 1293ERGO    C216060  12.442   9.444   7.832 -0.0772  0.1409  0.1283
 1294ERGO   ROH16061   3.809   9.808   7.868 -0.1021 -0.3245 -0.2757
 1294ERGO    R116062   4.023   9.658   7.759  0.0259 -0.2634 -0.1149
 1294ERGO    R216063   4.245   9.776   7.644 -0.0501 -0.1963 -0.2032
 1294ERGO    R316064   4.379   9.621   7.823  0.0496  0.0715 -0.0411
 1294ERGO    R416065   4.579   9.691   7.620 -0.0639 -0.2321 -0.2595
 1294ERGO    R516066   4.528   9.491   7.688 -0.0257 -0.1322  0.0726
 1294ERGO    C116067   4.900   9.497   7.773  0.0216 -0.0016 -0.1400
 1294ERGO    C216068   5.155   9.595   7.972 -0.4743  0.1767  0.0035
 1295ERGO   ROH16069  17.289   0.639   9.749  0.0264  0.0090 -0.0792
 1295ERGO    R116070  17.406   0.567   9.501 -0.0460 -0.0236 -0.1031
 1295ERGO    R216071  17.265   0.435   9.303 -0.1816  0.1978 -0.1500
 1295ERGO    R316072  17.349   0.644   9.150  0.0409  0.1640 -0.0787
 1295ERGO    R416073  17.287   0.432   8.958 -0.4248  0.3589 -0.1706
 1295ERGO    R516074  17.474   0.542   8.973 -0.2329  0.0632 -0.2264
 1295ERGO    C116075  17.379   0.625   8.614 -0.3575  0.4209 -0.1156
 1295ERGO    C216076  17.412   0.754   8.412  0.3545  0.1334 -0.0508
 1296ERGO   ROH16077  11.681  11.372   6.044 -0.3025 -0.0077  0.0200
 1296ERGO    R116078  11.768  11.272   6.294 -0.0875  0.0188 -0.0408
 1296ERGO    R216079  11.862  11.435   6.496 -0.0169  0.0546 -0.0925
 1296ERGO    R316080  11.671  11.309   6.642  0.1316 -0.0337  0.0252
 1296ERGO    R416081  11.823  11.464   6.838  0.0529  0.1776 -0.0955
 1296ERGO    R516082  11.781  11.251   6.847  0.2323  0.1523  0.0194
 1296ERGO    C116083  11.622  11.363   7.175  0.2329  0.1664  0.0132
 1296ERGO    C216084  11.517  11.286   7.647  0.2318  0.3887 -0.0177
 1297ERGO   ROH16085   9.232  15.035   9.334  0.1693 -0.0805 -0.0964
 1297ERGO    R116086   9.306  14.970   9.069  0.0164 -0.0313 -0.1514
 1297ERGO    R216087   9.121  14.908   8.874 -0.1035  0.1485 -0.0918
 1297ERGO    R316088   9.246  15.106   8.736 -0.0450  0.1209 -0.0803
 1297ERGO    R416089   9.181  14.904   8.533 -0.1386  0.1601 -0.0989
 1297ERGO    R516090   9.378  14.991   8.573 -0.1002  0.0875 -0.1058
 1297ERGO    C116091   9.335  15.088   8.206 -0.1041  0.1409 -0.0923
 1297ERGO    C216092   9.461  15.196   7.922  0.1177 -0.4254 -0.2898
 1298ERGO   ROH16093   1.452   5.607   6.289  0.0653  0.0958 -0.0870
 1298ERGO    R116094   1.416   5.574   6.568 -0.0861 -0.1245 -0.1302
 1298ERGO    R216095   1.410   5.327   6.689  0.2093 -0.2081 -0.2843
 1298ERGO    R316096   1.606   5.434   6.845 -0.0643  0.0049 -0.0777
 1298ERGO    R416097   1.468   5.241   7.019  0.0269 -0.2370 -0.2588
 1298ERGO    R516098   1.504   5.453   7.062 -0.2867 -0.1944 -0.1577
 1298ERGO    C116099   1.684   5.293   7.358 -0.3362 -0.0538 -0.0500
 1298ERGO    C216100   1.670   5.105   7.631  0.0106 -0.1915 -0.0764
 1299ERGO   ROH16101   8.992   9.193   8.881  0.0962 -0.0187 -0.1795
 1299ERGO    R116102   8.833   9.216   8.648 -0.0021  0.0521 -0.1062
 1299ERGO    R216103   8.569   9.295   8.655  0.0223  0.1210  0.0218
 1299ERGO    R316104   8.653   9.481   8.476 -0.0098  0.1211  0.0064
 1299ERGO    R416105   8.399   9.382   8.367  0.0501  0.0010 -0.0316
 1299ERGO    R516106   8.591   9.391   8.263  0.0714  0.0560  0.0087
 1299ERGO    C116107   8.379   9.608   8.031  0.0360 -0.0687 -0.0771
 1299ERGO    C216108   8.266   9.739   7.693 -0.0067 -0.1665 -0.2656
 1300ERGO   ROH16109  15.245  18.658   9.285  0.0853 -0.1181  0.0405
 1300ERGO    R116110  15.421  18.662   9.064  0.0314 -0.1035 -0.0043
 1300ERGO    R216111  15.332  18.657   8.802 -0.0343 -0.1029  0.0101
 1300ERGO    R316112  15.483  18.881   8.780 -0.0561 -0.0924 -0.0123
 1300ERGO    R416113  15.394  18.824   8.507 -0.1905 -0.0156  0.0272
 1300ERGO    R516114  15.599  18.854   8.572 -0.1638 -0.0255 -0.0759
 1300ERGO    C116115  15.573  19.133   8.313 -0.3019  0.0453  0.0162
 1300ERGO    C216116  15.577  19.159   8.044 -0.2285  0.0523 -0.1916
 1301ERGO   ROH16117   7.771   7.665   6.122  0.0908 -0.1026 -0.1700
 1301ERGO    R116118   7.787   7.720   6.399  0.0659  0.0543 -0.1993
 1301ERGO    R216119   7.823   7.521   6.588 -0.3001  0.1216 -0.0583
 1301ERGO    R316120   8.033   7.676   6.663 -0.0957 -0.1400 -0.0760
 1301ERGO    R416121   7.988   7.496   6.891 -0.6364  0.2297  0.1401
 1301ERGO    R516122   7.999   7.714   6.897 -0.2640  0.2362 -0.1506
 1301ERGO    C116123   8.282   7.627   7.138 -0.6404  0.0472  0.2390
 1301ERGO    C216124   8.646   7.543   7.297  0.1268 -0.0262 -0.1594
 1302ERGO   ROH16125   0.321  13.118   6.202 -0.1358 -0.0434 -0.0099
 1302ERGO    R116126   0.416  13.101   6.468 -0.0268 -0.0746 -0.0494
 1302ERGO    R216127   0.398  13.311   6.647  0.1337 -0.0594 -0.0419
 1302ERGO    R316128   0.273  13.126   6.802  0.1246 -0.0088  0.0098
 1302ERGO    R416129   0.359  13.333   6.990  0.0555  0.0700 -0.0593
 1302ERGO    R516130   0.401  13.120   7.004  0.0771  0.0864  0.0382
 1302ERGO    C116131   0.219  13.173   7.335  0.0015  0.1929 -0.0208
 1302ERGO    C216132   0.170  13.207   7.740  0.1283 -0.0661  0.0344
 1303ERGO   ROH16133   2.198   6.349   6.024 -0.0708 -0.2432  0.1444
 1303ERGO    R116134   2.202   6.369   6.307 -0.0000 -0.2584  0.1444
 1303ERGO    R216135   2.050   6.553   6.445  0.2020 -0.1154  0.1796
 1303ERGO    R316136   1.962   6.332   6.578  0.0124 -0.0374  0.1872
 1303ERGO    R416137   1.837   6.560   6.717  0.3089  0.0882  0.2601
 1303ERGO    R516138   1.957   6.402   6.808  0.1736 -0.0543  0.1977
 1303ERGO    C116139   1.630   6.358   7.001  0.1932  0.2801  0.3141
 1303ERGO    C216140   1.433   6.417   7.337  0.2378 -0.0936  0.0644
 1304ERGO   ROH16141  12.312  11.224   9.215 -0.0957 -0.3564 -0.0016
 1304ERGO    R116142  12.320  11.197   8.934 -0.0971 -0.1852 -0.0188
 1304ERGO    R216143  12.480  11.010   8.806 -0.1556 -0.1577 -0.1281
 1304ERGO    R316144  12.245  10.936   8.691 -0.1754 -0.0118 -0.1850
 1304ERGO    R416145  12.447  10.892   8.483 -0.1293 -0.2353 -0.1029
 1304ERGO    R516146  12.264  11.009   8.464 -0.0352 -0.0963 -0.2039
 1304ERGO    C116147  12.208  10.753   8.187 -0.1326 -0.1435 -0.1416
 1304ERGO    C216148  12.152  10.568   8.043  0.1196 -0.0883 -0.1201
 1305ERGO   ROH16149   5.859   1.685   6.911  0.2521  0.2358  0.1849
 1305ERGO    R116150   5.916   1.658   7.187  0.1759  0.1413  0.1922
 1305ERGO    R216151   6.099   1.819   7.318  0.1584  0.0827  0.2941
 1305ERGO    R316152   5.889   1.866   7.484  0.1168  0.0493  0.2512
 1305ERGO    R416153   6.127   1.924   7.646  0.0694  0.0559  0.3106
 1305ERGO    R516154   5.964   1.789   7.698  0.0716  0.0386  0.2610
 1305ERGO    C116155   5.946   2.030   7.993 -0.0215  0.0089  0.2798
 1305ERGO    C216156   6.076   2.291   8.162 -0.2623 -0.2173 -0.0685
 1306ERGO   ROH16157  14.758  15.821   6.712 -0.0165 -0.0444  0.1940
 1306ERGO    R116158  14.815  15.954   6.956  0.0101 -0.0375  0.1850
 1306ERGO    R216159  14.882  15.818   7.187  0.1571 -0.0275  0.1539
 1306ERGO    R316160  15.100  15.981   7.181  0.0797  0.0726  0.0832
 1306ERGO    R416161  15.147  15.803   7.409  0.2584  0.0720  0.0405
 1306ERGO    R516162  15.150  16.021   7.412  0.1592  0.0700  0.0636
 1306ERGO    C116163  15.504  15.948   7.533  0.2448  0.2237 -0.0921
 1306ERGO    C216164  15.733  15.918   7.652  0.1263  0.1028  0.1248
 1307ERGO   ROH16165  10.436   9.964   8.833 -0.0051 -0.0228 -0.1540
 1307ERGO    R116166  10.503   9.860   8.578  0.0009 -0.0160 -0.1551
 1307ERGO    R216167  10.422   9.980   8.342 -0.0045 -0.0168 -0.1533
 1307ERGO    R316168  10.688   9.974   8.286 -0.0039 -0.0029 -0.1530
 1307ERGO    R416169  10.556   9.981   8.024 -0.0064 -0.1064 -0.1548
 1307ERGO    R516170  10.704   9.835   8.091  0.0121 -0.0660 -0.1071
 1307ERGO    C116171  10.883   9.976   7.785 -0.0071 -0.1455 -0.1553
 1307ERGO    C216172  10.922  10.026   7.487  0.1925  0.2514 -0.1204
 1308ERGO   ROH16173  15.415  18.072   9.190 -0.1616 -0.1211  0.0202
 1308ERGO    R116174  15.218  18.044   8.988 -0.1829 -0.0014  0.0229
 1308ERGO    R216175  15.057  18.253   8.906  0.0002  0.1208 -0.0353
 1308ERGO    R316176  15.153  18.188   8.661 -0.0481 -0.0269 -0.0153
 1308ERGO    R416177  14.909  18.341   8.607 -0.0254 -0.0111 -0.0614
 1308ERGO    R516178  14.957  18.142   8.531 -0.0739 -0.0593  0.0364
 1308ERGO    C116179  14.912  18.330   8.202 -0.0856 -0.2264 -0.0579
 1308ERGO    C216180  14.790  18.281   7.914 -0.1644  0.0563 -0.1089
 1309ERGO   ROH16181   7.969  17.704   9.631 -0.0592 -0.0709 -0.1426
 1309ERGO    R116182   8.146  17.771   9.420  0.0416 -0.1599 -0.0873
 1309ERGO    R216183   8.140  17.643   9.175 -0.0318 -0.0718 -0.1320
 1309ERGO    R316184   8.116  17.896   9.080  0.2181 -0.0141 -0.0507
 1309ERGO    R416185   8.194  17.736   8.847 -0.1046 -0.0503 -0.1382
 1309ERGO    R516186   8.293  17.917   8.919  0.1547 -0.1849 -0.1446
 1309ERGO    C116187   8.203  18.029   8.566  0.0875  0.0164 -0.0655
 1309ERGO    C216188   8.336  18.111   8.222 -0.3189 -0.1243  0.0480
 1310ERGO   ROH16189  14.990   5.041   9.379 -0.1261  0.0106  0.1069
 1310ERGO    R116190  14.999   5.110   9.104 -0.0433 -0.1267  0.0746
 1310ERGO    R216191  14.817   5.014   8.920 -0.1375 -0.0240  0.1151
 1310ERGO    R316192  14.780   5.278   8.866  0.1385 -0.0082 -0.0120
 1310ERGO    R416193  14.705   5.140   8.619  0.1450 -0.0391  0.0010
 1310ERGO    R516194  14.850   5.302   8.638  0.2879 -0.1646  0.0138
 1310ERGO    C116195  14.606   5.462   8.392  0.5687 -0.0329 -0.1848
 1310ERGO    C216196  14.374   5.377   8.144  0.1888 -0.0853  0.0194
 1311ERGO   ROH16197   7.423  13.872   9.082 -0.1268 -0.0166  0.0056
 1311ERGO    R116198   7.257  13.844   8.854 -0.0955  0.0264 -0.0235
 1311ERGO    R216199   7.258  14.027   8.646  0.0065  0.0146 -0.0389
 1311ERGO    R316200   7.306  13.806   8.495 -0.0407 -0.0139 -0.0109
 1311ERGO    R416201   7.329  14.031   8.308  0.0344 -0.0474 -0.0332
 1311ERGO    R516202   7.203  13.854   8.285 -0.0085 -0.0133 -0.0233
 1311ERGO    C116203   7.415  13.825   7.970  0.0062 -0.1102 -0.0035
 1311ERGO    C216204   7.361  13.850   7.727  0.0850  0.1634  0.1724
 1312ERGO   ROH16205   2.154  13.779   6.298 -0.1876  0.2611 -0.0036
 1312ERGO    R116206   2.142  13.652   6.551 -0.2731  0.1338 -0.0694
 1312ERGO    R216207   2.281  13.746   6.772 -0.1500 -0.1164 -0.0329
 1312ERGO    R316208   2.035  13.742   6.887 -0.1404  0.0577 -0.0068
 1312ERGO    R416209   2.221  13.763   7.112 -0.0893 -0.3126 -0.0115
 1312ERGO    R516210   2.064  13.615   7.087 -0.2513 -0.1277 -0.1078
 1312ERGO    C116211   1.955  13.770   7.418 -0.0450 -0.2634  0.0255
 1312ERGO    C216212   2.020  13.939   7.698  0.3801 -0.3039 -0.0596
 1313ERGO   ROH16213   1.521  16.923   6.102 -0.3804  0.1140 -0.0763
 1313ERGO    R116214   1.436  16.950   6.370  0.0608  0.1182  0.0695
 1313ERGO    R216215   1.217  16.815   6.472 -0.1230  0.5583  0.2613
 1313ERGO    R316216   1.396  16.732   6.659 -0.0472 -0.0119 -0.0390
 1313ERGO    R416217   1.135  16.691   6.784 -0.0077  0.3003  0.1929
 1313ERGO    R516218   1.302  16.802   6.867  0.3013 -0.0994  0.1637
 1313ERGO    C116219   1.255  16.541   7.141  0.1305 -0.3851 -0.1289
 1313ERGO    C216220   1.313  16.485   7.489  0.2069 -0.1440 -0.0559
 1314ERGO   ROH16221  15.448   3.303   9.564  0.0615 -0.2244 -0.0862
 1314ERGO    R116222  15.320   3.269   9.314 -0.0143 -0.0760 -0.0676
 1314ERGO    R216223  15.241   3.483   9.158  0.0313  0.0149  0.0383
 1314ERGO    R316224  15.389   3.357   8.968 -0.0681  0.0313 -0.0526
 1314ERGO    R416225  15.144   3.437   8.829 -0.0383  0.2735  0.0199
 1314ERGO    R516226  15.228   3.237   8.837 -0.1637  0.2100 -0.1075
 1314ERGO    C116227  15.226   3.292   8.460 -0.1720  0.4395 -0.0760
 1314ERGO    C216228  15.209   3.430   8.137  0.2121  0.3713  0.0761
 1315ERGO   ROH16229   0.991  15.985   9.613 -0.1056  0.2363  0.2273
 1315ERGO    R116230   0.951  15.881   9.352 -0.1944  0.2105  0.2502
 1315ERGO    R216231   0.738  15.956   9.193 -0.0842  0.4271  0.1990
 1315ERGO    R316232   0.934  16.016   9.014  0.0168  0.1404  0.2102
 1315ERGO    R416233   0.694  15.979   8.851 -0.0043  0.3742  0.1854
 1315ERGO    R516234   0.885  15.878   8.825 -0.1165  0.1380  0.2457
 1315ERGO    C116235   0.852  16.047   8.484  0.1369  0.0744  0.1880
 1315ERGO    C216236   0.795  16.083   8.274  0.0541 -0.1354 -0.0424
 1316ERGO   ROH16237  16.042   2.273   9.724 -0.0934  0.0652 -0.0652
 1316ERGO    R116238  16.207   2.391   9.526 -0.1975  0.3004 -0.0153
 1316ERGO    R216239  16.314   2.247   9.316  0.2522  0.3959  0.1324
 1316ERGO    R316240  16.193   2.439   9.165 -0.0556  0.0697 -0.0515
 1316ERGO    R416241  16.372   2.299   8.979  0.4137  0.3838  0.1576
 1316ERGO    R516242  16.365   2.514   9.016 -0.0963  0.3911  0.0625
 1316ERGO    C116243  16.292   2.510   8.642  0.2187  0.0705 -0.0003
 1316ERGO    C216244  16.092   2.651   8.385 -0.0155 -0.1714 -0.0971
 1317ERGO   ROH16245  17.047   8.902   6.556 -0.1833 -0.3677 -0.0268
 1317ERGO    R116246  17.083   8.787   6.812 -0.1255 -0.0829  0.0962
 1317ERGO    R216247  17.032   8.926   7.046 -0.3388  0.0904 -0.0485
 1317ERGO    R316248  16.873   8.712   7.100 -0.1218 -0.0331  0.1119
 1317ERGO    R416249  16.885   8.862   7.352 -0.1492  0.0854  0.0422
 1317ERGO    R516250  16.931   8.650   7.324  0.0314  0.1144  0.1138
 1317ERGO    C116251  16.651   8.623   7.582  0.1651 -0.0337  0.2457
 1317ERGO    C216252  16.468   8.625   7.956 -0.2735  0.2353  0.0192
 1318ERGO   ROH16253   6.719   4.187   6.650 -0.1845  0.1492  0.0109
 1318ERGO    R116254   6.688   4.360   6.872 -0.1249  0.0801  0.0748
 1318ERGO    R216255   6.539   4.293   7.094 -0.1212  0.0359  0.0677
 1318ERGO    R316256   6.769   4.354   7.226 -0.0932 -0.0634  0.0646
 1318ERGO    R416257   6.555   4.458   7.397 -0.0383  0.0540  0.0534
 1318ERGO    R516258   6.727   4.569   7.322  0.0136 -0.0369  0.0468
 1318ERGO    C116259   6.779   4.611   7.698  0.0362 -0.0289  0.0421
 1318ERGO    C216260   6.594   4.726   7.852 -0.0180 -0.3678  0.0446
 1319ERGO   ROH16261   0.165  11.537   9.394 -0.5457 -0.4188 -0.0464
 1319ERGO    R116262   0.315  11.576   9.157 -0.4750 -0.0653  0.0509
 1319ERGO    R216263   0.363  11.372   8.977  0.0346  0.0694  0.0289
 1319ERGO    R316264   0.255  11.547   8.799 -0.2044 -0.0969  0.0044
 1319ERGO    R416265   0.396  11.350   8.634  0.2540  0.1650  0.0411
 1319ERGO    R516266   0.421  11.566   8.627 -0.1392  0.2274  0.0884
 1319ERGO    C116267   0.313  11.501   8.267  0.1572  0.0646  0.0252
 1319ERGO    C216268   0.079  11.457   7.993 -0.0572 -0.0644  0.2884
 1320ERGO   ROH16269  17.764  14.719   9.885 -0.1508 -0.0648  0.0713
 1320ERGO    R116270  17.786  14.908   9.675 -0.1141 -0.1335  0.0125
 1320ERGO    R216271  18.007  14.922   9.510 -0.0536 -0.1430  0.0900
 1320ERGO    R316272  17.821  14.898   9.313  0.0243 -0.2546  0.0289
 1320ERGO    R416273  18.071  14.956   9.172 -0.0010  0.0914  0.1217
 1320ERGO    R516274  17.883  15.064   9.152 -0.1163 -0.1067  0.1254
 1320ERGO    C116275  17.934  14.953   8.790  0.1028  0.1232  0.0829
 1320ERGO    C216276  18.035  15.000   8.420  0.0242  0.1430 -0.0517
 1321ERGO   ROH16277   3.244  14.073   9.612  0.0483 -0.0659 -0.0544
 1321ERGO    R116278   3.329  14.197   9.372 -0.0747 -0.2076 -0.1701
 1321ERGO    R216279   3.173  14.205   9.145 -0.4295  0.1484  0.0901
 1321ERGO    R316280   3.217  14.473   9.162  0.1603  0.0708  0.0524
 1321ERGO    R416281   3.180  14.420   8.875 -0.6620  0.1617  0.0894
 1321ERGO    R516282   3.349  14.523   8.969 -0.1930 -0.1837 -0.2863
 1321ERGO    C116283   3.226  14.797   8.734 -0.2437  0.0966  0.0534
 1321ERGO    C216284   3.201  14.793   8.357  0.0494 -0.3152 -0.1470
 1322ERGO   ROH16285   7.267   1.068   6.496  0.1383  0.0604 -0.0614
 1322ERGO    R116286   7.309   0.977   6.761 -0.0037 -0.0078 -0.0625
 1322ERGO    R216287   7.245   1.129   6.983  0.0193 -0.0043 -0.0613
 1322ERGO    R316288   7.101   0.909   7.052 -0.1398  0.0724 -0.1388
 1322ERGO    R416289   7.142   1.054   7.304  0.0372 -0.0822 -0.0731
 1322ERGO    R516290   7.190   0.845   7.265 -0.1369 -0.1048 -0.1904
 1322ERGO    C116291   6.947   0.803   7.556 -0.1016 -0.0555 -0.1527
 1322ERGO    C216292   6.943   0.790   7.869  0.0126 -0.1609 -0.0955
 1323ERGO   ROH16293   0.177   1.084   9.785 -0.0502 -0.1154 -0.1846
 1323ERGO    R116294   0.368   1.127   9.580 -0.0578  0.0963 -0.1479
 1323ERGO    R216295   0.449   0.928   9.407  0.2296  0.1727 -0.1009
 1323ERGO    R316296   0.376   1.108   9.217  0.0480  0.0570 -0.1449
 1323ERGO    R416297   0.471   0.875   9.066  0.2556  0.0960 -0.0884
 1323ERGO    R516298   0.539   1.081   9.044  0.0655  0.1587 -0.1488
 1323ERGO    C116299   0.416   1.014   8.689  0.1002 -0.0572 -0.1223
 1323ERGO    C216300   0.146   1.084   8.283 -0.2447 -0.2238  0.0873
 1324ERGO   ROH16301  11.569   0.023   5.886 -0.2778 -0.0217 -0.0183
 1324ERGO    R116302  11.725  -0.056   6.108 -0.2234  0.0438 -0.0334
 1324ERGO    R216303  11.699   0.060   6.357 -0.2061  0.0729 -0.0478
 1324ERGO    R316304  11.664  -0.197   6.438 -0.1357  0.0768 -0.0017
 1324ERGO    R416305  11.795  -0.066   6.665 -0.1680  0.1592 -0.0237
 1324ERGO    R516306  11.861  -0.248   6.564 -0.1178  0.1561  0.0071
 1324ERGO    C116307  11.817  -0.381   6.919 -0.0798  0.2133  0.0336
 1324ERGO    C216308  11.841  -0.536   7.197  0.0790  0.1625 -0.0812
 1325ERGO   ROH16309   4.211  14.233   6.603  0.1266  0.3360  0.1888
 1325ERGO    R116310   4.152  14.300   6.871  0.2174  0.1635  0.2524
 1325ERGO    R216311   3.984  14.149   7.029 -0.0429  0.2753  0.0807
 1325ERGO    R316312   4.196  14.147   7.199 -0.0542 -0.2430  0.1081
 1325ERGO    R416313   3.960  14.128   7.373 -0.1551  0.4595  0.0866
 1325ERGO    R516314   4.121  14.275   7.388  0.2568  0.0394  0.0540
 1325ERGO    C116315   4.145  14.114   7.733 -0.2311  0.0802  0.1156
 1325ERGO    C216316   4.093  14.168   8.035  0.2990  0.0835  0.3569
 1326ERGO   ROH16317  11.133   9.960   6.007  0.1433 -0.0525  0.0975
 1326ERGO    R116318  11.263   9.987   6.257  0.2190  0.0939  0.0406
 1326ERGO    R216319  11.378  10.224   6.339 -0.1181  0.2549  0.0326
 1326ERGO    R316320  11.219  10.189   6.557  0.0433 -0.0424  0.1122
 1326ERGO    R416321  11.446  10.347   6.655 -0.3068  0.6425 -0.0695
 1326ERGO    R516322  11.372  10.160   6.738  0.2160  0.4729  0.0775
 1326ERGO    C116323  11.336  10.386   7.043 -0.2654  0.5891 -0.0542
 1326ERGO    C216324  11.259  10.463   7.378  0.0652 -0.0359 -0.1987
 1327ERGO   ROH16325  11.084  10.564   5.996 -0.1401  0.0594  0.0139
 1327ERGO    R116326  11.083  10.496   6.271 -0.1975 -0.0434 -0.0118
 1327ERGO    R216327  11.197  10.656   6.465 -0.0883 -0.1965  0.0532
 1327ERGO    R316328  10.950  10.639   6.578 -0.1062 -0.0640  0.0368
 1327ERGO    R416329  11.135  10.669   6.805 -0.0971 -0.2949  0.0562
 1327ERGO    R516330  10.986  10.512   6.778 -0.2103 -0.1740 -0.0154
 1327ERGO    C116331  10.868  10.661   7.109 -0.1190 -0.2279  0.0426
 1327ERGO    C216332  10.681  10.776   7.335 -0.3514  0.3349  0.0154
 1328ERGO   ROH16333   9.203   7.920   6.158  0.0792 -0.1584  0.0064
 1328ERGO    R116334   9.402   7.971   6.353  0.0147 -0.0831  0.0531
 1328ERGO    R216335   9.402   8.199   6.509 -0.0832 -0.0616  0.0221
 1328ERGO    R316336   9.412   8.020   6.713 -0.0936 -0.0310  0.0498
 1328ERGO    R416337   9.527   8.264   6.825 -0.1858  0.0141  0.0478
 1328ERGO    R516338   9.619   8.067   6.824 -0.1355  0.0367  0.1000
 1328ERGO    C116339   9.610   8.134   7.200 -0.2555  0.0868  0.0886
 1328ERGO    C216340   9.389   8.150   7.465 -0.0350  0.1505 -0.1458
 1329ERGO   ROH16341   8.678   0.359  10.262 -0.0172  0.1383 -0.0377
 1329ERGO    R116342   8.791   0.349  10.003 -0.0322  0.1305 -0.0436
 1329ERGO    R216343   8.775   0.125   9.842  0.0130  0.1045 -0.0102
 1329ERGO    R316344   8.671   0.301   9.663 -0.0426  0.0528 -0.0296
 1329ERGO    R416345   8.607   0.037   9.553  0.2195  0.0156 -0.1049
 1329ERGO    R516346   8.710   0.199   9.450  0.1412  0.1166 -0.0295
 1329ERGO    C116347   8.412   0.151   9.216  0.2875 -0.0848 -0.1782
 1329ERGO    C216348   8.135   0.176   8.929 -0.2833 -0.1984  0.1297
 1330ERGO   ROH16349  12.656  14.981   5.849 -0.4023 -0.1212  0.0473
 1330ERGO    R116350  12.690  15.016   6.128 -0.2738 -0.0663  0.0259
 1330ERGO    R216351  12.500  14.935   6.312 -0.1908 -0.0308  0.1309
 1330ERGO    R316352  12.711  14.802   6.421 -0.1395 -0.0095  0.0578
 1330ERGO    R416353  12.482  14.733   6.592 -0.0535  0.0294  0.1839
 1330ERGO    R516354  12.673  14.815   6.658 -0.0221  0.0406  0.0726
 1330ERGO    C116355  12.669  14.490   6.857  0.0744  0.0846  0.1462
 1330ERGO    C216356  12.563  14.196   7.143  0.0957  0.0149  0.1544
 1331ERGO   ROH16357  18.649  16.452   9.545  0.2290  0.0475 -0.0833
 1331ERGO    R116358  18.758  16.428   9.285 -0.0505 -0.1650 -0.1849
 1331ERGO    R216359  18.604  16.362   9.065 -0.4073  0.2236 -0.0647
 1331ERGO    R316360  18.711  16.591   8.963  0.0388  0.0044 -0.1132
 1331ERGO    R416361  18.634  16.433   8.728 -0.5424  0.2195 -0.0786
 1331ERGO    R516362  18.830  16.518   8.768 -0.2967 -0.2414 -0.2360
 1331ERGO    C116363  18.752  16.688   8.436 -0.2023  0.0115 -0.1322
 1331ERGO    C216364  18.709  16.609   8.133  0.2256  0.4405 -0.1291
 1332ERGO   ROH16365  18.127   7.369   6.425  0.0984  0.2594  0.0858
 1332ERGO    R116366  18.016   7.217   6.637  0.1780  0.0548 -0.0174
 1332ERGO    R216367  18.171   7.059   6.803  0.3188  0.3273  0.1120
 1332ERGO    R316368  18.051   7.204   6.999 -0.1218  0.1118  0.0171
 1332ERGO    R416369  18.154   6.965   7.135  0.2496  0.3053  0.1030
 1332ERGO    R516370  17.949   7.040   7.140  0.0865 -0.0909 -0.0569
 1332ERGO    C116371  18.031   7.046   7.513 -0.2042  0.0901  0.0085
 1332ERGO    C216372  18.027   6.947   7.824 -0.1886 -0.3183  0.0846
 1333ERGO   ROH16373  11.231   7.616   9.169  0.2642 -0.1773  0.0952
 1333ERGO    R116374  11.217   7.523   8.902  0.1016 -0.1024  0.0763
 1333ERGO    R216375  11.095   7.667   8.700  0.1089  0.0237  0.1598
 1333ERGO    R316376  11.335   7.634   8.577  0.0418 -0.0926  0.0582
 1333ERGO    R416377  11.151   7.702   8.360 -0.0554 -0.2081  0.1066
 1333ERGO    R516378  11.282   7.529   8.368 -0.0782 -0.2218  0.1532
 1333ERGO    C116379  11.408   7.692   8.047 -0.2139 -0.4521 -0.0199
 1333ERGO    C216380  11.623   7.730   7.727  0.1240 -0.1237 -0.0325
 1334ERGO   ROH16381   4.736   9.434   6.343 -0.3619 -0.1210  0.0301
 1334ERGO    R116382   4.585   9.461   6.581 -0.2782 -0.1657  0.0867
 1334ERGO    R216383   4.415   9.263   6.672 -0.0400 -0.2894  0.2482
 1334ERGO    R316384   4.562   9.288   6.900  0.0358 -0.0493  0.1782
 1334ERGO    R416385   4.293   9.212   6.992  0.1432 -0.3057  0.3186
 1334ERGO    R516386   4.409   9.384   7.058 -0.0069 -0.1503  0.2065
 1334ERGO    C116387   4.359   9.205   7.391  0.3211 -0.0895  0.2938
 1334ERGO    C216388   4.126   9.170   7.731  0.0037 -0.0501 -0.2945
 1335ERGO   ROH16389   8.684  16.397   9.392  0.0974 -0.2245  0.1575
 1335ERGO    R116390   8.632  16.268   9.146  0.1678 -0.1650  0.1094
 1335ERGO    R216391   8.386  16.283   9.019  0.1475 -0.2660  0.1186
 1335ERGO    R316392   8.537  16.369   8.810  0.0959 -0.0912  0.1549
 1335ERGO    R416393   8.261  16.384   8.712  0.0915  0.0482  0.2419
 1335ERGO    R516394   8.427  16.281   8.616  0.0381  0.1185  0.1003
 1335ERGO    C116395   8.330  16.523   8.338  0.0103  0.3950  0.3478
 1335ERGO    C216396   8.149  16.596   8.078 -0.0936 -0.0273 -0.4896
 1336ERGO   ROH16397  15.374   2.764   6.430 -0.0029 -0.0787  0.0288
 1336ERGO    R116398  15.630   2.646   6.401  0.0559  0.0766 -0.0931
 1336ERGO    R216399  15.857   2.795   6.347  0.0228  0.2776  0.2902
 1336ERGO    R316400  15.952   2.670   6.569 -0.0253 -0.1193  0.0940
 1336ERGO    R416401  16.188   2.794   6.447 -0.0061  0.1412  0.3863
 1336ERGO    R516402  16.165   2.584   6.502  0.0056  0.0312 -0.0033
 1336ERGO    C116403  16.470   2.674   6.713 -0.0679 -0.3108  0.2581
 1336ERGO    C216404  16.810   2.745   6.943 -0.1240  0.0423  0.4478
 1337ERGO   ROH16405   4.631   0.766   6.413 -0.2208 -0.2196 -0.0167
 1337ERGO    R116406   4.603   0.699   6.687 -0.0054 -0.0156  0.0584
 1337ERGO    R216407   4.523   0.448   6.771 -0.2267  0.1305  0.2977
 1337ERGO    R316408   4.753   0.461   6.917 -0.0464 -0.0604  0.0392
 1337ERGO    R416409   4.565   0.312   7.086 -0.1024  0.3926  0.3975
 1337ERGO    R516410   4.678   0.490   7.143  0.2319  0.2886  0.0959
 1337ERGO    C116411   4.804   0.244   7.406  0.1393  0.3661  0.2129
 1337ERGO    C216412   5.050   0.108   7.711 -0.0380  0.0788 -0.0480
 1338ERGO   ROH16413   0.566   2.163   6.071  0.2509  0.1628  0.0671
 1338ERGO    R116414   0.385   2.235   6.277  0.1537  0.1117 -0.0012
 1338ERGO    R216415   0.378   2.106   6.521  0.1605  0.1707  0.0245
 1338ERGO    R316416   0.408   2.358   6.619 -0.0136  0.2122 -0.0233
 1338ERGO    R416417   0.349   2.194   6.854 -0.1742  0.2525 -0.0222
 1338ERGO    R516418   0.244   2.374   6.792 -0.1839  0.2038 -0.1743
 1338ERGO    C116419   0.360   2.481   7.139 -0.5325  0.3391 -0.0943
 1338ERGO    C216420   0.359   2.768   7.298  0.1323 -0.0011 -0.5766
 1339ERGO   ROH16421  14.078   9.558   6.228  0.0037 -0.1397  0.0507
 1339ERGO    R116422  14.114   9.498   6.503 -0.1111 -0.3495  0.0247
 1339ERGO    R216423  14.074   9.686   6.703  0.3559 -0.3076  0.1038
 1339ERGO    R316424  13.907   9.496   6.802 -0.1193  0.0278  0.0316
 1339ERGO    R416425  14.021   9.625   7.039  0.1416 -0.2600  0.0784
 1339ERGO    R516426  14.020   9.412   6.995 -0.3360 -0.2780  0.0386
 1339ERGO    C116427  13.833   9.411   7.327 -0.4292  0.0827 -0.0042
 1339ERGO    C216428  13.940   9.388   7.585 -0.2934 -0.1443 -0.1227
 1340ERGO   ROH16429  17.041   9.354   6.279 -0.1082 -0.0371  0.1682
 1340ERGO    R116430  16.919   9.397   6.531 -0.0963  0.1203  0.1479
 1340ERGO    R216431  17.027   9.304   6.767 -0.2948 -0.1011  0.1580
 1340ERGO    R316432  17.006   9.564   6.842  0.1127 -0.0693  0.1929
 1340ERGO    R416433  17.050   9.419   7.092 -0.2576 -0.1868  0.1871
 1340ERGO    R516434  16.887   9.558   7.049 -0.0033  0.1003  0.1312
 1340ERGO    C116435  17.043   9.731   7.351  0.1466 -0.2069  0.2368
 1340ERGO    C216436  16.907   9.719   7.645  0.0930  0.2127  0.0537
 1341ERGO   ROH16437  12.358  13.635   8.783 -0.1738 -0.0958  0.1121
 1341ERGO    R116438  12.266  13.541   8.532 -0.2594  0.2664  0.0000
 1341ERGO    R216439  12.250  13.703   8.308  0.3688  0.4249  0.0475
 1341ERGO    R316440  12.403  13.508   8.197 -0.0854  0.0276  0.0930
 1341ERGO    R416441  12.293  13.654   7.969  0.3909  0.3455  0.0622
 1341ERGO    R516442  12.281  13.440   8.003 -0.1845  0.3633  0.0350
 1341ERGO    C116443  12.461  13.442   7.667 -0.0226 -0.0739  0.1136
 1341ERGO    C216444  12.461  13.519   7.374  0.0665  0.3986 -0.1051
 1342ERGO   ROH16445   2.399  16.534   6.203 -0.0153  0.1719  0.0855
 1342ERGO    R116446   2.305  16.392   6.430 -0.0336  0.0868  0.0250
 1342ERGO    R216447   2.436  16.170   6.531 -0.0022  0.0922 -0.0043
 1342ERGO    R316448   2.430  16.313   6.762 -0.0929  0.0280  0.0335
 1342ERGO    R416449   2.318  16.052   6.834 -0.1309  0.0113 -0.0852
 1342ERGO    R516450   2.226  16.247   6.868 -0.1390  0.0044 -0.0687
 1342ERGO    C116451   2.243  16.117   7.227 -0.2909 -0.0961 -0.0968
 1342ERGO    C216452   2.035  15.932   7.414  0.1099 -0.0062 -0.3629
 1343ERGO   ROH16453   4.007   4.572   6.366 -0.0975 -0.2526 -0.1656
 1343ERGO    R116454   4.239   4.563   6.529 -0.1004 -0.0173 -0.1461
 1343ERGO    R216455   4.241   4.653   6.790 -0.2728 -0.2034 -0.0844
 1343ERGO    R316456   4.337   4.403   6.841  0.1086 -0.0991 -0.2496
 1343ERGO    R416457   4.311   4.529   7.105 -0.3119 -0.3690 -0.1387
 1343ERGO    R516458   4.490   4.435   7.022 -0.0777  0.0022 -0.0992
 1343ERGO    C116459   4.442   4.223   7.336  0.0234 -0.3675 -0.3255
 1343ERGO    C216460   4.229   4.371   7.602 -0.1974  0.0736  0.1581
 1344ERGO   ROH16461  12.401   7.046   6.087  0.1467 -0.0773  0.0309
 1344ERGO    R116462  12.293   6.931   6.322  0.0674 -0.1490 -0.0407
 1344ERGO    R216463  12.318   7.050   6.571  0.1244 -0.3066  0.0252
 1344ERGO    R316464  12.048   7.026   6.574  0.1086 -0.1508  0.0020
 1344ERGO    R416465  12.123   7.052   6.856  0.0850  0.0301  0.0000
 1344ERGO    R516466  12.002   6.894   6.768  0.0065  0.0248  0.1041
 1344ERGO    C116467  11.755   7.031   7.025  0.0471  0.3725 -0.0364
 1344ERGO    C216468  11.520   7.074   7.175  0.0244  0.4743  0.2532
 1345ERGO   ROH16469   7.367  10.986   5.786 -0.1105 -0.0696  0.0253
 1345ERGO    R116470   7.427  10.806   5.997 -0.1214 -0.0351  0.0573
 1345ERGO    R216471   7.681  10.704   6.037 -0.1391 -0.0788  0.0466
 1345ERGO    R316472   7.646  10.804   6.288 -0.0845 -0.0171  0.0304
 1345ERGO    R416473   7.822  10.573   6.325 -0.0771 -0.0106  0.0480
 1345ERGO    R516474   7.635  10.611   6.428 -0.0557  0.0160  0.0800
 1345ERGO    C116475   7.871  10.591   6.727  0.0102  0.0871  0.0337
 1345ERGO    C216476   7.969  10.434   7.061  0.4691  0.1449 -0.0415
 1346W        W16477   5.253  11.733  15.661 -0.1489 -0.1867  0.1576
 1347W        W16478   9.606   6.499   3.490 -0.1408  0.0627  0.0975
 1348W        W16479  14.481   3.995   4.341 -0.0957  0.0151 -0.3676
 1349W        W16480  16.286  13.697  11.620 -0.1274  0.0243  0.2643
 1350W        W16481  15.931  12.412   1.805  0.0821  0.1963 -0.1039
 1351W        W16482   6.630   3.413   5.166  0.0709  0.1919 -0.0139
 1352W        W16483   1.795  10.272  15.438 -0.1086  0.1815  0.2338
 1353W        W16484   1.830   5.585   1.681 -0.0930  0.1871 -0.2771
 1354W        W16485   6.372   9.732   5.154 -0.1220 -0.2573 -0.1022
 1355W        W16486  15.544   1.903  11.244 -0.1756 -0.0780 -0.2961
 1356W        W16487   1.704  14.426  11.014  0.0250  0.1303 -0.1682
 1357W        W16488   1.852  15.411   1.424  0.0484 -0.2164  0.1541
 1358W        W16489   2.495  10.370  13.125 -0.1328  0.0719 -0.0303
 1359W        W16490   5.330  15.843   2.719  0.2842 -0.2741  0.3806
 1360W        W16491   1.658  10.943   2.653 -0.0598 -0.1689  0.0070
 1361W        W16492   2.327   3.127   4.051 -0.1046 -0.1820 -0.0321
 1362W        W16493   2.860   0.895  12.259  0.2260  0.2018  0.0881
 1363W        W16494   1.414  17.407  13.924 -0.1204 -0.3152  0.0860
 1364W        W16495   3.229   3.690  14.087 -0.4185  0.1484 -0.0364
 1365W        W16496   3.919   5.633  12.524  0.0743 -0.0931 -0.1111
 1366W        W16497   6.828   2.480   1.163 -0.0929 -0.0555 -0.2241
 1367W        W16498  17.017   4.646   1.211  0.5444  0.3982  0.2212
 1368W        W16499   0.688   4.099   1.815  0.1242  0.1263 -0.0287
 1369W        W16500   7.494  11.932  13.227  0.1304  0.0834  0.4602
 1370W        W16501  15.029  13.587   0.885  0.1258  0.3623 -0.3334
 1371W        W16502   5.763   7.957  13.202  0.2728  0.1622 -0.1801
 1372W        W16503  18.321   0.391  12.264 -0.0394 -0.0030 -0.0019
 1373W        W16504  14.347   7.109  13.086  0.2106 -0.0039  0.0938
 1374W        W16505  12.273   1.093   4.254  0.0133 -0.1297  0.0791
 1375W        W16506  15.199   8.101   4.668  0.2360  0.0001  0.1907
 1376W        W16507   6.243  13.789  11.778  0.2462 -0.1926  0.0974
 1377W        W16508  16.560   4.475  14.103  0.0649 -0.0828  0.0419
 1378W        W16509  17.496  14.239  11.182  0.1539 -0.1819  0.3393
 1379W        W16510  10.821  12.253   0.053 -0.1529  0.0492  0.1090
 1380W        W16511  17.853  11.531   0.215  0.0724  0.1583 -0.1671
 1381W        W16512  15.470  16.088   4.144  0.4295 -0.1193 -0.2551
 1382W        W16513   6.498  15.865  14.448 -0.1206 -0.4212  0.2991
 1383W        W16514  18.392   0.640   5.234  0.0535  0.1286  0.1224
 1384W        W16515  11.980  11.395   0.585 -0.2483  0.1343 -0.2986
 1385W        W16516   5.605  16.682  12.255  0.0059 -0.2900 -0.0391
 1386W        W16517  13.429   5.005  10.759 -0.2709 -0.2389  0.1901
 1387W        W16518   3.224   4.111  12.896 -0.3936 -0.1459  0.0911
 1388W        W16519   4.473  12.787  11.206 -0.3260 -0.0592  0.0494
 1389W        W16520   3.421   7.584  12.070 -0.0189  0.0403  0.1751
 1390W        W16521  13.946   4.008  12.248  0.3162 -0.5100 -0.2520
 1391W        W16522  14.097   4.602  13.588  0.0518  0.4771  0.0240
 1392W        W16523   3.637  17.885   3.890  0.2623  0.0440  0.0410
 1393W        W16524  16.686   9.952   2.884 -0.0105  0.0792  0.0100
 1394W        W16525   0.988  15.286   5.481  0.1307 -0.0225  0.4514
 1395W        W16526   8.480   2.146   3.243 -0.1222 -0.1786  0.0577
 1396W        W16527   9.192   2.368   3.274  0.2921  0.0604  0.2486
 1397W        W16528   5.134  15.667  11.486  0.0154  0.1791  0.2346
 1398W        W16529  17.816   1.572  12.133 -0.2002  0.3814 -0.2912
 1399W        W16530   8.013  16.659   5.148 -0.0184  0.0409 -0.1091
 1400W        W16531  17.833  12.407  10.156  0.0676 -0.0108  0.0030
 1401W        W16532  17.275   7.428  14.175 -0.3889  0.1399 -0.0388
 1402W        W16533  14.564  15.723   4.116  0.0667  0.2946 -0.4898
 1403W        W16534  14.696  10.816   9.883  0.0081 -0.4014  0.0600
 1404W        W16535   0.118   4.569  12.515 -0.0449  0.1936  0.0951
 1405W        W16536   6.324  16.021  12.459  0.0150 -0.0378 -0.2252
 1406W        W16537   7.559   6.676   3.685  0.3203 -0.2700 -0.4529
 1407W        W16538   2.758   0.961  15.543  0.0541 -0.0096  0.1348
 1408W        W16539  15.179  11.632  12.670  0.5244 -0.2174  0.1202
 1409W        W16540   9.831   0.586  15.486 -0.4069  0.0899 -0.0410
 1410W        W16541   1.041   6.354   3.980  0.0218  0.2000 -0.2338
 1411W        W16542  15.022  17.087   0.861  0.0106 -0.1289 -0.0407
 1412W        W16543  13.233   0.623  15.757 -0.1856 -0.2952  0.4632
 1413W        W16544  10.227   6.263   0.032 -0.2859  0.1066  0.2029
 1414W        W16545   5.753  14.256   0.512  0.2006  0.0693 -0.0214
 1415W        W16546  18.060   2.732   4.935 -0.0294  0.3146 -0.1554
 1416W        W16547  12.820  18.720  12.599  0.0292 -0.2222 -0.0975
 1417W        W16548  18.428   7.620  13.296  0.4742  0.0121  0.2723
 1418W        W16549   0.231  16.305   2.830 -0.4864  0.1850  0.1514
 1419W        W16550  14.572  10.924   2.852 -0.1307  0.2861  0.0986
 1420W        W16551  14.989   7.102  15.098  0.0905 -0.0856 -0.4093
 1421W        W16552   6.833   6.694   2.134  0.2194 -0.0306 -0.0134
 1422W        W16553  14.703  14.096  12.390 -0.1677 -0.1365  0.0554
 1423W        W16554  15.157   3.396   3.964  0.0266  0.0857  0.0400
 1424W        W16555   0.097   5.486   1.586 -0.0359  0.0755  0.1271
 1425W        W16556   3.923  10.772   0.147  0.0065  0.0687  0.0033
 1426W        W16557   9.822  14.169  13.822  0.1671 -0.0834 -0.1236
 1427W        W16558   2.359  16.918   3.237  0.2702 -0.1186 -0.0646
 1428W        W16559   0.249  16.845  14.575  0.3228  0.1862  0.0107
 1429W        W16560  16.355   3.628   3.714  0.1100 -0.1556 -0.2015
 1430W        W16561  14.438   4.792  12.693 -0.0021  0.1289  0.2881
 1431W        W16562   8.498   6.438   3.828 -0.1651 -0.0242  0.1658
 1432W        W16563   7.917   6.972   1.898 -0.1004 -0.0385 -0.2519
 1433W        W16564  12.363   5.633   0.509 -0.0299 -0.1018 -0.0459
 1434W        W16565  13.665  11.556   1.034 -0.2389 -0.2858  0.1292
 1435W        W16566   2.233   1.820   2.207  0.0454 -0.3166  0.0962
 1436W        W16567   4.917   7.817  12.034 -0.2451 -0.3394 -0.1459
 1437W        W16568  15.802   6.276   4.372  0.3620 -0.0814 -0.0483
 1438W        W16569   0.052   2.554   1.024 -0.1064 -0.2649 -0.0965
 1439W        W16570   7.767   4.001   2.442  0.3211  0.1826 -0.0778
 1440W        W16571  12.459   1.034   0.742 -0.2818 -0.0546 -0.3123
 1441W        W16572   1.468  11.204   1.276 -0.1805 -0.1504 -0.3026
 1442W        W16573  13.863   4.088   3.381 -0.1805  0.2581 -0.3095
 1443W        W16574   3.973   4.157   0.374  0.0954 -0.6148 -0.1813
 1444W        W16575   3.022   2.287  15.062 -0.1380  0.0969 -0.0056
 1445W        W16576   4.721  14.891   1.149  0.1051 -0.0985  0.1667
 1446W        W16577   5.536   7.162  12.744  0.3080  0.0146 -0.2078
 1447W        W16578  16.554   4.174   3.801 -0.4040 -0.3328 -0.1828
 1448W        W16579  16.214  13.087  13.664 -0.0714  0.1243  0.0693
 1449W        W16580   1.421  13.760  11.749  0.1825  0.3248 -0.1764
 1450W        W16581  17.802  16.651  14.949 -0.0112  0.1976 -0.1053
 1451W        W16582  10.562  10.004  11.901 -0.1136 -0.0186 -0.3192
 1452W        W16583  17.260  17.781   2.028  0.2152  0.1524  0.0285
 1453W        W16584   1.161  17.785   4.538  0.2886  0.0347  0.1370
 1454W        W16585  18.370  11.947   4.215  0.1585  0.0519 -0.1321
 1455W        W16586   9.422  16.437  11.583 -0.2179 -0.0567  0.1895
 1456W        W16587   9.679  13.220   1.105  0.0887 -0.2422  0.1414
 1457W        W16588  16.290  18.333   1.442  0.0233  0.0299 -0.1489
 1458W        W16589   8.687  12.010   5.588  0.2918  0.0873  0.1605
 1459W        W16590  16.312  14.897   3.509 -0.1573 -0.2971  0.1251
 1460W        W16591  13.029  16.482   3.222 -0.0129  0.1207 -0.2449
 1461W        W16592   6.185  17.728   5.503 -0.0092 -0.1821 -0.1022
 1462W        W16593   3.762  15.262   5.168  0.1226 -0.0146  0.1772
 1463W        W16594   0.847   1.704  13.837  0.4373  0.0628  0.0957
 1464W        W16595   2.191  11.767   4.978  0.0564  0.1484 -0.1493
 1465W        W16596  15.629  15.356   0.657 -0.1035  0.0095  0.0048
 1466W        W16597  10.344   9.089   1.001 -0.0962 -0.0044 -0.0197
 1467W        W16598   8.540  15.447  13.745  0.1727  0.1060  0.1940
 1468W        W16599   6.648  11.277  15.540 -0.3119  0.0648 -0.0012
 1469W        W16600   4.927   1.411   5.773  0.1898  0.1666  0.1186
 1470W        W16601   1.003  11.892   3.678  0.1660  0.0595  0.2677
 1471W        W16602   6.399   4.514  11.365  0.3174  0.0827  0.1847
 1472W        W16603  15.947  13.349   0.650  0.2862  0.2294  0.0735
 1473W        W16604  16.833  11.885  14.050 -0.0515  0.2069 -0.3791
 1474W        W16605   9.160  15.574  12.791  0.2157  0.0846  0.0739
 1475W        W16606  17.611   0.509  11.300 -0.2903 -0.3393 -0.2088
 1476W        W16607   9.760   3.197   4.148  0.0904 -0.3840 -0.0679
 1477W        W16608   6.298  12.432   1.626 -0.1000 -0.2930 -0.0033
 1478W        W16609  15.994   0.387  11.872  0.2319  0.1367 -0.0441
 1479W        W16610   4.618  10.338   0.829 -0.1531  0.0008 -0.0763
 1480W        W16611   6.517  12.331  13.620  0.0005  0.1490  0.0150
 1481W        W16612   1.191   3.891   0.203 -0.0481  0.2013  0.3168
 1482W        W16613  16.539  12.772   4.655  0.4695  0.0795  0.3154
 1483W        W16614  13.852   3.064   1.199  0.0019 -0.0581 -0.4199
 1484W        W16615   5.070  15.248  12.284  0.0619  0.3325 -0.1720
 1485W        W16616  16.943   8.650   4.524  0.0873  0.0300  0.1772
 1486W        W16617  18.510  18.616  11.156  0.3132 -0.0913 -0.1838
 1487W        W16618   1.072   1.777  15.130 -0.0560 -0.1636  0.3525
 1488W        W16619   3.618   6.369   0.117  0.2456 -0.0733 -0.0064
 1489W        W16620   8.598   1.520   2.393  0.0697  0.0456 -0.0463
 1490W        W16621  17.421   5.222   3.830  0.1629 -0.2224 -0.0951
 1491W        W16622   6.021  18.707  11.556  0.0300 -0.0713 -0.3542
 1492W        W16623  18.222   0.651   2.465 -0.0579 -0.2264 -0.1036
 1493W        W16624   3.662  12.422  14.268  0.1689 -0.0032 -0.0404
 1494W        W16625   0.589  15.362  12.660 -0.1147  0.0158 -0.0251
 1495W        W16626  13.698   5.314   0.301  0.1770  0.0125 -0.0099
 1496W        W16627  16.600   9.979  15.180  0.0033  0.2165  0.2187
 1497W        W16628   3.248  10.072  15.080  0.3200  0.1260  0.1706
 1498W        W16629   0.134   0.641   0.846  0.0509  0.0535 -0.0435
 1499W        W16630   0.076   7.768   3.929  0.1815  0.1181 -0.0436
 1500W        W16631  13.689   4.570   4.945  0.1979  0.2332  0.4243
 1501W        W16632  10.887   8.969  11.783  0.1751 -0.3024 -0.0078
 1502W        W16633   9.334  11.913  11.872 -0.0701  0.2295  0.4053
 1503W        W16634   1.875   8.164  11.845  0.0902 -0.0967 -0.2978
 1504W        W16635  18.302   8.358   5.546  0.0128  0.0395  0.3158
 1505W        W16636  12.270  10.490   5.219 -0.2393 -0.0730 -0.1167
 1506W        W16637   1.233  12.461  10.737 -0.0943  0.2245  0.1139
 1507W        W16638   1.778  13.248  13.194  0.2843  0.1062  0.1580
 1508W        W16639   6.493   8.435   3.978  0.2126 -0.1491  0.1121
 1509W        W16640  16.486   8.348  14.652 -0.2781  0.2213  0.2326
 1510W        W16641   2.727  14.815   2.277  0.3822 -0.1758 -0.0457
 1511W        W16642  15.335   1.456  11.882  0.1451  0.4358  0.2920
 1512W        W16643  11.799  11.994  12.778  0.2634  0.0975  0.0582
 1513W        W16644  16.138   6.895  10.942 -0.0400 -0.0729 -0.0377
 1514W        W16645   7.919  12.403   1.214 -0.1801 -0.0930  0.0834
 1515W        W16646   7.635   3.587  11.651  0.0292 -0.1567 -0.0959
 1516W        W16647  11.392   1.486   3.008  0.1795 -0.1122 -0.4038
 1517W        W16648  12.699   9.395  10.351  0.2660 -0.4064  0.1174
 1518W        W16649  14.805  12.242  13.841 -0.1247  0.1133 -0.0638
 1519W        W16650   0.478   1.933   0.811 -0.6256  0.1956  0.2812
 1520W        W16651   1.946  10.835  10.357 -0.0550  0.2076 -0.1726
 1521W        W16652  13.677   9.257   2.125 -0.1292 -0.1411 -0.1423
 1522W        W16653   9.650   6.444  12.114 -0.3979  0.2284 -0.1531
 1523W        W16654   3.901  16.557   5.120 -0.0651  0.1372 -0.0473
 1524W        W16655   2.622   5.850  13.034  0.3727 -0.1964  0.0700
 1525W        W16656  15.899  17.045  14.098 -0.1472 -0.1478 -0.0698
 1526W        W16657   7.803  14.384  14.348 -0.2975 -0.4628 -0.1571
 1527W        W16658   7.296   0.416   1.448  0.0038  0.3666  0.0292
 1528W        W16659   3.656  10.749   1.122  0.0271  0.2089  0.1983
 1529W        W16660  13.002  17.705  11.832  0.0231 -0.3612  0.1118
 1530W        W16661   7.095   3.405   2.856  0.1383  0.0573  0.0130
 1531W        W16662  18.609  18.529  13.871  0.2261 -0.0578  0.3029
 1532W        W16663   2.554   2.232  15.002  0.1811 -0.1451 -0.0707
 1533W        W16664   1.987   1.998   5.448 -0.1864 -0.0081 -0.0807
 1534W        W16665  17.190   0.093   4.620 -0.2067  0.2056 -0.1704
 1535W        W16666  13.339  13.743   4.211  0.2899 -0.3135 -0.0477
 1536W        W16667   0.826  12.009   0.281  0.1013 -0.0602 -0.1467
 1537W        W16668   1.480  16.905  13.312 -0.0403 -0.2440 -0.2335
 1538W        W16669  14.598  10.197   3.341 -0.2888 -0.1913  0.1892
 1539W        W16670   2.286  16.245   0.427  0.2387  0.1165  0.1319
 1540W        W16671  13.954   7.153   3.981 -0.1318 -0.0029  0.1996
 1541W        W16672   1.536   9.693  10.779 -0.0214 -0.1982 -0.1503
 1542W        W16673  14.316  12.849   0.512  0.1375  0.2000 -0.0945
 1543W        W16674   3.572   9.586   9.921  0.3711  0.0530 -0.0952
 1544W        W16675  15.322   2.642  10.320 -0.3396 -0.0941  0.1425
 1545W        W16676  10.282   9.776  15.607  0.0615 -0.1656 -0.0205
 1546W        W16677   8.962  14.410  11.241 -0.2291  0.1868  0.3328
 1547W        W16678   6.203  12.682   5.725 -0.0189 -0.0667 -0.1340
 1548W        W16679  11.573  13.476   2.903  0.5721  0.1635 -0.2882
 1549W        W16680  18.156  18.147  14.688  0.1748 -0.0000 -0.0564
 1550W        W16681  17.028  18.207   1.269  0.1552  0.1330  0.0588
 1551W        W16682  15.062  16.414   3.961  0.4184 -0.0317 -0.0315
 1552W        W16683   9.545  15.678   3.486 -0.2562 -0.0278 -0.2149
 1553W        W16684   6.623  16.261   3.743  0.3610  0.0238  0.2352
 1554W        W16685   0.571   4.962   0.751 -0.0741  0.0271 -0.0692
 1555W        W16686   6.391   7.426   0.079  0.3287  0.0719  0.1162
 1556W        W16687  10.453  17.641   1.156  0.0721  0.0276 -0.0056
 1557W        W16688   2.413  16.353  13.554  0.0563 -0.0767 -0.0311
 1558W        W16689  14.127  15.114  15.588 -0.0336  0.0608 -0.0339
 1559W        W16690  12.824   5.319   2.028 -0.1763 -0.2792  0.1077
 1560W        W16691   5.398   4.204  13.049  0.0944  0.0220  0.1320
 1561W        W16692   2.025  15.647  15.489  0.1926 -0.0061  0.0256
 1562W        W16693   6.646  12.494  10.976 -0.1987  0.2881  0.2008
 1563W        W16694   3.509  12.535   3.975  0.0398 -0.0710 -0.0582
 1564W        W16695  18.187   6.806  10.954 -0.1073 -0.0740  0.0156
 1565W        W16696  15.723  15.461   1.667  0.0273 -0.2769  0.1869
 1566W        W16697  11.590  10.926  15.581 -0.0731 -0.1792  0.0966
 1567W        W16698   4.309   2.337  14.803  0.2196 -0.0449 -0.1514
 1568W        W16699  12.693   1.447  13.447  0.1382  0.5654  0.0600
 1569W        W16700  14.107  17.409  13.878 -0.2673 -0.0462 -0.0618
 1570W        W16701  17.744   1.074   5.557 -0.1972  0.0769  0.2128
 1571W        W16702   5.673  11.079  12.009 -0.0396  0.0579 -0.1630
 1572W        W16703   0.894   9.560   4.953 -0.3300 -0.4252  0.0627
 1573W        W16704  10.153   0.403  13.660 -0.0583  0.0809  0.2285
 1574W        W16705   9.271  17.268  10.554 -0.0479  0.0183 -0.2337
 1575W        W16706  11.901  18.267  10.972 -0.0879  0.3326  0.1227
 1576W        W16707  13.038   8.067  10.968 -0.1797  0.2148  0.0541
 1577W        W16708   0.451  10.050   0.681 -0.1605 -0.1503  0.1639
 1578W        W16709  16.577   2.189   4.653 -0.1310 -0.5910 -0.2334
 1579W        W16710  12.478   2.154   1.333 -0.0484  0.2171  0.1730
 1580W        W16711  18.369   9.126   2.723  0.2337  0.1615  0.1776
 1581W        W16712   2.372  14.920  14.319  0.1591 -0.0116 -0.2421
 1582W        W16713   0.983  11.164   9.744  0.1251  0.1044 -0.3253
 1583W        W16714   7.714  17.103   1.327 -0.1621  0.1922 -0.1540
 1584W        W16715  10.908  11.737  13.444 -0.1957  0.2568 -0.0121
 1585W        W16716   8.479   6.793   9.521 -0.1533 -0.1966  0.0650
 1586W        W16717   9.794   8.985  11.482 -0.1181 -0.0213 -0.1457
 1587W        W16718  10.449  15.145  13.156 -0.0029 -0.0517  0.3917
 1588W        W16719  12.335   4.323   3.094  0.1909 -0.0936 -0.0173
 1589W        W16720   8.756  17.008  14.499 -0.0124 -0.0752 -0.0758
 1590W        W16721   0.684   3.241  11.054  0.0436  0.1504 -0.0425
 1591W        W16722   9.196  12.270  14.856  0.0098  0.3093  0.0431
 1592W        W16723   8.665  11.412  12.531 -0.0874  0.2856  0.0163
 1593W        W16724   4.972  15.276   3.994 -0.2590  0.1647 -0.0134
 1594W        W16725  14.050  15.135  12.737  0.2807  0.1237  0.3044
 1595W        W16726  12.479   7.115  13.766 -0.1642  0.0960  0.1517
 1596W        W16727   6.368   4.800   2.901 -0.2152 -0.0168  0.2546
 1597W        W16728  16.193  13.767   0.398  0.0215 -0.0125 -0.1744
 1598W        W16729  10.526   0.572   5.397 -0.1428 -0.3984  0.3710
 1599W        W16730  13.457   0.510   1.556  0.0341 -0.1099 -0.1781
 1600W        W16731  11.760  12.690  12.313  0.0535  0.1418  0.1512
 1601W        W16732   2.356   0.930   4.980 -0.1467  0.0190  0.3362
 1602W        W16733  12.352  15.467   1.649 -0.3235 -0.1293  0.0629
 1603W        W16734  12.064   5.394  12.940 -0.3662 -0.0530  0.2582
 1604W        W16735   4.186  11.547  12.609 -0.2754  0.0407 -0.0959
 1605W        W16736   0.491   6.127  15.302 -0.1980  0.0907  0.1331
 1606W        W16737   6.470  15.837   0.396 -0.1599  0.0552 -0.2079
 1607W        W16738   2.179  12.400  14.587 -0.0153 -0.0089  0.3913
 1608W        W16739   7.700   1.845   5.478 -0.0180 -0.0051 -0.2597
 1609W        W16740   5.899  13.202  11.627 -0.1281  0.1098  0.2688
 1610W        W16741   6.744   4.957   2.627 -0.1215  0.0718 -0.2291
 1611W        W16742  15.636   5.445   6.116  0.0317  0.1372  0.0110
 1612W        W16743  17.037   5.789   3.551 -0.0778  0.3564  0.1491
 1613W        W16744   3.965  16.780  10.153 -0.4466 -0.4866 -0.2709
 1614W        W16745   4.148  11.212  10.334  0.0225  0.0137 -0.0135
 1615W        W16746   6.398   6.249  11.967 -0.0395 -0.0010 -0.0215
 1616W        W16747  14.717   1.484  10.087 -0.0341  0.1301  0.0910
 1617W        W16748   1.069   7.052  15.545 -0.1200  0.1436 -0.0247
 1618W        W16749   4.589  10.757   1.115  0.1156  0.0315 -0.1135
 1619W        W16750  10.497  18.187   9.337 -0.0652 -0.0794 -0.4393
 1620W        W16751  11.662   0.720   3.739 -0.1910  0.1001 -0.0828
 1621W        W16752   1.320  11.904  13.815  0.1071 -0.1846  0.1144
 1622W        W16753  14.083  14.828   4.588 -0.2084  0.0979 -0.2003
 1623W        W16754   2.966  12.353   1.524  0.0389 -0.2727 -0.2857
 1624W        W16755  18.191  13.116   2.569 -0.0840  0.2273  0.2413
 1625W        W16756   0.244   8.622  12.407  0.1265  0.3468 -0.0912
 1626W        W16757   6.692   9.377   4.208 -0.0901  0.2215 -0.0880
 1627W        W16758   1.519   5.488  10.817  0.4045 -0.1242  0.3387
 1628W        W16759  13.860  16.898  12.405 -0.2858 -0.1654 -0.1464
 1629W        W16760   6.800  12.236  15.588  0.1141  0.0574  0.3932
 1630W        W16761  17.757   2.776   1.489 -0.1371 -0.0962 -0.3130
 1631W        W16762   5.825   9.614  11.853  0.1603  0.2807 -0.1636
 1632W        W16763  17.973   5.030  13.791 -0.0650 -0.0021  0.0417
 1633W        W16764   7.987   0.771   3.156  0.2550 -0.2757  0.1777
 1634W        W16765   3.744   3.132   3.900  0.1322  0.3525  0.1005
 1635W        W16766  11.960   4.994   1.877 -0.1118  0.1788  0.1388
 1636W        W16767   7.163   4.636  12.773 -0.0980 -0.2475 -0.1277
 1637W        W16768  14.676  15.219   1.673 -0.0810  0.0215  0.0055
 1638W        W16769   3.288   9.829   2.415  0.2840  0.0768  0.2378
 1639W        W16770   6.334  10.304  15.570 -0.1359  0.0922 -0.0207
 1640W        W16771   8.850  11.587   2.152  0.0884 -0.2611 -0.3093
 1641W        W16772  15.179  11.741  14.567  0.0447 -0.0814 -0.0488
 1642W        W16773  11.667  10.088   2.756 -0.0495  0.4057 -0.0798
 1643W        W16774  13.650   9.854   2.833 -0.0259 -0.2581 -0.1795
 1644W        W16775   2.908  10.258   2.227 -0.1805  0.3312 -0.0402
 1645W        W16776   6.554  17.455  11.891  0.0559 -0.0812 -0.2819
 1646W        W16777  13.274  13.384   0.236  0.1112  0.1181  0.0949
 1647W        W16778   3.633   0.857  11.234 -0.1845  0.0447  0.1499
 1648W        W16779   4.062   6.256   0.039  0.0410 -0.2804 -0.0052
 1649W        W16780   4.142   3.834  11.034 -0.2683 -0.1200  0.0886
 1650W        W16781   1.868   2.226  11.757 -0.3699  0.2729  0.1661
 1651W        W16782  17.843   0.724  14.355  0.2976  0.0006 -0.0880
 1652W        W16783  10.804   7.846   9.923 -0.3710  0.0302  0.2057
 1653W        W16784  10.749  10.484   3.612 -0.1212  0.0138 -0.1104
 1654W        W16785  10.280   6.848  13.283 -0.0344  0.1966  0.1749
 1655W        W16786  15.036   5.359  10.947 -0.3784 -0.0221  0.1711
 1656W        W16787  12.049  16.027   5.330  0.2752  0.3455  0.1381
 1657W        W16788   5.072   7.045   1.374  0.2550  0.1072  0.1945
 1658W        W16789   4.974  10.175   3.994 -0.0932 -0.2840 -0.3398
 1659W        W16790  13.382  12.593  14.249  0.1120 -0.1182 -0.0869
 1660W        W16791  11.915  16.287  12.860 -0.1394 -0.0494 -0.0793
 1661W        W16792   3.023   8.010   4.774 -0.2617 -0.2139  0.3995
 1662W        W16793  15.992   3.799  10.580  0.2073  0.2297 -0.1732
 1663W        W16794   7.811  14.158  14.788 -0.3464  0.1853  0.3511
 1664W        W16795  18.656  15.882   2.597 -0.3284  0.0340  0.0383
 1665W        W16796   8.866   8.290   2.291  0.0115 -0.2191  0.0661
 1666W        W16797   6.205  14.195   4.683  0.2108 -0.0341  0.0851
 1667W        W16798   5.103   5.912   0.231  0.5138 -0.0665  0.2185
 1668W        W16799   6.254  16.554   1.746  0.0931  0.0831  0.1080
 1669W        W16800   6.601   9.897   1.516 -0.0838 -0.3824 -0.1393
 1670W        W16801   8.015   2.850  11.478  0.0694 -0.0451  0.1355
 1671W        W16802  10.872   9.036  14.255 -0.2542  0.0008  0.0080
 1672W        W16803  13.848   3.013  11.517  0.0462  0.0066 -0.2224
 1673W        W16804   9.058  15.251   1.673  0.2519  0.0768  0.1089
 1674W        W16805   7.717   8.266   0.790  0.1651  0.0736  0.3018
 1675W        W16806   7.772  14.053  13.511 -0.3785 -0.3375 -0.1691
 1676W        W16807  11.872  11.901  13.771 -0.1286 -0.3764 -0.0674
 1677W        W16808  18.154   5.075  11.706 -0.0828 -0.2600 -0.5547
 1678W        W16809   5.621   1.577   2.140 -0.2956 -0.1148 -0.0040
 1679W        W16810   4.876   4.046  11.731  0.2246  0.0953  0.3512
 1680W        W16811  16.919   4.984  13.114 -0.0637  0.0758  0.0926
 1681W        W16812  18.136   9.074   4.057 -0.0069  0.1894 -0.1323
 1682W        W16813   9.575  17.567  12.923  0.0765  0.1507  0.3883
 1683W        W16814  11.236  18.701   0.776  0.0773  0.0281 -0.0182
 1684W        W16815   5.780   3.078   5.501  0.1662 -0.0850  0.3836
 1685W        W16816  15.512   0.895   3.351 -0.2568 -0.1540  0.2006
 1686W        W16817  12.771   0.174  14.135  0.0415 -0.0387 -0.1500
 1687W        W16818  16.995   6.671   1.019  0.1085 -0.1652  0.0510
 1688W        W16819   3.526  17.696   2.781  0.0595  0.1327  0.3526
 1689W        W16820  13.553   7.457   2.946 -0.2370 -0.0713  0.0155
 1690W        W16821  14.924   7.009   1.033  0.0228 -0.0385 -0.2398
 1691W        W16822   6.962   7.088   5.616 -0.0853 -0.1931  0.1363
 1692W        W16823   6.581   3.018   4.738 -0.0205 -0.0419 -0.0242
 1693W        W16824   7.514  11.067  15.071 -0.0936 -0.3018  0.1431
 1694W        W16825  15.355  11.810   0.841 -0.1245 -0.0187  0.1464
 1695W        W16826  10.499   4.281  12.897 -0.0588  0.1834  0.3516
 1696W        W16827  13.376  17.700  15.713  0.0673  0.0990  0.0863
 1697W        W16828  15.478   4.966  15.704  0.0952 -0.1616  0.0664
 1698W        W16829   3.945   1.615  12.837  0.3000 -0.1496 -0.5324
 1699W        W16830   8.285   7.311   4.936  0.0987  0.1535  0.0437
 1700W        W16831   7.811  14.458  13.042  0.1953  0.0152  0.0777
 1701W        W16832   3.673  16.270  13.073  0.2592 -0.1171 -0.0609
 1702W        W16833   4.574   4.277  14.442 -0.0073  0.0862  0.0259
 1703W        W16834  10.776   8.024  12.535  0.2218 -0.0058  0.1825
 1704W        W16835   4.216   5.950   4.943  0.0101  0.1625  0.0125
 1705W        W16836   4.971   0.613   1.523  0.1042 -0.2675 -0.0093
 1706W        W16837   7.627   8.872  11.249 -0.0533  0.2354 -0.0083
 1707W        W16838   8.403   8.413  13.789  0.1469 -0.1766 -0.0243
 1708W        W16839  13.425   6.649   3.166  0.1973 -0.1099 -0.5496
 1709W        W16840   3.464  11.586  11.682 -0.2258 -0.0198  0.1267
 1710W        W16841   9.750  17.142   3.814 -0.2858 -0.1384  0.1630
 1711W        W16842   1.001  15.882   4.520 -0.1489 -0.5084 -0.0286
 1712W        W16843  12.721  13.768  11.574 -0.2312  0.0248 -0.1825
 1713W        W16844   6.915   1.878   4.344 -0.1624 -0.2261  0.0101
 1714W        W16845   5.197  16.812   3.912  0.1614  0.4349 -0.0746
 1715W        W16846   1.536  15.871   0.702  0.0040 -0.1268  0.0094
 1716W        W16847   9.886  10.987   2.555  0.0789 -0.3976 -0.2382
 1717W        W16848  10.563  18.332   4.577  0.4310  0.2066  0.0534
 1718W        W16849   9.409   1.929  15.471  0.0982 -0.0732  0.2319
 1719W        W16850  10.401  18.060   0.072  0.0691 -0.1591 -0.2801
 1720W        W16851  13.070  10.911   2.385  0.1478  0.3640 -0.1506
 1721W        W16852  15.050   0.156   2.937 -0.2375  0.1333 -0.0542
 1722W        W16853   0.253   6.006   2.691 -0.1927  0.2538  0.1057
 1723W        W16854  10.400   0.741  15.525  0.2538 -0.1897  0.3346
 1724W        W16855  16.523  14.431  10.495 -0.0084  0.1695  0.0249
 1725W        W16856   9.107   9.477   1.546 -0.1928  0.2144 -0.0564
 1726W        W16857  16.954   6.959   3.616 -0.0586  0.0155 -0.0797
 1727W        W16858   2.356   6.262  13.971  0.0224  0.0980  0.1006
 1728W        W16859  17.988   6.716   3.561  0.0727  0.0160  0.0062
 1729W        W16860   4.209   8.702  11.379 -0.0706 -0.1809 -0.1028
 1730W        W16861   4.766  16.602   4.957  0.0121  0.3141  0.2477
 1731W        W16862   6.778  13.246  10.614 -0.0948  0.2001  0.0859
 1732W        W16863  10.132   1.124  14.013 -0.1203 -0.5458  0.3531
 1733W        W16864  13.231   0.940  13.342 -0.3401 -0.2323  0.1199
 1734W        W16865   3.584   7.844   1.856 -0.0400 -0.2935  0.1192
 1735W        W16866   5.236   7.741   3.658 -0.0234  0.1254 -0.1254
 1736W        W16867   0.061   0.312   6.211  0.1176  0.0545 -0.4351
 1737W        W16868   3.401   6.541  15.215  0.0422  0.1163 -0.0867
 1738W        W16869  16.772  12.093   2.002 -0.0571 -0.0945  0.2686
 1739W        W16870  12.709   1.636   1.408 -0.0597  0.0699  0.1559
 1740W        W16871   0.795   9.993   4.739  0.1448  0.0347  0.0114
 1741W        W16872   0.699   5.891   4.518  0.1151 -0.0608 -0.4646
 1742W        W16873   7.573   5.101  15.730 -0.2129  0.2808 -0.1879
 1743W        W16874  15.292  16.119  15.749  0.1678  0.0870  0.0082
 1744W        W16875  11.411  14.009   2.706  0.2209  0.4278 -0.1437
 1745W        W16876   6.392  14.150   4.142 -0.0432 -0.0168  0.0278
 1746W        W16877   6.209   9.993  13.243  0.3795 -0.2488  0.1879
 1747W        W16878  15.956  12.373  12.452 -0.0998  0.2321 -0.0394
 1748W        W16879   1.726   6.338  15.319 -0.1801  0.3645 -0.1530
 1749W        W16880   0.897  13.256  14.889 -0.1510 -0.0628 -0.2757
 1750W        W16881   7.937   8.572  12.569 -0.0300 -0.1855 -0.0273
 1751W        W16882  13.827   8.477  13.709 -0.0118 -0.1881 -0.4297
 1752W        W16883  16.840  18.363  13.007 -0.1401  0.1712 -0.0043
 1753W        W16884   8.992   6.046  10.570  0.1199  0.0230  0.1449
 1754W        W16885  12.160   2.380   4.140  0.1002 -0.1283  0.0545
 1755W        W16886  16.192  17.577  14.013  0.0302  0.1788 -0.0845
 1756W        W16887   3.497  14.800  14.790  0.1585 -0.0525  0.0816
 1757W        W16888   0.806   7.829  11.242  0.3255  0.0162  0.1176
 1758W        W16889   9.945   0.964   0.869  0.0431  0.4131 -0.0716
 1759W        W16890   3.683   2.488  12.556  0.0363  0.1394  0.0019
 1760W        W16891   9.367   3.767   0.161 -0.0841  0.1276 -0.0970
 1761W        W16892  17.082   7.865   2.367  0.2500  0.1673  0.2189
 1762W        W16893   7.766  15.502   4.353 -0.1318 -0.3013  0.0556
 1763W        W16894   7.684   0.961  14.159 -0.0114  0.1486 -0.1939
 1764W        W16895   1.123   6.374   5.266 -0.0734  0.2327  0.3880
 1765W        W16896   5.503   7.799  12.115 -0.2627  0.1566  0.0061
 1766W        W16897   2.554  11.335  13.858  0.0707  0.0359  0.0540
 1767W        W16898   2.743   5.834   1.579 -0.0673 -0.0280  0.0205
 1768W        W16899  12.264  14.140   2.970  0.1810  0.0454  0.1524
 1769W        W16900  13.821  10.090   1.073 -0.1124  0.1098  0.0314
 1770W        W16901  16.046  12.213   2.342 -0.1511 -0.2417  0.0088
 1771W        W16902  11.212  13.381   3.191  0.2213  0.4289  0.1367
 1772W        W16903   8.543   0.851   3.131  0.2041  0.2230 -0.3130
 1773W        W16904   4.638  15.500   0.559 -0.0481  0.2362  0.1186
 1774W        W16905  17.284  16.824   4.583 -0.2079 -0.0292 -0.4177
 1775W        W16906   0.591  11.556   2.941  0.4866 -0.1157  0.2250
 1776W        W16907  11.704  12.176  10.475  0.2560  0.3830 -0.1363
 1777W        W16908  18.036   0.643   1.482 -0.1359 -0.3594 -0.1164
 1778W        W16909   3.359  10.279  14.640  0.3542 -0.0298  0.2713
 1779W        W16910   1.167   8.831  15.790  0.1355 -0.0087 -0.1157
 1780W        W16911  13.133   4.969  15.492 -0.1527  0.0914 -0.3198
 1781W        W16912  10.065   8.003  15.114  0.0365 -0.3041 -0.0422
 1782W        W16913   8.147   6.561  14.144 -0.3536 -0.0610 -0.1227
 1783W        W16914   2.645   1.501   1.361  0.2981  0.2352  0.1596
 1784W        W16915  12.957   2.389   3.034 -0.1334  0.2533 -0.2109
 1785W        W16916   8.880   2.968   2.706 -0.0989  0.0632  0.0477
 1786W        W16917   6.359   0.707   0.575 -0.1651 -0.1798 -0.0832
 1787W        W16918  17.561   5.842   0.837  0.0821  0.4021 -0.0723
 1788W        W16919   7.680  13.241  12.396  0.2789  0.2200  0.2034
 1789W        W16920  17.390   4.723  11.678 -0.1213 -0.2253  0.0042
 1790W        W16921  15.164   5.817   1.478 -0.0997  0.0948 -0.3852
 1791W        W16922   5.200   5.205  11.066  0.1259 -0.2896  0.0041
 1792W        W16923  10.653  11.546   0.083 -0.1354  0.0909  0.1250
 1793W        W16924  17.980   8.890  15.463 -0.0950 -0.2036  0.0409
 1794W        W16925   0.589   8.217   3.269  0.0260 -0.3357  0.0254
 1795W        W16926  11.193   0.047  13.601 -0.4692  0.2181 -0.1291
 1796W        W16927   7.980   4.808   0.071 -0.0524  0.3070 -0.0608
 1797W        W16928  11.964   2.861   4.350  0.0648 -0.1402  0.2112
 1798W        W16929   5.308   7.299  11.938 -0.0695  0.2386  0.1642
 1799W        W16930   1.346   1.131   2.205 -0.2987  0.1586  0.1966
 1800W        W16931  16.816  10.248   4.293 -0.0903  0.0712 -0.0054
 1801W        W16932  15.664   0.554   4.455 -0.1004 -0.4047 -0.1927
 1802W        W16933   0.386  17.895  13.841 -0.2530 -0.2768 -0.1030
 1803W        W16934   9.791  12.218  12.570 -0.2455  0.0121  0.1695
 1804W        W16935  11.559   1.019  14.650  0.0629 -0.2610 -0.1391
 1805W        W16936   4.559   1.359  10.584  0.1398 -0.0065  0.3567
 1806W        W16937  11.060   1.885   9.992  0.0922 -0.0431  0.0788
 1807W        W16938   0.599  11.882  10.644 -0.0534 -0.3091  0.0803
 1808W        W16939  11.263  17.138  11.919 -0.1758  0.0176  0.1068
 1809W        W16940  11.176   3.479  14.411 -0.1566  0.2423 -0.0008
 1810W        W16941  15.825   2.543  15.443  0.5160 -0.0668  0.2911
 1811W        W16942  17.370   2.135   0.959 -0.0729  0.4259 -0.1382
 1812W        W16943   1.962  11.203  15.799  0.2623 -0.0101  0.1770
 1813W        W16944   5.375  13.889   6.212  0.3311  0.1466 -0.3612
 1814W        W16945  10.309   0.322   1.594 -0.0826  0.1016  0.1311
 1815W        W16946  12.443  13.664   1.200  0.0756 -0.1170  0.2446
 1816W        W16947  14.118  18.375   1.954  0.1672 -0.1311 -0.0181
 1817W        W16948  10.490   4.862   1.528 -0.2184 -0.0404 -0.0672
 1818W        W16949   7.536   5.547  13.372  0.2678 -0.0668 -0.0642
 1819W        W16950   6.512  17.219   2.403  0.0441 -0.0417 -0.0751
 1820W        W16951   5.747   9.002   4.089  0.0861  0.0368 -0.0804
 1821W        W16952   0.959   7.079   0.616 -0.0583  0.1798  0.2329
 1822W        W16953  16.275  11.837  15.439 -0.3226 -0.4096 -0.0813
 1823W        W16954  11.744  18.524   1.493 -0.1178 -0.0859  0.1716
 1824W        W16955  14.324   2.448  12.481 -0.1013 -0.0819 -0.0098
 1825W        W16956  12.603  16.902  11.692 -0.1088 -0.1593  0.0704
 1826W        W16957  12.445  11.623   3.205  0.3837 -0.1406  0.0441
 1827W        W16958   4.343   4.810   3.102 -0.1755 -0.0058 -0.0670
 1828W        W16959  10.895  13.348  14.339 -0.1625  0.2488 -0.2820
 1829W        W16960   9.699   9.241   2.726 -0.0930 -0.1916  0.0209
 1830W        W16961   4.537   6.786   2.565  0.1369  0.0073  0.0317
 1831W        W16962  15.854  11.141  15.315 -0.0884  0.2634  0.3685
 1832W        W16963  15.483   2.500  14.995 -0.2960  0.0111 -0.0477
 1833W        W16964  11.135   8.002  14.853  0.2361 -0.0141 -0.1748
 1834W        W16965   2.223   5.554  10.790  0.0818  0.1270  0.0560
 1835W        W16966   0.878   1.137   3.651 -0.4775  0.1463  0.0589
 1836W        W16967  13.374  15.579   4.809 -0.5141  0.0836 -0.0119
 1837W        W16968  18.721  11.656   2.384  0.0262  0.0725  0.1228
 1838W        W16969   6.384   2.360   0.181 -0.2554 -0.3483 -0.2917
 1839W        W16970   0.369  14.614  11.224 -0.1928 -0.1123 -0.0785
 1840W        W16971  13.053   8.763   0.304  0.0671 -0.0492  0.2007
 1841W        W16972  18.672  18.693  13.422  0.3435 -0.1972  0.1946
 1842W        W16973   0.477   0.138  12.900  0.1432 -0.1538 -0.0389
 1843W        W16974  15.306   2.670  10.961 -0.2937  0.3093  0.1276
 1844W        W16975  10.960  15.418  11.677 -0.1417 -0.0756 -0.0500
 1845W        W16976  11.936  12.044  14.964 -0.0330 -0.3231 -0.0579
 1846W        W16977   9.037   6.974   2.071  0.3073  0.0057 -0.1544
 1847W        W16978  14.870  17.694   2.176  0.1488  0.0495  0.1994
 1848W        W16979  10.706   0.030  15.438  0.0091 -0.3558  0.1069
 1849W        W16980   2.408  13.547  13.843 -0.3114 -0.0454  0.1821
 1850W        W16981   0.643   5.902   2.984 -0.4654  0.0195  0.3919
 1851W        W16982   6.993  10.324   2.021  0.0262  0.2010  0.1140
 1852W        W16983  18.469  18.673   4.065 -0.0059 -0.2585  0.1767
 1853W        W16984  12.979  11.287   2.623 -0.1584 -0.1981 -0.0250
 1854W        W16985   1.681   1.833  13.385  0.1150  0.2959 -0.0078
 1855W        W16986   8.234   5.606  10.757  0.0176 -0.2494 -0.2022
 1856W        W16987   7.458   4.664  13.947  0.2193  0.0011  0.2688
 1857W        W16988   4.527  15.085  11.622  0.1023  0.0548 -0.1754
 1858W        W16989  10.374   4.814  11.364 -0.0043 -0.3000  0.0045
 1859W        W16990  18.108  13.849   3.809  0.2666 -0.0622 -0.0049
 1860W        W16991  16.285   1.000   3.012 -0.0685  0.0484  0.3138
 1861W        W16992  18.609  11.354   5.393  0.0728 -0.0169 -0.1860
 1862W        W16993   2.272   6.355   2.955 -0.0363  0.3037 -0.0601
 1863W        W16994  17.395   1.009   4.738  0.1264  0.3019 -0.1812
 1864W        W16995  13.357   2.469   0.957 -0.0883 -0.0382 -0.0924
 1865W        W16996  11.487   3.359  15.556 -0.4122 -0.0565 -0.0536
 1866W        W16997   5.283   8.750   1.056 -0.0139 -0.0650  0.1576
 1867W        W16998   4.385   4.019   0.063 -0.1293  0.0473 -0.0806
 1868W        W16999  12.421  17.633   0.362  0.1364 -0.1026 -0.1001
 1869W        W17000  10.222   2.488   5.428  0.3340 -0.0505 -0.1261
 1870W        W17001   5.921   9.584  13.613  0.1118  0.1676  0.1802
 1871W        W17002   4.830  14.263  12.953  0.3332 -0.5221  0.1667
 1872W        W17003  11.809  15.701  10.997  0.1415  0.0226  0.1615
 1873W        W17004  11.972   1.802  14.692 -0.0220  0.1193 -0.1020
 1874W        W17005  10.775   8.662  13.383  0.2738 -0.1430  0.4251
 1875W        W17006  13.448  16.290   1.090 -0.0233 -0.2113 -0.0340
 1876W        W17007   9.582   3.338   1.574  0.1882 -0.0493  0.1684
 1877W        W17008   9.200  13.982   0.028  0.3284  0.0018 -0.0810
 1878W        W17009   3.279  16.288  15.709 -0.1987  0.1078 -0.0734
 1879W        W17010   0.167  15.194  14.816  0.0558 -0.1509 -0.2878
 1880W        W17011   9.861  14.223   0.591 -0.3002 -0.0818 -0.1576
 1881W        W17012   4.566   0.121  14.704  0.1846  0.0660 -0.1298
 1882W        W17013  10.931  15.274  14.990  0.1145  0.0116 -0.0090
 1883W        W17014   0.292   8.408   0.101 -0.4211  0.0875  0.1207
 1884W        W17015   4.945  14.020   5.714 -0.0996  0.1739 -0.1374
 1885W        W17016   8.666   3.222   5.519  0.1138 -0.0990 -0.2160
 1886W        W17017   9.096   7.981  14.348  0.1982 -0.4459  0.0898
 1887W        W17018  18.578   6.043  10.537  0.0111  0.0452 -0.2370
 1888W        W17019  11.465   4.860   3.651  0.0280 -0.1850 -0.6093
 1889W        W17020  10.174  17.112  14.654 -0.2043 -0.0312  0.2349
 1890W        W17021   5.895  12.824   3.038  0.0322  0.2125  0.2710
 1891W        W17022   3.738   1.153  13.723  0.3765 -0.2224  0.2550
 1892W        W17023  11.218  10.389  14.496 -0.2476  0.0044 -0.1772
 1893W        W17024  14.663  15.064  11.897 -0.0572  0.0304  0.2209
 1894W        W17025   5.921   6.036   1.540  0.1787  0.1181 -0.2409
 1895W        W17026   1.420  13.871  14.064  0.0533  0.0492  0.0056
 1896W        W17027   1.355   0.372   0.454 -0.0720 -0.2052 -0.5464
 1897W        W17028  16.787  12.736  13.649 -0.3138 -0.1481  0.2506
 1898W        W17029   2.897  17.484   5.121  0.5205 -0.1677 -0.0678
 1899W        W17030   4.717   9.889  13.981 -0.1774  0.0797 -0.2417
 1900W        W17031   4.326   0.693  13.301 -0.2762  0.0224  0.3126
 1901W        W17032  10.389   8.914   4.379 -0.4301  0.0953 -0.0642
 1902W        W17033  13.852   3.783  15.378 -0.0188 -0.1540  0.0441
 1903W        W17034  18.716   8.224  11.936 -0.1386  0.0133 -0.1337
 1904W        W17035  17.244   2.892  13.943 -0.1406  0.1496 -0.2404
 1905W        W17036   2.368  13.584   1.740  0.2199  0.0055  0.3958
 1906W        W17037   7.696   8.502  11.968  0.5577 -0.3102  0.1874
 1907W        W17038   7.913  17.237  13.230 -0.1120  0.2560 -0.0086
 1908W        W17039  14.763   1.538   2.165  0.3066 -0.1064 -0.2665
 1909W        W17040   9.931  13.186   2.829 -0.2668  0.1710  0.1101
 1910W        W17041  13.731  17.585  10.738 -0.2086  0.2509 -0.0581
 1911W        W17042   2.515  10.556  14.803 -0.1231 -0.0742 -0.1494
 1912W        W17043  17.465   0.711  13.457  0.1450 -0.2883 -0.1734
 1913W        W17044   3.363   4.320   3.257 -0.3091 -0.2206 -0.0370
 1914W        W17045   8.821  14.132   1.726 -0.2808  0.1376  0.1311
 1915W        W17046  13.974   5.144  15.748 -0.1154 -0.2891 -0.0310
 1916W        W17047   4.897   4.557   4.922 -0.0531 -0.0239 -0.1616
 1917W        W17048  14.179   7.768   3.368  0.3985 -0.1202 -0.0679
 1918W        W17049   4.769   1.355   1.320  0.2127  0.1982  0.2314
 1919W        W17050  14.903   3.736   4.242 -0.1588 -0.1784 -0.0618
 1920W        W17051  12.340  15.142   3.748 -0.0028 -0.2151  0.2238
 1921W        W17052   6.292   8.020   2.118  0.1645  0.1578  0.0395
 1922W        W17053   4.409  11.439  10.751 -0.0495  0.0163  0.0854
 1923W        W17054  16.003   1.754   3.953  0.1689  0.0110  0.0861
 1924W        W17055   7.841   5.863   3.454  0.1896  0.0637  0.1167
 1925W        W17056   3.826   7.203   2.621 -0.1974 -0.0170 -0.0600
 1926W        W17057  15.380  16.141   5.502 -0.0837  0.0329 -0.3423
 1927W        W17058  17.915   7.669  13.121 -0.1770  0.0771  0.1141
 1928W        W17059  11.018  16.626   1.250  0.1143 -0.1653 -0.1030
 1929W        W17060   0.106  14.505  13.424 -0.1972  0.1325 -0.0216
 1930W        W17061   0.230   2.209   5.049  0.0123 -0.0874 -0.2407
 1931W        W17062   8.783   2.621  14.338  0.2020  0.1033  0.6824
 1932W        W17063   2.667   5.810  14.848  0.0284 -0.0681  0.1152
 1933W        W17064   2.430  11.286  12.036  0.2955  0.1214  0.1463
 1934W        W17065  10.058  17.349   4.196  0.1989 -0.5603 -0.2164
 1935W        W17066   8.901   6.640  13.776 -0.1801  0.4043 -0.1237
 1936W        W17067  12.247  17.052   1.068 -0.2934  0.2253 -0.0914
 1937W        W17068   8.195  11.661  10.739  0.1431  0.1172 -0.0650
 1938W        W17069  13.898  11.115   0.713 -0.0888  0.0955 -0.0620
 1939W        W17070   4.332  13.311   5.207  0.2495 -0.1619 -0.2980
 1940W        W17071   2.676  14.071  15.780 -0.3598 -0.2134  0.4195
 1941W        W17072   2.766   4.795  13.555  0.2664 -0.0500  0.3539
 1942W        W17073  17.709   4.531  10.188 -0.1369  0.0829 -0.1783
 1943W        W17074  16.204  13.218  13.201 -0.0377  0.0105  0.1481
 1944W        W17075   8.552  13.494  13.801  0.3812 -0.0917  0.1787
 1945W        W17076  10.194   6.432   4.429 -0.3751  0.1956 -0.3665
 1946W        W17077   9.291  13.984  12.189  0.3168 -0.2404 -0.4810
 1947W        W17078   6.174  18.019   1.720 -0.1224  0.2175  0.0953
 1948W        W17079   9.148   8.907   0.184  0.0274 -0.3648  0.2090
 1949W        W17080  15.251   5.154   0.321 -0.0969 -0.1808  0.0157
 1950W        W17081   1.825  11.346  11.055  0.2287  0.0564  0.3567
 1951W        W17082  17.172   7.922  10.902 -0.3911  0.2083  0.4480
 1952W        W17083   3.176   3.471   5.264 -0.1203  0.2110 -0.0164
 1953W        W17084  15.666   2.305   2.870  0.0093  0.1022  0.0741
 1954W        W17085   5.563   8.254   1.011  0.2933  0.3037 -0.2477
 1955W        W17086  17.617  14.611   1.972  0.2717  0.1311  0.0629
 1956W        W17087   6.029   6.280  13.726 -0.3748 -0.1638  0.1667
 1957W        W17088   9.519  13.853   4.163 -0.2193 -0.2873 -0.1286
 1958W        W17089  14.303   2.590   1.259 -0.2220  0.0453  0.1213
 1959W        W17090  13.248  10.931  12.781  0.3947 -0.0553  0.0507
 1960W        W17091   2.127  14.351   2.545  0.2097 -0.1183  0.1002
 1961W        W17092   8.277  10.712  14.200  0.0928  0.0531  0.3288
 1962W        W17093  12.914  13.637   4.550  0.0314 -0.2978  0.3882
 1963W        W17094   3.957  15.979  11.965  0.2487 -0.2098  0.1858
 1964W        W17095   8.574   7.043   0.069  0.2643 -0.1187  0.0349
 1965W        W17096   1.040   1.738   1.614  0.2637  0.2320 -0.4749
 1966W        W17097   4.687  15.578  12.356  0.1548 -0.1389  0.2417
 1967W        W17098   5.398  14.872   2.689 -0.2927  0.2936 -0.0287
 1968W        W17099   1.888   4.761   1.392  0.2165  0.1387 -0.0339
 1969W        W17100  17.995  13.376   3.771  0.0909 -0.1048 -0.0564
 1970W        W17101   5.480   8.237  14.018 -0.2395 -0.0786 -0.1330
 1971W        W17102   4.237  12.249  14.269  0.4238  0.1016  0.2002
 1972W        W17103   7.076  12.499  10.335  0.2680  0.0873  0.0707
 1973W        W17104   2.895   8.597   4.782 -0.0385  0.2176  0.0977
 1974W        W17105  10.507  12.417   1.677  0.1351 -0.0422  0.1131
 1975W        W17106   8.995   4.533  12.394  0.1184 -0.0644 -0.1609
 1976W        W17107  12.950   0.652  14.262 -0.0065 -0.1901 -0.0844
 1977W        W17108   8.157   8.108  11.154 -0.0883  0.1238  0.3565
 1978W        W17109  15.547  13.651   1.016  0.0623 -0.1724  0.0195
 1979W        W17110  16.047  16.766   1.796 -0.0295 -0.0706 -0.3951
 1980W        W17111   9.606  12.813  13.924 -0.0254  0.1214  0.3516
 1981W        W17112  12.770  11.885  11.792 -0.3319 -0.1134 -0.0630
 1982W        W17113   5.310  12.602   2.473 -0.2027  0.0935  0.2969
 1983W        W17114  15.067  14.484   0.797  0.1484  0.2211  0.1664
 1984W        W17115  17.730   3.613   2.952 -0.0201 -0.0750  0.5113
 1985W        W17116   8.639   5.322   4.348  0.1728 -0.1136  0.1938
 1986W        W17117   4.768   8.592   3.417 -0.0302  0.2139 -0.3232
 1987W        W17118  15.261  17.920  13.640  0.0056 -0.0935 -0.3401
 1988W        W17119  12.146   6.519  10.427  0.1073 -0.1183  0.0833
 1989W        W17120  12.769  18.014   5.106 -0.2134 -0.1169  0.1636
 1990W        W17121   8.645  13.603   4.122 -0.1214  0.0309 -0.2273
 1991W        W17122   6.934  11.929  15.025 -0.1568 -0.2838 -0.2096
 1992W        W17123  17.415  18.078  13.578 -0.3911  0.1213  0.2703
 1993W        W17124  12.626  12.451   0.194  0.2532 -0.1036 -0.1573
 1994W        W17125   2.307  17.330  11.114 -0.1139  0.2419 -0.2020
 1995W        W17126   3.566  10.652  12.484  0.0638  0.1752 -0.0435
 1996W        W17127   3.526   4.922   0.137 -0.1780 -0.0696 -0.0600
 1997W        W17128   4.780  14.287  13.468  0.2073 -0.0018  0.1201
 1998W        W17129  16.053  15.776   1.436  0.2621  0.1006  0.2673
 1999W        W17130  14.577   9.443   1.752 -0.0015  0.0648  0.3623
 2000W        W17131   7.842   2.037  13.504  0.2113  0.0459 -0.0799
 2001W        W17132   7.313   2.567  11.033  0.0624 -0.0001 -0.0369
 2002W        W17133  17.286   6.606   6.124  0.2776 -0.2456 -0.1349
 2003W        W17134   7.795  16.974   2.226 -0.0907 -0.4455  0.0929
 2004W        W17135  12.633  13.814  14.035  0.4310  0.2930 -0.1616
 2005W        W17136  11.610   5.125  11.786 -0.0057  0.2051 -0.1704
 2006W        W17137   0.835  16.342   4.706  0.2586  0.0669 -0.0814
 2007W        W17138   6.434  12.971   2.852 -0.0737 -0.5152 -0.1177
 2008W        W17139   3.003  17.985   1.729  0.1027 -0.0369 -0.1349
 2009W        W17140  13.007   7.816  13.659  0.1318  0.3719  0.3491
 2010W        W17141   6.572  10.162  15.010 -0.1179  0.0632 -0.0915
 2011W        W17142  15.503  12.459  13.199 -0.1751  0.0621  0.0797
 2012W        W17143  15.727   1.548  15.136  0.0109 -0.0529 -0.0950
 2013W        W17144   2.909  13.053   1.178 -0.0391 -0.0929 -0.2177
 2014W        W17145  17.625   4.685  11.203  0.3561  0.0978 -0.1091
 2015W        W17146   0.754  10.544  12.923 -0.1608  0.1648 -0.1673
 2016W        W17147   9.829   4.082   5.863 -0.1711  0.1459  0.2971
 2017W        W17148   4.017   2.962  10.947  0.0089  0.0009  0.0451
 2018W        W17149   3.372  15.070   4.330  0.3713  0.0354 -0.0552
 2019W        W17150   5.180   6.029   3.957 -0.1928 -0.0526 -0.3001
 2020W        W17151  12.390   8.626   1.117  0.0539 -0.1756  0.0100
 2021W        W17152   4.624  15.759   0.032  0.1344  0.3169 -0.1481
 2022W        W17153   6.186  16.092  14.767  0.1377  0.1028 -0.1111
 2023W        W17154  10.139   5.044  14.092  0.1713  0.1854  0.0910
 2024W        W17155  12.495   1.010  13.596 -0.1591  0.1586 -0.1046
 2025W        W17156   1.636  13.899  15.765  0.0264 -0.0622  0.2692
 2026W        W17157   9.230  16.439  13.940 -0.3445 -0.0556  0.2542
 2027W        W17158   0.438  14.549   2.946  0.0533  0.0537  0.1108
 2028W        W17159  17.074  17.218   2.672 -0.0086 -0.3684  0.0394
 2029W        W17160   9.055  10.527  13.559 -0.0450 -0.1625  0.0369
 2030W        W17161   4.221  13.745   2.749  0.0697  0.2214  0.4277
 2031W        W17162  13.773   6.720   5.914 -0.2606 -0.2496 -0.2171
 2032W        W17163   9.310  15.875   0.526 -0.0937  0.1127 -0.0006
 2033W        W17164  10.964  11.279   1.651 -0.2676  0.3297  0.3143
 2034W        W17165  16.424   4.780   1.744  0.1922 -0.3015  0.1657
 2035W        W17166   8.063   9.046  10.131  0.2213  0.2251  0.1337
 2036W        W17167  10.217   8.934   1.469  0.0678  0.0049  0.2233
 2037W        W17168   7.303   4.104  15.686  0.0587  0.1067 -0.1276
 2038W        W17169  12.547  11.421   5.794 -0.0420 -0.2352  0.0815
 2039W        W17170  15.066   6.679  11.165  0.0412 -0.3711 -0.0771
 2040W        W17171   5.007  16.864  13.059 -0.1950  0.1237 -0.1760
 2041W        W17172  10.303  13.287  15.436  0.0716  0.4140  0.1321
 2042W        W17173  16.621   7.908   0.852 -0.4712 -0.0921 -0.2660
 2043W        W17174   2.973   9.138   0.611  0.3298  0.0726  0.2595
 2044W        W17175  11.052   0.872   4.814  0.0771 -0.1053  0.1119
 2045W        W17176   9.123   2.892  10.371  0.3845  0.1870  0.1268
 2046W        W17177  18.344   8.170   3.999  0.0534 -0.0375 -0.5000
 2047W        W17178  15.587  13.090   0.280  0.0587  0.1609 -0.0006
 2048W        W17179   7.599  13.418  10.442  0.1115  0.0671 -0.1375
 2049W        W17180  15.229   7.290   5.004 -0.2183 -0.2323 -0.3055
 2050W        W17181   4.988   2.374   0.132  0.0706  0.1218  0.0723
 2051W        W17182   4.056  12.968  12.043 -0.2221 -0.1580  0.2984
 2052W        W17183   0.397  12.801  14.086 -0.1065  0.0108 -0.0516
 2053W        W17184  10.259   5.669  12.886 -0.3771  0.2741 -0.0024
 2054W        W17185  17.302  11.224  11.215 -0.0891 -0.1503  0.1197
 2055W        W17186   0.780   8.944   5.107  0.3231  0.0080  0.1307
 2056W        W17187   1.424   7.556  15.625 -0.1088 -0.0231 -0.3082
 2057W        W17188  18.054  17.448  12.408  0.4198 -0.2009  0.0939
 2058W        W17189   1.796   8.528   1.567  0.3226 -0.1201  0.0662
 2059W        W17190  15.424  15.227  12.538  0.2871  0.0729  0.4586
 2060W        W17191  14.028   0.768  11.861 -0.0539  0.0780 -0.1076
 2061W        W17192   4.965   9.470  12.735 -0.1621 -0.0652  0.0059
 2062W        W17193  16.974  11.106  15.661 -0.0093  0.3151 -0.0812
 2063W        W17194   0.362   4.449  10.545 -0.0342  0.2367  0.2567
 2064W        W17195   5.561  15.426  12.053 -0.0883 -0.1834  0.0343
 2065W        W17196   8.612   1.676  13.677  0.3092  0.1843 -0.2421
 2066W        W17197  14.757   4.113  13.675 -0.0158  0.2374 -0.2815
 2067W        W17198   5.089   6.388   0.333  0.2582  0.2496 -0.0786
 2068W        W17199   2.093  10.643  13.392 -0.1212  0.4411  0.1438
 2069W        W17200  15.797  17.786   2.255 -0.4744 -0.2923  0.0808
 2070W        W17201  16.574  11.688  15.014 -0.1469 -0.1271 -0.1055
 2071W        W17202   9.659   5.402   3.373  0.0175  0.3488  0.1220
 2072W        W17203  13.818   6.075  12.115 -0.0847 -0.0692 -0.3680
 2073W        W17204   0.323  13.566  12.797  0.0223 -0.0060 -0.2707
 2074W        W17205  16.682  17.598  14.571 -0.4461  0.0309 -0.0070
 2075W        W17206   9.949   4.684   2.505 -0.0100  0.0760 -0.0626
 2076W        W17207  15.562   6.679   0.314 -0.2224 -0.0197  0.0478
 2077W        W17208  11.058   1.611  11.162 -0.0021 -0.1906  0.2133
 2078W        W17209   2.151   9.969  14.073 -0.1107  0.1420  0.0417
 2079W        W17210   9.284  10.755   2.540 -0.3067 -0.0778 -0.1393
 2080W        W17211   7.945   9.789  10.630  0.3352  0.1331  0.2477
 2081W        W17212   5.993  16.807  12.974 -0.0089  0.1432  0.0945
 2082W        W17213  11.493   3.597   2.643  0.1058  0.0734  0.1100
 2083W        W17214   9.433   8.776   0.567  0.0299  0.1219  0.2594
 2084W        W17215   7.180  10.669  14.064 -0.2751 -0.0135  0.1482
 2085W        W17216  13.949   9.114   3.193  0.1742  0.1663  0.0302
 2086W        W17217   0.720   0.830   4.096 -0.0486  0.0669 -0.2377
 2087W        W17218   9.577   5.130   0.717  0.2094  0.0367  0.2542
 2088W        W17219   2.172   9.289   1.634  0.0878  0.0721  0.0598
 2089W        W17220  10.561   2.400   1.039 -0.1095 -0.1509  0.3615
 2090W        W17221  13.630   8.330   0.815  0.1456 -0.0335 -0.0770
 2091W        W17222  11.286   6.293  10.343  0.1180 -0.0128 -0.1142
 2092W        W17223   2.203  14.457   3.476  0.0294 -0.0478 -0.2488
 2093W        W17224   3.540  16.236   4.868 -0.0203  0.3329 -0.2787
 2094W        W17225  10.664   0.926  10.698  0.0265  0.1168 -0.1209
 2095W        W17226   5.140  15.641   3.640  0.0734  0.0519  0.2047
 2096W        W17227  11.854   5.837   0.395 -0.1539 -0.0912 -0.0118
 2097W        W17228   4.157   9.572  15.214 -0.0317 -0.1957 -0.4271
 2098W        W17229   8.231  10.386   0.193 -0.1464  0.2878 -0.0435
 2099W        W17230  13.551   0.554  12.003 -0.4287  0.0281  0.2896
 2100W        W17231   6.379   8.644   4.637 -0.0666  0.1097 -0.0844
 2101W        W17232  17.060  11.189  13.089  0.3216 -0.0459  0.2151
 2102W        W17233  18.100  15.803   1.788 -0.0832  0.1590  0.0560
 2103W        W17234  12.913   5.161   0.585 -0.2954 -0.1733  0.1724
 2104W        W17235  14.494   6.760   2.840 -0.0209  0.0857  0.0993
 2105W        W17236  16.812  13.547  12.335 -0.0655 -0.4101 -0.0924
 2106W        W17237  17.452   9.837  11.945 -0.0459 -0.0232 -0.0802
 2107W        W17238   3.961   1.851  15.783  0.1299 -0.2696  0.0393
 2108W        W17239   9.624  14.283   0.136  0.0127  0.0444  0.3200
 2109W        W17240  11.452   1.258  14.134 -0.0977  0.5370 -0.1709
 2110W        W17241   5.730   6.401   0.913 -0.0102  0.0296  0.0421
 2111W        W17242  14.681  16.784   1.948 -0.2830  0.0169  0.0305
 2112W        W17243  16.506   8.369   1.565 -0.4957  0.1330 -0.1108
 2113W        W17244   0.362  17.427   4.035  0.1935 -0.0778 -0.0624
 2114W        W17245  17.544   5.197  10.897 -0.2540 -0.2147 -0.2551
 2115W        W17246  15.778   4.153   3.875  0.0057 -0.1859  0.1384
 2116W        W17247   5.582  11.617  11.486 -0.2125  0.4583  0.1073
 2117W        W17248   8.328   4.260   0.105  0.1350 -0.0907 -0.1565
 2118W        W17249  10.157   5.100  15.179 -0.1942 -0.1186  0.1073
 2119W        W17250  16.853   9.850   3.431  0.0217 -0.0342 -0.1775
 2120W        W17251  14.562  12.392  14.775 -0.2495 -0.2969 -0.1397
 2121W        W17252   9.201  14.108  10.924  0.0299  0.1532  0.1292
 2122W        W17253  17.128   9.034  14.451 -0.0411  0.0528  0.3272
 2123W        W17254   6.580   9.875  15.491  0.3201  0.1354 -0.1324
 2124W        W17255   9.872   1.142   2.572  0.0956  0.1885  0.0897
 2125W        W17256   3.236   9.557   0.435 -0.0227 -0.0876  0.1112
 2126W        W17257  12.672  17.952  13.666 -0.1319 -0.1722  0.1598
 2127W        W17258  16.516   8.679   0.306  0.0145 -0.0371 -0.0318
 2128W        W17259  18.294   3.472  14.472  0.2444  0.2919  0.1868
 2129W        W17260  14.776   5.791   6.223 -0.2820 -0.2586  0.0710
 2130W        W17261  18.075  15.203   4.098  0.1735  0.2129  0.1414
 2131W        W17262   9.163  17.234   2.242 -0.0369 -0.0316 -0.0724
 2132W        W17263  11.587  13.453  11.769  0.2498  0.1972  0.1111
 2133W        W17264   6.420   9.208   5.066 -0.4605 -0.1087 -0.2746
 2134W        W17265  15.980  11.305   4.693 -0.3319  0.1760  0.2921
 2135W        W17266   4.176   1.158   4.515  0.2424  0.1199  0.0155
 2136W        W17267  14.408   1.982  12.599  0.1415 -0.0534  0.0088
 2137W        W17268  17.992  11.731  13.968  0.2786  0.1928  0.1045
 2138W        W17269  11.446  15.068   1.424  0.0607  0.1032 -0.2343
 2139W        W17270  10.660   9.776  13.863 -0.0715 -0.1516 -0.0071
 2140W        W17271  11.453  11.895   4.106 -0.0061  0.2782 -0.0193
 2141W        W17272  17.333   7.970   2.804  0.2541 -0.1095  0.0476
 2142W        W17273  10.475   6.422   4.874  0.0293 -0.0658  0.0073
 2143W        W17274  14.415   5.240   4.443  0.0729  0.1570  0.1777
 2144W        W17275  18.032  14.111   2.033  0.2146 -0.0898  0.0774
 2145W        W17276  12.575   4.623  11.090  0.1407 -0.2831  0.0717
 2146W        W17277  16.816   2.850  10.327 -0.1890  0.2677 -0.0641
 2147W        W17278   7.172  14.596  13.458  0.1181 -0.0302 -0.1130
 2148W        W17279   8.407  11.722   2.456 -0.3288 -0.0852  0.2669
 2149W        W17280  14.856   5.122   2.380 -0.0827 -0.0932  0.1930
 2150W        W17281   7.868   0.803  13.731 -0.2035 -0.0743  0.1466
 2151W        W17282   7.165  10.303  10.690  0.1874  0.1034 -0.0762
 2152W        W17283   4.745   4.746  13.950 -0.1390  0.1981 -0.0720
 2153W        W17284   0.360   5.221   2.294 -0.0687  0.0690 -0.2256
 2154W        W17285   7.085  14.481  10.862 -0.2999  0.0378  0.0405
 2155W        W17286   3.246  16.628  11.145  0.1788 -0.1169  0.0219
 2156W        W17287   8.756   8.604  15.669  0.1655  0.0743  0.1621
 2157W        W17288   7.749   6.230  12.279  0.1056  0.1045 -0.0571
 2158W        W17289   9.280  16.616   3.411  0.2997  0.2377  0.1599
 2159W        W17290  13.152  16.289  15.573 -0.1057  0.0144 -0.0543
 2160W        W17291  17.654   5.738  14.970 -0.1456  0.0407 -0.0279
 2161W        W17292   9.673  16.498  12.110  0.0139  0.3570 -0.4251
 2162W        W17293  16.030   9.471  13.435 -0.2019  0.0417  0.0569
 2163W        W17294   7.446   1.403  11.829 -0.2949 -0.0346  0.1732
 2164W        W17295  16.483  13.341  12.048  0.3681  0.0365 -0.2669
 2165W        W17296   3.264   1.026   4.922  0.0623 -0.0122  0.0400
 2166W        W17297   1.427  13.653   2.264 -0.2281 -0.0933 -0.0981
 2167W        W17298  13.093   2.232   0.639  0.1141 -0.2548 -0.3339
 2168W        W17299   9.960  15.373  14.472 -0.0702 -0.0547  0.0055
 2169W        W17300   4.360   8.054   1.861 -0.1872  0.1810 -0.1845
 2170W        W17301   1.760  14.583   4.202  0.2403  0.1600 -0.0139
 2171W        W17302   0.330   4.908   0.224  0.0241 -0.2749 -0.4755
 2172W        W17303  11.124   4.135   0.143 -0.0496 -0.1256  0.0366
 2173W        W17304  10.657  13.874   1.445 -0.0559 -0.1041  0.0288
 2174W        W17305   0.125  16.575   3.729  0.0340  0.2988 -0.2691
 2175W        W17306  16.623   2.388  10.958  0.2649 -0.1196 -0.3819
 2176W        W17307  14.018  12.948   1.397 -0.3071  0.2008 -0.0938
 2177W        W17308  13.201   6.599  15.759  0.1083 -0.1346  0.3894
 2178W        W17309  13.583   3.205  11.149  0.2696 -0.3656 -0.1413
 2179W        W17310   8.075  15.444   3.487 -0.1702  0.0253  0.4668
 2180W        W17311   7.137  11.331   3.575  0.0738  0.3193  0.1067
 2181W        W17312  18.632  14.663  11.595 -0.1307 -0.1591 -0.1796
 2182W        W17313   9.816   1.873   0.004  0.4178 -0.2603  0.0807
 2183W        W17314  12.777   0.704  13.200  0.0643  0.1068  0.1687
 2184W        W17315   2.282  16.056  11.416  0.1163  0.1999  0.1033
 2185W        W17316   6.044   1.249  11.766  0.2628  0.1190  0.1468
 2186W        W17317   1.416  18.018  14.598 -0.3367  0.0201 -0.1050
 2187W        W17318   3.656   6.767  13.111  0.2631 -0.2077  0.1403
 2188W        W17319   7.265   4.099   1.283  0.1834  0.0083 -0.0796
 2189W        W17320  12.056   3.775  12.987  0.0028  0.1322 -0.0322
 2190W        W17321  11.971   3.769   1.736 -0.1444  0.0326  0.1255
 2191W        W17322   1.591  13.279  13.705 -0.0816  0.0747  0.3611
 2192W        W17323   9.742   1.880   3.910 -0.2351 -0.0465  0.1668
 2193W        W17324   6.867  13.101   5.287  0.0779 -0.2754  0.0830
 2194W        W17325   5.448  16.825  12.776 -0.1396  0.2899  0.1036
 2195W        W17326  18.511  11.185  11.937 -0.0088 -0.0234  0.0744
 2196W        W17327  11.071   7.660   4.319  0.0544 -0.1411 -0.0176
 2197W        W17328   0.152  17.178   1.418  0.0475  0.1155  0.2163
 2198W        W17329   0.590   2.993   2.484  0.0732 -0.3274 -0.0611
 2199W        W17330  16.580  11.202  10.708 -0.5210 -0.1781 -0.4063
 2200W        W17331  15.941   0.970   4.292  0.4341 -0.3008 -0.0765
 2201W        W17332  12.444  16.394   1.771 -0.2314 -0.1411  0.1617
 2202W        W17333   8.649   3.578   5.210 -0.1206  0.4430 -0.0822
 2203W        W17334   0.163   1.902  15.373  0.2068  0.0930 -0.3166
 2204W        W17335  10.857   3.364  15.756  0.1108 -0.1194  0.0237
 2205W        W17336   3.676   5.920  11.191 -0.0998 -0.1213 -0.3143
 2206W        W17337  13.608   4.773   0.678 -0.1670 -0.0473 -0.2538
 2207W        W17338  11.838   7.173  15.475 -0.1945 -0.2762  0.2588
 2208W        W17339   3.844  14.777   4.590  0.1492 -0.0745  0.0106
 2209W        W17340   5.571  11.562  11.981  0.1630  0.2559  0.0501
 2210W        W17341  12.243   1.606  13.849 -0.0369  0.5210  0.1286
 2211W        W17342   4.823   4.972  12.164 -0.3766 -0.1144 -0.1133
 2212W        W17343   7.294   9.375  15.287 -0.0039  0.0824  0.3943
 2213W        W17344  13.337   4.414  11.306  0.1772  0.1233 -0.2097
 2214W        W17345  15.830  13.047  15.544 -0.1658  0.0922  0.0147
 2215W        W17346  10.770  14.590   2.948  0.0389 -0.0857 -0.0452
 2216W        W17347   9.085   7.123  12.387 -0.2690  0.4097 -0.2650
 2217W        W17348   7.312  15.724   0.175  0.0460 -0.4511 -0.0430
 2218W        W17349  15.016   0.307  10.714 -0.0196  0.0516 -0.1043
 2219W        W17350  11.703  11.449   0.996  0.1910 -0.4081  0.2522
 2220W        W17351  12.822   9.009   3.075  0.1603  0.1334 -0.3181
 2221W        W17352  18.252  16.186   5.888  0.1390  0.0725  0.4899
 2222W        W17353   1.563   9.422  13.897  0.2014  0.0355  0.4654
 2223W        W17354   5.657  12.052  14.712 -0.0631  0.0818  0.2236
 2224W        W17355  18.036   3.963   2.762 -0.4698  0.0230 -0.0813
 2225W        W17356   0.085  11.398   0.338 -0.0956  0.0010 -0.1626
 2226W        W17357  11.469   4.475   1.574  0.1557 -0.0345  0.0686
 2227W        W17358  13.686   7.651  12.077 -0.4176  0.0576 -0.0312
 2228W        W17359   3.190  13.850   5.625 -0.1339 -0.0427  0.1153
 2229W        W17360  13.661   2.713   3.998 -0.1985 -0.1795  0.0268
 2230W        W17361  11.943  17.480  14.640  0.2544 -0.1133 -0.0112
 2231W        W17362  17.211   7.123  13.332  0.5206 -0.4194 -0.2985
 2232W        W17363  17.913  17.161  11.811  0.1643 -0.0574 -0.1774
 2233W        W17364  14.436  16.724   1.201  0.0577 -0.2140 -0.0790
 2234W        W17365  14.323   6.021   3.339 -0.0214 -0.0158  0.2722
 2235W        W17366   0.691   9.957  14.073 -0.1397  0.1653 -0.2123
 2236W        W17367   7.566   3.055   6.157  0.3519 -0.0150 -0.1972
 2237W        W17368   6.788  13.563  13.080  0.1130  0.1065  0.0312
 2238W        W17369   7.890   5.872   4.395  0.0830 -0.2917  0.0510
 2239W        W17370   7.762  12.610  11.750  0.0836 -0.2004 -0.0811
 2240W        W17371   7.856   8.326   3.991  0.0486 -0.1562 -0.0043
 2241W        W17372  14.370  18.631  13.699  0.4200  0.0642  0.1230
 2242W        W17373  12.481  16.232  14.154  0.1960  0.1993  0.0044
 2243W        W17374   3.042   2.605   0.075 -0.0002 -0.4123  0.3254
 2244W        W17375  17.560  10.596   0.365 -0.1958 -0.3079  0.0777
 2245W        W17376   7.894  12.848  14.859  0.2957 -0.1882 -0.0842
 2246W        W17377  16.578   2.032  15.638 -0.0158 -0.3697 -0.0410
 2247W        W17378  10.255  11.029  11.939 -0.1252 -0.0243  0.2466
 2248W        W17379   6.626   0.119  12.905  0.0989 -0.1097  0.2304
 2249W        W17380   2.361  11.139   1.075  0.5764 -0.1005 -0.2600
 2250W        W17381   6.196  16.434   4.759  0.0981 -0.0629  0.1232
 2251W        W17382   2.470   8.529   4.544  0.1301  0.0323  0.0135
 2252W        W17383  12.383  15.780   4.499 -0.1183 -0.1567 -0.0019
 2253W        W17384   8.932   2.415  13.862 -0.2054  0.3068  0.1500
 2254W        W17385  10.572   3.598   2.460 -0.0575 -0.1591  0.2531
 2255W        W17386  14.113  14.046  11.751  0.0476  0.0274 -0.0749
 2256W        W17387  10.419   6.258  14.035  0.0279  0.2676 -0.0230
 2257W        W17388   0.891  16.699   1.213 -0.0916  0.2675  0.0219
 2258W        W17389   6.546  16.010   6.553 -0.0845  0.2889 -0.2092
 2259W        W17390   6.228  11.040   3.062 -0.0158 -0.0835  0.1349
 2260W        W17391  12.162   7.514  15.657  0.0288  0.0881  0.0015
 2261W        W17392  16.675   2.924   4.308  0.1441 -0.0157  0.1033
 2262W        W17393   8.484   0.158   0.794 -0.0577 -0.1981  0.2287
 2263W        W17394  17.406  10.188  13.655  0.2303 -0.2111  0.0363
 2264W        W17395   8.318  16.900   2.462  0.0175 -0.3561  0.0130
 2265W        W17396   6.508   5.639  15.518 -0.1729  0.0588  0.1049
 2266W        W17397   9.386   1.679   1.870 -0.0495 -0.0066  0.0671
 2267W        W17398  17.069  17.493  12.930 -0.2737 -0.0737  0.0106
 2268W        W17399  10.132  14.950  14.536  0.0981 -0.0239  0.0878
 2269W        W17400   5.008   2.035  15.533  0.3224 -0.0119  0.2085
 2270W        W17401   8.090  10.523  10.567  0.2808  0.4743 -0.2398
 2271W        W17402  14.653   5.507   2.139 -0.1684 -0.2617  0.1225
 2272W        W17403  10.030  13.467   0.179  0.0528  0.2591 -0.2546
 2273W        W17404   1.903   5.035   4.623 -0.0480  0.0636 -0.0294
 2274W        W17405   4.356  15.700  11.950 -0.0869 -0.1266 -0.2261
 2275W        W17406  11.240  13.146   1.845  0.0784 -0.4704  0.0069
 2276W        W17407   6.159  12.289   5.320  0.0488  0.2267  0.1156
 2277W        W17408   2.588  17.994   3.207 -0.0061 -0.2414 -0.3355
 2278W        W17409  13.877  16.458   1.991  0.2518  0.2130  0.2282
 2279W        W17410   8.741   4.381  14.596  0.0892  0.2058  0.1679
 2280W        W17411   0.349   0.229   5.746 -0.1664  0.1048 -0.3142
 2281W        W17412   1.447   5.370  14.358  0.1479 -0.2062 -0.0316
 2282W        W17413  10.704   1.033  13.348 -0.3917  0.0746  0.0628
 2283W        W17414  15.998   9.585   0.469 -0.0436 -0.2092  0.1849
 2284W        W17415  15.723   8.134  11.896  0.2190  0.1776  0.0217
 2285W        W17416  13.072  17.663   4.914  0.0551  0.1169  0.0382
 2286W        W17417   1.467  17.554  11.035  0.1769  0.1934 -0.5016
 2287W        W17418  16.002  12.839  12.335 -0.1163  0.0040 -0.0721
 2288W        W17419   4.897  16.018   1.551 -0.3179  0.1596  0.1167
 2289W        W17420  17.762  14.240   0.813  0.1949  0.2456 -0.2968
 2290W        W17421   9.545   2.908   5.080  0.0511  0.4944  0.1165
 2291W        W17422   9.740   0.056   6.183 -0.2562 -0.2633 -0.2006
 2292W        W17423  14.589   7.982   1.200 -0.0419 -0.1994 -0.0826
 2293W        W17424  13.350  11.187  12.368 -0.1393 -0.4019 -0.0610
 2294W        W17425  11.886  17.821   3.718 -0.3303 -0.1074 -0.1242
 2295W        W17426   0.788  18.110  13.460  0.1846  0.2485  0.2348
 2296W        W17427   0.703   6.062   0.811  0.0483 -0.0421 -0.0118
 2297W        W17428  15.841   3.797   2.057  0.2368  0.0615  0.2074
 2298W        W17429   0.947  14.898   1.825  0.1132  0.1542 -0.0939
 2299W        W17430   9.177  11.023  11.209 -0.2406  0.3688 -0.0583
 2300W        W17431   3.902   8.328  11.118  0.1597  0.1359  0.0191
 2301W        W17432   1.683   9.042   5.131 -0.1858 -0.3261 -0.0331
 2302W        W17433   0.202   5.766   1.050  0.4028  0.1677 -0.3499
 2303W        W17434   8.338  13.964  10.601  0.2077  0.0934  0.2616
 2304W        W17435   7.031  12.725  10.797 -0.2704 -0.6204  0.0383
 2305W        W17436   1.700  12.099   0.067 -0.1535 -0.0992  0.2988
 2306W        W17437  10.479  12.170  11.635 -0.2857 -0.1855 -0.3167
 2307W        W17438   7.349  11.031  12.439  0.0648 -0.3514  0.1141
 2308W        W17439   3.801   5.395   1.876  0.2866  0.0117 -0.0219
 2309W        W17440   0.490   1.144  10.822  0.1428  0.2305 -0.2533
 2310W        W17441   4.298   9.314   0.279 -0.0301  0.0132 -0.0501
 2311W        W17442  12.538   6.580  11.851 -0.2752  0.0773 -0.0588
 2312W        W17443   7.133  12.873   2.899  0.0791  0.5192 -0.2716
 2313W        W17444  18.175  10.419   2.000 -0.0542 -0.2259  0.0489
 2314W        W17445  17.970  13.236   4.282  0.2656  0.0667  0.0935
 2315W        W17446  10.517   0.988  11.207  0.2165  0.1073  0.0571
 2316W        W17447  12.584   9.517  13.883 -0.0087  0.1530 -0.2071
 2317W        W17448  17.455   6.913  14.172 -0.0908 -0.0177  0.2850
 2318W        W17449   2.699  16.246  13.179  0.1336 -0.0075  0.1533
 2319W        W17450   1.395  13.162   4.971 -0.0659 -0.1643  0.3776
 2320W        W17451  11.309   1.773  14.075 -0.3131 -0.1414  0.0361
 2321W        W17452  10.527   9.317   1.500 -0.0734 -0.1458  0.3673
 2322W        W17453   4.266  14.886   1.948  0.1873  0.1329 -0.0573
 2323W        W17454   0.053  10.782   2.449  0.4363  0.2776 -0.2221
 2324W        W17455   5.803  13.683  11.580  0.0183  0.1205  0.1137
 2325W        W17456  11.806   7.508  10.712 -0.1456  0.1930  0.1947
 2326W        W17457   0.919  14.409   1.834  0.2410 -0.2264 -0.3685
 2327W        W17458  14.227   5.690   6.178 -0.1115 -0.0281  0.1368
 2328W        W17459   4.489   0.512   5.551  0.0681 -0.3311  0.2431
 2329W        W17460   9.240  12.879   2.540  0.3483 -0.3475 -0.0703
 2330W        W17461  17.158   3.482  12.125  0.2757 -0.0083 -0.0549
 2331W        W17462   0.646  12.084   4.303 -0.1814 -0.3011  0.0476
 2332W        W17463   7.580  14.856  14.467  0.0405  0.0042  0.0867
 2333W        W17464   8.756   6.284   3.126  0.0276  0.0529 -0.4329
 2334W        W17465   9.308  18.128   1.947  0.0514 -0.2278  0.1891
 2335W        W17466   1.031  17.361   5.284 -0.0215 -0.0108 -0.1131
 2336W        W17467  13.209  16.831   3.666  0.0789  0.3538 -0.0812
 2337W        W17468  16.435   9.828  11.600  0.3002 -0.3319  0.3342
 2338W        W17469   9.721   2.742   3.293 -0.0027 -0.0365  0.0327
 2339W        W17470  13.306   3.302  10.742  0.2030  0.2949  0.0964
 2340W        W17471  15.766  12.898   3.000  0.0635  0.0973  0.0145
 2341W        W17472   3.127   0.427  14.962 -0.1435 -0.0591 -0.0880
 2342W        W17473   8.998  14.104   4.253 -0.0881  0.0448  0.0780
 2343W        W17474   5.788  16.340  11.803  0.0463 -0.0171  0.2015
 2344W        W17475   1.184   4.228   4.992  0.1303  0.0802 -0.0073
 2345W        W17476   8.516  16.754  15.747 -0.1574 -0.2846  0.1891
 2346W        W17477   6.862   2.104  14.028  0.1704  0.2520 -0.1401
 2347W        W17478  13.744   9.168  14.488  0.4113  0.3652  0.0593
 2348W        W17479  15.498  13.841   1.549 -0.1350 -0.1240 -0.0222
 2349W        W17480  17.841   0.255  14.684 -0.1931 -0.0272  0.1472
 2350W        W17481   5.312   6.927   3.727 -0.3124 -0.1254  0.4134
 2351W        W17482  14.984  18.115  12.592 -0.1958  0.0547 -0.1128
 2352W        W17483   7.122   2.408   0.678 -0.1389  0.0626  0.1893
 2353W        W17484   0.318   5.122  14.879  0.0456 -0.0894 -0.0107
 2354W        W17485   5.641  10.319   3.463 -0.1761  0.0371  0.0019
 2355W        W17486   2.792   8.961  15.685 -0.0444 -0.1774 -0.0531
 2356W        W17487   7.956  12.918   2.022  0.3090  0.1510 -0.1680
 2357W        W17488  14.342   4.701   1.837 -0.3034  0.0723  0.0473
 2358W        W17489   8.902  17.521  13.683 -0.0557  0.1611  0.1291
 2359W        W17490  13.097  18.138   1.359  0.1187 -0.2758  0.0263
 2360W        W17491   9.858   3.350  10.090 -0.0529 -0.3963 -0.0303
 2361W        W17492   0.760  10.133   3.771 -0.1641 -0.1831 -0.1691
 2362W        W17493  14.687   1.610   4.298  0.1289  0.1188  0.0060
 2363W        W17494   0.965   2.678   2.669 -0.0775 -0.1630  0.0268
 2364W        W17495   5.290   9.598   0.901 -0.1074 -0.3241 -0.0439
 2365W        W17496   0.916   7.236  11.772  0.0016 -0.4164 -0.0048
 2366W        W17497  16.278  13.261  15.507 -0.1899 -0.4617  0.1603
 2367W        W17498  10.829  11.061  15.193  0.0192  0.1345  0.1428
 2368W        W17499  14.946   4.926  14.096  0.1130 -0.2947 -0.1636
 2369W        W17500   6.741   6.098   2.158 -0.0855  0.0677 -0.2765
 2370W        W17501   2.959  10.298   5.382  0.0079  0.0942 -0.1704
 2371W        W17502  12.236  13.422   0.465  0.0096  0.2633 -0.2661
 2372W        W17503   8.850  18.618   4.714 -0.3073 -0.2704 -0.1454
 2373W        W17504   5.013  16.886  14.413 -0.1010  0.0369  0.0913
 2374W        W17505  18.501  13.013   1.579  0.0292 -0.0745  0.1265
 2375W        W17506   6.590   8.246  11.229 -0.1235 -0.4187 -0.1915
 2376W        W17507  10.009  16.691  14.345 -0.2074 -0.3554 -0.4891
 2377W        W17508   9.060   2.556  14.816 -0.0963  0.1174  0.0278
 2378W        W17509  12.090   9.771  15.071 -0.0644 -0.1397  0.0362
 2379W        W17510   7.068  16.567  14.097  0.0044  0.1891  0.0741
 2380W        W17511   3.016  15.655  13.640 -0.0388  0.1871 -0.3460
 2381W        W17512   6.987  14.747  12.422  0.2210  0.0634 -0.3532
 2382W        W17513   3.471  16.303   3.779 -0.0945  0.0569  0.2919
 2383W        W17514  10.930   3.137  14.882 -0.0338 -0.2140  0.2389
 2384W        W17515  10.811   7.518   4.768 -0.0677 -0.3867 -0.2278
 2385W        W17516   0.168   8.958   1.518  0.0101  0.2647 -0.0771
 2386W        W17517  14.301  15.825   4.558 -0.0594 -0.0371  0.3119
 2387W        W17518  14.270  16.107   2.689 -0.0279  0.4688  0.0349
 2388W        W17519  11.952  11.338  12.139 -0.0361 -0.1353 -0.0914
 2389W        W17520  16.403   0.207  13.480 -0.0079 -0.0213 -0.0336
 2390W        W17521   2.701  12.212   3.840 -0.2811 -0.1316 -0.2137
 2391W        W17522  17.767   6.122   5.439  0.0533 -0.1984 -0.3499
 2392W        W17523   8.427  11.851   2.958  0.1320  0.1050 -0.2418
 2393W        W17524   3.682  14.155   9.909 -0.1227 -0.3788  0.2418
 2394W        W17525   0.269  13.455   0.733 -0.1872 -0.1766  0.0235
 2395W        W17526   0.112  17.430   1.938 -0.0284  0.0108 -0.1506
 2396W        W17527   4.324   4.200   4.375  0.0251 -0.3229  0.5712
 2397W        W17528  15.695  10.975  12.323  0.0245  0.0796  0.0727
 2398W        W17529   7.340  11.359  11.115  0.2779 -0.0055  0.1244
 2399W        W17530   2.845  15.285   4.926 -0.2837 -0.0380 -0.1840
 2400W        W17531   7.053   8.044  12.328  0.0476  0.2072 -0.2426
 2401W        W17532   8.952  15.536   0.790  0.0267  0.0622 -0.0627
 2402W        W17533   0.608  10.643  13.432  0.1916 -0.1369 -0.2933
 2403W        W17534   6.266   8.947   2.653  0.1053 -0.2772 -0.0332
 2404W        W17535   3.817  10.798   3.552 -0.2683 -0.0892 -0.0558
 2405W        W17536   5.626  14.542  12.092  0.2363  0.1448  0.0006
 2406W        W17537   9.204  12.398   2.762  0.2134  0.0619  0.0065
 2407W        W17538  18.063   1.960   1.527 -0.0207  0.1832  0.1924
 2408W        W17539   5.986  11.739   1.807 -0.2335  0.2889 -0.1643
 2409W        W17540  18.439  13.351  12.230 -0.3261 -0.0332  0.0280
 2410W        W17541   1.486   6.980   1.749  0.0635 -0.0853  0.1833
 2411W        W17542  18.511   0.638   1.299  0.3321 -0.0064 -0.3949
 2412W        W17543  16.053  16.386  11.820 -0.1155  0.0648  0.2004
 2413W        W17544   1.199   2.268   1.722 -0.0436 -0.0561 -0.2993
 2414W        W17545   3.754  12.561  10.753 -0.1745  0.4270 -0.0244
 2415W        W17546  17.418  16.027  15.350 -0.0316 -0.1105  0.0866
 2416W        W17547   0.245  12.390  11.062 -0.4729  0.4021 -0.0685
 2417W        W17548  14.859   7.121   3.773 -0.2315 -0.2532 -0.1713
 2418W        W17549  17.638  16.231  14.021 -0.1814  0.2351  0.1026
 2419W        W17550  14.613  14.216  13.549 -0.2393 -0.0814  0.2592
 2420W        W17551   0.005   0.191   0.336  0.0030  0.1527  0.3418
 2421W        W17552  14.603   7.399  12.355 -0.2635  0.2071  0.1541
 2422W        W17553   7.271  13.291  11.600  0.0127  0.3102  0.3252
 2423W        W17554   9.345  13.571   1.209  0.0949  0.2672  0.1058
 2424W        W17555   1.389   0.098  10.800 -0.2090  0.1414  0.4588
 2425W        W17556  18.054   3.702  13.176 -0.1041 -0.2026 -0.2057
 2426W        W17557  18.505  10.514  10.876 -0.0104 -0.3735  0.1560
 2427W        W17558  14.052   7.387  12.241 -0.2553 -0.1519  0.0120
 2428W        W17559  17.267   5.629   2.325 -0.0000  0.4543  0.0056
 2429W        W17560   2.691  17.950   0.372 -0.0977 -0.0009  0.2944
 2430W        W17561  15.647   0.047  15.607 -0.1976  0.0065  0.0745
 2431W        W17562   3.601   7.890  12.423  0.1554 -0.1005 -0.0311
 2432W        W17563   4.458   5.009   4.470  0.2031 -0.0104 -0.0171
 2433W        W17564   5.652  17.081   0.467 -0.0779 -0.0116 -0.2458
 2434W        W17565   0.369   5.162  15.591 -0.1993  0.1683  0.3803
 2435W        W17566   6.206  12.178   6.158 -0.3123  0.1282  0.0278
 2436W        W17567  10.067   0.970   2.988 -0.0919 -0.0283  0.0631
 2437W        W17568  11.728  10.739  14.002 -0.0309 -0.0152  0.0295
 2438W        W17569   9.930   9.117   0.660  0.0653 -0.1800 -0.0969
 2439W        W17570  16.128   1.808  10.461  0.0367  0.1331 -0.1382
 2440W        W17571   9.567   6.719  13.975  0.1394 -0.0323  0.2280
 2441W        W17572   2.660   6.772  12.060  0.0762  0.0770  0.0849
 2442W        W17573   1.480   6.863  15.779  0.1481  0.0545 -0.5377
 2443W        W17574  17.339   1.164  13.650 -0.0828 -0.1247  0.0404
 2444W        W17575   5.123   5.915   2.062  0.2623 -0.0835 -0.1982
 2445W        W17576   8.917  14.541  15.655 -0.4626 -0.0461  0.1128
 2446W        W17577   6.827   1.224   6.224 -0.2550  0.0999 -0.0889
 2447W        W17578   5.226   2.289  15.130 -0.1543 -0.2802  0.0072
 2448W        W17579  17.928  14.029  11.942  0.2685  0.2799 -0.0171
 2449W        W17580   1.098   9.869   2.190  0.0212 -0.3096  0.1264
 2450W        W17581  17.129   5.287  12.680  0.1013 -0.1895  0.0093
 2451W        W17582  10.956   6.950  14.527 -0.3315  0.0423  0.2382
 2452W        W17583  16.896   9.350   2.734  0.0553 -0.0231 -0.2468
 2453W        W17584  14.512  16.834   4.010 -0.0587 -0.2271 -0.2085
 2454W        W17585   2.375   1.179  13.371 -0.3476 -0.0500  0.1618
 2455W        W17586   2.864   9.930   2.653  0.3461 -0.1526  0.1305
 2456W        W17587  14.904  13.833  13.289 -0.0896  0.0158 -0.1744
 2457W        W17588   0.708  12.404   3.576 -0.1998  0.0008 -0.1692
 2458W        W17589   1.219  10.056   5.585  0.1158  0.2749 -0.0635
 2459W        W17590  10.409   5.014  10.493  0.1594  0.1549 -0.3137
 2460W        W17591   9.858  14.191  14.810  0.0687 -0.0418  0.1370
 2461W        W17592  18.014   0.120  11.215  0.0612 -0.0708 -0.1816
 2462W        W17593  18.434  17.606   1.547 -0.2097  0.0112 -0.1905
 2463W        W17594  18.430   5.105   5.797 -0.2361 -0.1771  0.2449
 2464W        W17595  12.061   0.492   2.404  0.2533 -0.0564 -0.0382
 2465W        W17596  15.931   8.762   0.779 -0.1819 -0.2475  0.0630
 2466W        W17597   7.973  14.045   5.780  0.1136  0.1389  0.1026
 2467W        W17598  12.659   2.990   5.255 -0.2563  0.2438 -0.1345
 2468W        W17599  12.433  15.559  13.912 -0.1079 -0.1821  0.1456
 2469W        W17600  16.284   5.523   4.627  0.0529  0.2537  0.0102
 2470W        W17601   8.758   0.013  11.200 -0.0808  0.0861 -0.1232
 2471W        W17602  12.996  14.383   0.955  0.2861  0.0188  0.1703
 2472W        W17603   2.776  10.976  12.182 -0.4930  0.0353 -0.2232
 2473W        W17604   7.624   2.567  12.573 -0.1126 -0.3450 -0.0531
 2474W        W17605  16.082   9.046  12.058 -0.1363 -0.0919  0.4090
 2475W        W17606   3.526  16.371   3.286 -0.3130 -0.0457  0.0506
 2476W        W17607   6.554  12.429   3.588 -0.3202 -0.0264  0.0341
 2477W        W17608  13.909  16.710  11.050 -0.2094  0.1113  0.2596
 2478W        W17609   2.220   5.632   4.182  0.3304 -0.0273 -0.2276
 2479W        W17610  12.464  17.452  15.727 -0.1038 -0.1207  0.0586
 2480W        W17611   0.113   8.409   5.306  0.2182  0.2881 -0.1497
 2481W        W17612   9.716  10.389  15.779  0.0046 -0.0977 -0.1206
 2482W        W17613   3.889  11.063  12.629 -0.3829  0.1936 -0.0233
 2483W        W17614  10.307   7.543   4.032 -0.1520  0.0633 -0.0846
 2484W        W17615  13.618   1.414  14.474  0.0126 -0.1267  0.0985
 2485W        W17616  16.524   3.456   2.718  0.0855  0.2782 -0.3660
 2486W        W17617  17.966   9.539   4.792 -0.0284  0.0780  0.5424
 2487W        W17618   8.622   7.471  10.211 -0.0040 -0.2773 -0.0633
 2488W        W17619   1.320   1.193   3.933  0.0145  0.1650  0.1529
 2489W        W17620   9.786   8.449  13.237 -0.0217  0.2304  0.2803
 2490W        W17621  13.088   8.138  14.124 -0.0818  0.0592  0.1455
 2491W        W17622  16.825   3.578  11.687 -0.0988  0.0583  0.0293
 2492W        W17623  10.509  10.842  12.861  0.1633  0.0088  0.0992
 2493W        W17624   3.623   8.592   2.358 -0.2709  0.2111 -0.2159
 2494W        W17625  12.334  15.433  13.468 -0.0114  0.1346 -0.3513
 2495W        W17626  11.546  14.301  12.154  0.0507 -0.3673 -0.0984
 2496W        W17627   9.619   0.612   5.490 -0.0735 -0.0247  0.2750
 2497W        W17628  15.882   6.691   3.804 -0.1287  0.4227 -0.1182
 2498W        W17629  11.070  17.794   2.763  0.0854  0.0665  0.1537
 2499W        W17630   4.985  13.273  10.735  0.1399  0.0711  0.1581
 2500W        W17631   3.571   1.727   1.212  0.0276 -0.0507  0.4764
 2501W        W17632  10.806   7.994  15.564 -0.4371  0.1285  0.0950
 2502W        W17633   4.960  12.645   1.320  0.0023  0.3335 -0.2900
 2503W        W17634   4.527   8.999  11.088  0.0006  0.4240  0.1735
 2504W        W17635   1.541  11.346  10.634 -0.0853 -0.5052 -0.0576
 2505W        W17636   4.617  14.695   1.669 -0.2379 -0.3070  0.2423
 2506W        W17637  17.718   2.324  11.759  0.1446 -0.3272  0.1154
 2507W        W17638   2.323   8.529  11.919 -0.1260 -0.0554 -0.0519
 2508W        W17639  12.689  16.805   2.662  0.2213 -0.0872 -0.1827
 2509W        W17640   2.910  11.406  10.818 -0.0597  0.1005 -0.0956
 2510W        W17641   3.780  17.483  15.683 -0.1310  0.2600  0.0960
 2511W        W17642   2.287   5.357   3.048  0.1765  0.0281 -0.4006
 2512W        W17643  10.154  12.946  14.451 -0.2234  0.0532  0.1521
 2513W        W17644   5.119   8.405  12.053 -0.1214  0.2351 -0.3497
 2514W        W17645  16.950  14.932  12.140 -0.0863  0.2947 -0.0811
 2515W        W17646   2.065   2.427  14.906 -0.1864 -0.1817  0.1809
 2516W        W17647  12.759   0.663  14.959  0.2351  0.0405  0.0264
 2517W        W17648   4.996  15.291   4.499  0.3116  0.2469 -0.0645
 2518W        W17649   5.771  18.725  11.982 -0.1560  0.0049 -0.1991
 2519W        W17650  13.668  14.241   1.911  0.0383 -0.5089  0.3052
 2520W        W17651   9.153   4.602   2.819 -0.3111 -0.1637  0.1782
 2521W        W17652  14.762  16.500   1.471  0.1476  0.3069  0.1028
 2522W        W17653   4.533  11.623   4.259 -0.5454 -0.0437  0.0552
 2523W        W17654   2.349   5.129   0.546 -0.1461  0.1533  0.1103
 2524W        W17655  17.161   6.681   3.200  0.1297  0.0718 -0.0034
 2525W        W17656   4.799  17.943   1.098  0.0245 -0.2378 -0.3349
 2526W        W17657  18.565   5.463   5.487  0.0813 -0.2125  0.0709
 2527W        W17658  12.144   6.840   5.616 -0.2380 -0.0654 -0.1395
 2528W        W17659   8.449   0.620  11.930  0.0630  0.0769  0.0861
 2529W        W17660   6.434   9.865  10.996  0.0923 -0.3517 -0.2568
 2530W        W17661   6.064  10.739   2.575  0.2336  0.3389 -0.1325
 2531W        W17662   8.979   5.145   4.640 -0.2249  0.1326  0.4801
 2532W        W17663   6.741  14.249   0.596  0.3519 -0.0736  0.0605
 2533W        W17664  10.127   7.821   1.434 -0.0267 -0.1267  0.0532
 2534W        W17665   6.615   0.428   0.137  0.1059 -0.1121  0.0411
 2535W        W17666  10.610   8.421   4.587  0.1347 -0.2173  0.1183
 2536W        W17667   9.380   0.866   2.471 -0.1056  0.1044 -0.0020
 2537W        W17668  13.117  15.116   4.305  0.1313  0.1061  0.1783
 2538W        W17669  16.747   7.826   5.801 -0.2763  0.4255 -0.3526
 2539W        W17670  10.992  14.108  10.731 -0.0378 -0.1643 -0.2093
 2540W        W17671   5.573  17.205   5.760  0.1072 -0.1390 -0.0842
 2541W        W17672   7.350   9.063   1.233 -0.0775 -0.1766 -0.1321
 2542W        W17673   6.247  16.252  11.989  0.1123  0.1506  0.0826
 2543W        W17674  16.136   3.706   3.122  0.0179  0.1502 -0.0308
 2544W        W17675   7.039  17.192  12.700 -0.2342 -0.1654  0.0124
 2545W        W17676   1.753   0.645   4.316  0.1815 -0.1629  0.0181
 2546W        W17677  15.117  12.892   4.071 -0.1253  0.4459  0.0811
 2547W        W17678  18.512  15.814   5.029 -0.4779 -0.0925  0.0704
 2548W        W17679  10.924   6.192   5.579  0.0586 -0.0135  0.0550
 2549W        W17680  12.268   3.956   4.910 -0.1353  0.2772 -0.1460
 2550W        W17681  13.235   7.403   3.394  0.1848 -0.1770  0.3517
 2551W        W17682  15.185   8.728   4.541 -0.2618 -0.0516  0.0787
 2552W        W17683   0.255  15.785   0.414  0.2697  0.0743  0.1325
 2553W        W17684   5.482   9.869  13.315 -0.1396 -0.0041  0.4830
 2554W        W17685   1.853   2.901   0.428 -0.1511 -0.0102 -0.2362
 2555W        W17686  17.746   6.989   4.013 -0.2395  0.0611 -0.0790
 2556W        W17687   4.308   1.921   1.703 -0.2152  0.1359  0.1083
 2557W        W17688   1.756   8.969   0.824  0.1367 -0.0218  0.0637
 2558W        W17689   0.309  16.394   0.516  0.0856  0.1554  0.1047
 2559W        W17690  16.330   5.873   0.138 -0.2401 -0.1257  0.0171
 2560W        W17691   7.320  16.740   1.547 -0.1564  0.2334 -0.1737
 2561W        W17692  12.841  10.823   3.852 -0.1525 -0.1742 -0.1333
 2562W        W17693   7.970   4.167   4.835 -0.1191 -0.1277 -0.1879
 2563W        W17694   0.440  17.954   3.260 -0.1527 -0.0955  0.0998
 2564W        W17695  13.692  15.417  11.844  0.0688  0.0275  0.1323
 2565W        W17696   3.309   0.284   3.054 -0.1288 -0.3222  0.2045
 2566W        W17697   0.621  12.044   2.544 -0.0298  0.2309 -0.0518
 2567W        W17698  17.717  12.082  15.277 -0.1756  0.3268  0.0470
 2568W        W17699  12.754  13.499   3.549 -0.5402 -0.0221  0.1209
 2569W        W17700  11.598  10.253  10.978 -0.3107  0.2767  0.0921
 2570W        W17701  18.660   4.242  11.330 -0.4062 -0.1126  0.3491
 2571W        W17702   1.010  11.152   3.676 -0.0146 -0.5380  0.1294
 2572W        W17703  12.491  13.269   4.349 -0.1932 -0.0318  0.1863
 2573W        W17704   0.031  11.768  14.540  0.2530  0.3519 -0.0272
 2574W        W17705   1.941  15.138  14.508 -0.0066 -0.1981 -0.0434
 2575W        W17706  17.465   1.871  12.234  0.0217  0.1758 -0.0491
 2576W        W17707  12.495  17.335   1.878  0.0826  0.0097  0.1588
 2577W        W17708  13.601   5.238   5.661  0.0521  0.1955  0.1409
 2578W        W17709  18.162  10.115   0.923 -0.0856  0.3150  0.0216
 2579W        W17710   9.730  12.009   2.016 -0.3896  0.1286  0.1850
 2580W        W17711  15.977   6.275   0.233  0.2107  0.2575 -0.0958
 2581W        W17712   7.473  15.205  12.799  0.3450 -0.3437 -0.3106
 2582W        W17713   7.252  16.351  12.608  0.2451 -0.1110  0.1774
 2583W        W17714  17.536  18.299  12.239 -0.4527 -0.1922  0.0636
 2584W        W17715   1.184   0.262   1.324  0.0230  0.0129  0.0050
 2585W        W17716  17.703  13.594   0.167  0.2960  0.3467  0.0921
 2586W        W17717  17.920   7.603  10.769  0.4751  0.1896 -0.0174
 2587W        W17718   1.156  13.459  11.345  0.1249  0.1323 -0.0701
 2588W        W17719  11.773   8.237   5.173  0.0946 -0.0857  0.2794
 2589W        W17720   6.700   1.570   0.232  0.0659  0.2442  0.0653
 2590W        W17721  13.451   8.213  11.226 -0.0797 -0.3756 -0.1860
 2591W        W17722  17.778   8.081  15.138  0.3558 -0.1364 -0.1137
 2592W        W17723   3.775  12.317  13.309  0.0451 -0.0910  0.2812
 2593W        W17724   4.100   9.331   0.749 -0.1260 -0.1607  0.0923
 2594W        W17725   9.355   5.031   5.080 -0.4095  0.0412 -0.0089
 2595W        W17726   4.355   6.095   4.341 -0.1892 -0.1190 -0.2990
 2596W        W17727   6.926   9.071   0.945  0.0027 -0.1072 -0.1416
 2597W        W17728   8.647  12.688  10.553 -0.0925  0.2881 -0.3014
 2598W        W17729  16.763   6.569   4.812 -0.1004  0.0789  0.1019
 2599W        W17730  15.316   6.874   3.232  0.3371 -0.4466 -0.0977
 2600W        W17731   9.839   9.298  10.482  0.2250 -0.1259  0.0289
 2601W        W17732   9.094   3.067  14.685  0.1930  0.3120 -0.3875
 2602W        W17733   7.464  12.008   2.333  0.1042  0.0416  0.0230
 2603W        W17734   8.063   6.553   3.569  0.1190  0.0938  0.2337
 2604W        W17735  17.021  12.863   0.844 -0.2927  0.0910 -0.0882
 2605W        W17736   6.346  16.994   1.566  0.1572  0.2928  0.0546
 2606W        W17737   7.535   8.378  11.346  0.2176  0.0727  0.3631
 2607W        W17738  11.365   6.603   3.470  0.1118  0.1575  0.0338
 2608W        W17739  18.625  17.227   3.766 -0.0892  0.2844  0.0744
 2609W        W17740   5.306   6.533   1.241 -0.3518 -0.0242  0.0043
 2610W        W17741   7.346   3.988  12.288 -0.0593 -0.0110  0.1529
 2611W        W17742  14.066   3.059  13.799 -0.1005 -0.1742 -0.3895
 2612W        W17743   2.499  13.057  12.447 -0.1984 -0.0099  0.2234
 2613W        W17744   8.457  14.504   3.521  0.2253  0.0139 -0.0671
 2614W        W17745  14.403  10.184  13.828 -0.0347 -0.1406 -0.2545
 2615W        W17746  11.329  15.496  10.721 -0.1559 -0.1194 -0.2886
 2616W        W17747   3.691   5.858   2.054  0.0547 -0.1207  0.1206
 2617W        W17748   7.640   5.110  11.226 -0.0469  0.0343 -0.2329
 2618W        W17749   3.588  10.368   3.269  0.2682 -0.0216  0.0618
 2619W        W17750   5.959  10.625  15.367 -0.0287 -0.1120 -0.3111
 2620W        W17751   5.060   9.471  14.763  0.1814 -0.2633  0.1347
 2621W        W17752   9.398  14.055   9.509  0.0924  0.1128 -0.1045
 2622W        W17753  14.650   0.169   1.889  0.2608  0.1559 -0.1798
 2623W        W17754   2.381  17.119  14.805 -0.0244 -0.1199  0.3461
 2624W        W17755   5.114   0.862  15.477  0.0880  0.0529 -0.0039
 2625W        W17756  13.394  14.174   0.576 -0.0331  0.0537  0.1377
 2626W        W17757  10.365  14.309  11.712 -0.0994 -0.4181  0.2333
 2627W        W17758   6.343  11.143  11.430  0.2225 -0.1993 -0.0151
 2628W        W17759   6.951   4.664   0.801 -0.0873  0.0278  0.1413
 2629W        W17760  15.955  13.146  14.563 -0.0416 -0.1170  0.1321
 2630W        W17761  16.891  10.912   4.497  0.0430  0.2168  0.5695
 2631W        W17762   2.645   7.621   2.933  0.1040 -0.0944  0.1609
 2632W        W17763  14.873  14.211  14.986  0.1816  0.0145 -0.0386
 2633W        W17764   1.434   1.319  12.073  0.0046  0.3771 -0.2473
 2634W        W17765  11.716  10.148   2.189  0.3014 -0.1719  0.0808
 2635W        W17766  15.646   4.328   5.229 -0.5432 -0.2532 -0.2407
 2636W        W17767   0.397  15.772  13.050 -0.0110 -0.0027  0.0139
 2637W        W17768  17.667   1.269  11.704 -0.0218 -0.4024 -0.3438
 2638W        W17769   8.395   9.089  13.841  0.2124  0.1266 -0.0318
 2639W        W17770   4.426   7.153  12.819  0.0084  0.2665  0.1999
 2640W        W17771   5.183  13.049   1.479 -0.2141 -0.1342  0.1732
 2641W        W17772   1.361   8.479  11.695 -0.2140 -0.1687 -0.3412
 2642W        W17773  10.973   7.737  10.357  0.2339 -0.0102  0.0710
 2643W        W17774  13.823   0.049   0.457 -0.1839 -0.0156  0.1766
 2644W        W17775   1.204  10.005   1.699 -0.0848 -0.4120  0.0116
 2645W        W17776  17.082  18.167  14.005  0.0503  0.1142 -0.4059
 2646W        W17777   4.458  11.413   3.601  0.3530  0.0858 -0.0799
 2647W        W17778   4.049   2.348   3.191 -0.2100 -0.3170  0.1509
 2648W        W17779  17.377  17.359   1.663 -0.0259  0.1385 -0.1478
 2649W        W17780  12.515   6.295  11.288 -0.2050  0.0953 -0.1349
 2650W        W17781   3.632  14.036   1.782  0.2328  0.0530 -0.1342
 2651W        W17782   3.786  12.084   5.156 -0.1600  0.0904 -0.1106
 2652W        W17783   1.359  16.713   3.095  0.0624 -0.2348  0.5037
 2653W        W17784   1.199   8.073   4.848  0.0700  0.0138  0.1273
 2654W        W17785   4.306  10.554  13.151 -0.0303 -0.2027  0.1134
 2655W        W17786   0.574  12.466  13.269 -0.1027  0.1034  0.1088
 2656W        W17787  10.330  13.421   2.618 -0.3151 -0.1470 -0.1837
 2657W        W17788   2.408  13.968   1.303  0.1387 -0.1541 -0.1040
 2658W        W17789  12.151  16.380  13.762  0.1855 -0.0128 -0.2283
 2659W        W17790  12.070   5.861   1.697 -0.3033 -0.2088  0.1115
 2660W        W17791   4.571  10.279  10.764 -0.1253  0.1200 -0.5817
 2661W        W17792   7.546  16.989  10.135 -0.1049  0.1015  0.1538
 2662W        W17793   4.048   0.620   4.938  0.1944  0.0812 -0.1877
 2663W        W17794  10.090  18.633   4.683 -0.1793  0.1476  0.2199
 2664W        W17795   6.047   5.468   1.157  0.1797 -0.0512 -0.2293
 2665W        W17796   2.538   8.730   2.923  0.3622  0.1019  0.1335
 2666W        W17797  18.059  17.231  15.486 -0.1391 -0.4813 -0.1716
 2667W        W17798  17.805  18.085   5.085 -0.1091  0.0867 -0.3914
 2668W        W17799  12.437   9.583   2.166  0.0914 -0.2197 -0.1358
 2669W        W17800   0.438  15.852   2.687 -0.0677  0.0275  0.3232
 2670W        W17801   3.743   9.831   1.895  0.0365  0.1061  0.0892
 2671W        W17802   6.528  10.718   4.274  0.0056 -0.1804  0.0349
 2672W        W17803  14.718   2.368   3.320  0.3018 -0.1107  0.0825
 2673W        W17804  10.433  15.812  11.774 -0.1183 -0.1332 -0.0538
 2674W        W17805  13.815   0.962  13.072  0.0951  0.1965  0.1428
 2675W        W17806  17.669   3.246  13.944 -0.2604  0.1799  0.1557
 2676W        W17807  13.293   6.870  13.505  0.1259 -0.0631 -0.1004
 2677W        W17808  13.372   7.497   2.022 -0.1574 -0.2256 -0.4805
 2678W        W17809  13.701  10.023   0.190  0.1602  0.1612 -0.1269
 2679W        W17810   1.692   2.415  15.275  0.0961 -0.0505  0.0966
 2680W        W17811   0.187  17.740   1.386  0.1544  0.0227 -0.1204
 2681W        W17812   7.582   4.872   3.409 -0.0426 -0.2697 -0.2786
 2682W        W17813   9.089   5.122  15.099  0.1580  0.0159 -0.1345
 2683W        W17814   3.656   4.671   2.242  0.0035  0.3193  0.1882
 2684W        W17815   0.508  18.463   2.093  0.0793 -0.2704  0.1368
 2685W        W17816  16.394  14.191   9.975 -0.1542  0.1960  0.1697
 2686W        W17817   4.084  16.990   3.931  0.4065 -0.0267 -0.0092
 2687W        W17818  13.955  13.524   5.621  0.3304  0.2813  0.1248
 2688W        W17819  17.954  17.340  11.323 -0.0336 -0.1011 -0.1700
 2689W        W17820  16.061   9.779   2.418 -0.1245  0.2315  0.0356
 2690W        W17821   5.030  17.771  10.438  0.5069 -0.1071 -0.0368
 2691W        W17822   0.208  11.214   3.330  0.1303 -0.2805  0.1487
 2692W        W17823  11.924  11.115   4.060 -0.0810  0.2961  0.0543
 2693W        W17824   1.337  15.977  12.955  0.0865 -0.0022  0.1111
 2694W        W17825   8.666  10.011   5.375  0.0239  0.5823 -0.1797
 2695W        W17826  14.011  13.036   0.867  0.3209  0.1921 -0.3218
 2696W        W17827  11.628   5.884  13.344  0.0304 -0.0682 -0.3280
 2697W        W17828  17.291  17.923  15.753 -0.1648  0.4830 -0.1666
 2698W        W17829  11.484  10.890   3.196 -0.0671  0.3658  0.1815
 2699W        W17830  16.524  18.628   3.214 -0.0799  0.4068 -0.0313
 2700W        W17831  10.230   1.286   5.032  0.1159  0.0824 -0.0418
 2701W        W17832   7.242   1.396  14.669  0.1079  0.0753  0.4889
 2702W        W17833   9.731   9.446   4.611 -0.0172  0.4062  0.2613
 2703W        W17834  11.399  14.366   2.266 -0.0886 -0.0979 -0.0273
 2704W        W17835   1.044  15.965  12.029 -0.1056  0.1630  0.1418
 2705W        W17836   1.070   7.245   1.919  0.1703 -0.2737 -0.1577
 2706W        W17837  12.135  14.086   4.600 -0.0381  0.1933 -0.3399
 2707W        W17838   3.336   8.156   2.761 -0.3258  0.1824  0.0537
 2708W        W17839  18.118  14.463  12.375 -0.0249 -0.0733  0.1901
 2709W        W17840   6.690  13.432  14.990 -0.3396  0.0927  0.0588
 2710W        W17841   8.526  15.483   1.682  0.3047 -0.3005 -0.0613
 2711W        W17842   5.254  16.351  12.593 -0.1193  0.1894 -0.0952
 2712W        W17843   5.097  15.700   5.197 -0.0021  0.1139  0.2120
 2713W        W17844  11.348  17.802   3.621  0.1576  0.3088 -0.1059
 2714W        W17845   3.337  13.729   3.015  0.1473 -0.0327  0.2333
 2715W        W17846   6.463  16.836  15.038  0.1795 -0.1933 -0.0623
 2716W        W17847   5.065   4.584  13.241 -0.2020  0.0809 -0.1295
 2717W        W17848  18.670  12.186  11.454  0.1849  0.0080  0.1130
 2718W        W17849   0.763   4.661   0.345  0.1313  0.1247 -0.1260
 2719W        W17850  15.229   0.117   0.637  0.0051 -0.0562 -0.0759
 2720W        W17851   9.853   3.448   2.001 -0.2830 -0.0832 -0.1884
 2721W        W17852  12.878   9.165  10.799  0.1834  0.1224  0.1496
 2722W        W17853  13.914  13.302  13.207  0.0120 -0.4328  0.0013
 2723W        W17854  13.297  15.457   3.374  0.0133 -0.5244 -0.0375
 2724W        W17855  17.747  13.042   4.688 -0.2635 -0.0188 -0.0700
 2725W        W17856  14.025   3.058  15.134 -0.3277 -0.0606  0.0498
 2726W        W17857  10.098   4.108  11.032 -0.1252 -0.1520 -0.3128
 2727W        W17858   0.583   1.910  13.030  0.3019 -0.1593 -0.0301
 2728W        W17859  14.146   1.027   1.668 -0.0254 -0.0065  0.2460
 2729W        W17860   7.484   5.000  12.700  0.1731 -0.0149  0.0367
 2730W        W17861   3.213   9.727  14.665 -0.5310  0.0802 -0.1956
 2731W        W17862  16.559   5.055  10.711 -0.0795  0.2626  0.3777
 2732W        W17863  16.682  13.733  13.456  0.0101  0.2937 -0.3229
 2733W        W17864   2.829  17.505   0.174 -0.0065  0.0932 -0.1954
 2734W        W17865  17.450  16.706  14.221  0.3940  0.2482  0.1696
 2735W        W17866   9.109   9.685   4.043 -0.0211 -0.3631 -0.0840
 2736W        W17867  10.998   3.421   2.629  0.1782 -0.1706  0.0334
 2737W        W17868   3.453  18.376   1.779 -0.3882  0.1161  0.1344
 2738W        W17869  13.385   8.177  13.586 -0.0419 -0.1031  0.1502
 2739W        W17870  11.062   9.488  15.067  0.2945  0.0794 -0.3480
 2740W        W17871  11.437   9.769  13.531  0.1206  0.0855 -0.0518
 2741W        W17872   5.285  14.103  12.729 -0.1795  0.5296  0.0705
 2742W        W17873   2.732   7.014  13.663 -0.0003  0.0475 -0.0561
 2743W        W17874  10.910   2.857  13.209 -0.1891 -0.1436 -0.0651
 2744W        W17875   9.543   2.704  14.829  0.0690  0.1451 -0.1106
 2745W        W17876   4.113  12.421   4.474 -0.1700 -0.2338  0.1327
 2746W        W17877   4.504  13.829  12.230  0.0479  0.2843  0.0339
 2747W        W17878  10.921  17.262   4.333  0.4618 -0.1192 -0.0207
 2748W        W17879   0.826   2.939  15.033  0.1139 -0.2412 -0.2918
 2749W        W17880   0.130  11.305  15.104  0.3510 -0.4576 -0.1905
 2750W        W17881   5.595  14.393  15.626 -0.0694 -0.1874  0.1936
 2751W        W17882   7.967  18.421   0.227 -0.1214 -0.0386 -0.1088
 2752W        W17883  12.775   7.796  12.286 -0.3057 -0.0951 -0.1370
 2753W        W17884   1.000  10.054   4.287  0.6196 -0.1293  0.0345
 2754W        W17885  11.427  12.657   3.990 -0.1017 -0.0554  0.0360
 2755W        W17886   0.476  12.872   2.987  0.2494 -0.1592 -0.1694
 2756W        W17887  15.966   1.068  11.128 -0.2059  0.3130 -0.0718
 2757W        W17888   4.819   7.443   5.456 -0.1654  0.1300  0.1069
 2758W        W17889  10.297   6.915   5.859  0.2550  0.3206  0.1542
 2759W        W17890  12.621   4.426   4.960  0.0742 -0.1694 -0.0731
 2760W        W17891  17.031   6.078   2.124 -0.0505 -0.2213  0.3933
 2761W        W17892   3.959   0.763   5.429  0.0588  0.3257  0.2167
 2762W        W17893  15.196   4.950  15.127 -0.1902  0.0727 -0.2102
 2763W        W17894  16.341  17.293  13.666  0.4688  0.1072  0.1506
 2764W        W17895  10.950   9.867  13.345 -0.4086 -0.0748  0.4431
 2765W        W17896  11.519   8.500  10.350  0.3397  0.1136 -0.0141
 2766W        W17897  17.219   5.581  14.540  0.0174  0.1255 -0.1264
 2767W        W17898  15.350   3.498   3.541 -0.5123  0.0565 -0.1215
 2768W        W17899  16.274   0.247   0.710  0.0484 -0.4970  0.0344
 2769W        W17900   3.419  16.856   2.536 -0.1603  0.0624 -0.0104
 2770W        W17901  13.769   5.543   3.179  0.0780 -0.0813 -0.3598
 2771W        W17902   4.109  13.003   1.429  0.0941 -0.1266 -0.1376
 2772W        W17903  12.967   3.623   0.206 -0.0981 -0.0415 -0.0885
 2773W        W17904   9.758  16.049   0.303  0.0115 -0.3617 -0.3769
 2774W        W17905   6.177   2.169  13.450  0.2496 -0.2713 -0.3382
 2775W        W17906   4.399  16.598  10.513  0.3150  0.1898 -0.2723
 2776W        W17907   6.192   0.375   3.384 -0.1288 -0.0180 -0.0409
 2777W        W17908   9.314   3.206   2.437  0.0694 -0.0686 -0.3519
 2778W        W17909  15.328  18.606  12.656 -0.1693 -0.3480 -0.1083
 2779W        W17910  12.917   6.603  11.491 -0.3265 -0.1895 -0.0186
 2780W        W17911  17.611   8.404  10.358  0.2662  0.3760 -0.2069
 2781W        W17912  15.486  12.508  14.312  0.0218 -0.1771  0.0364
 2782W        W17913   1.429   3.167  14.415 -0.2039  0.1378 -0.0639
 2783W        W17914   4.952  14.643   5.218  0.0588 -0.1923 -0.1507
 2784W        W17915   2.071   6.040  15.640 -0.0221 -0.2130 -0.0568
 2785W        W17916   6.290  17.260   1.062  0.1716 -0.2161 -0.0936
 2786W        W17917  18.717   2.379  15.367 -0.1306 -0.0725 -0.3184
 2787W        W17918   3.019  10.107  13.177 -0.0950 -0.1408  0.0526
 2788W        W17919  10.059   2.588  13.895 -0.1114  0.1029  0.0740
 2789W        W17920   3.265   7.187  14.751 -0.0450  0.0152 -0.5002
 2790W        W17921   3.963  10.374  14.023 -0.0835  0.2611 -0.1863
 2791W        W17922   7.545   7.032   2.874  0.2269 -0.2091  0.3089
 2792W        W17923   0.712   1.310   1.715 -0.1194  0.0556  0.2317
 2793W        W17924  11.119   7.519   1.442  0.2809 -0.1195  0.1512
 2794W        W17925  10.295   7.249  11.378 -0.3740  0.1703  0.0081
 2795W        W17926   5.946  13.614  13.940  0.0109 -0.1273  0.1025
 2796W        W17927  17.455   9.586   2.597 -0.0133 -0.2102  0.0103
 2797W        W17928  13.168  15.131  14.831  0.0320 -0.2327  0.1248
 2798W        W17929  12.483  17.039   4.430 -0.0135  0.1255 -0.2181
 2799W        W17930  16.826  10.671  12.980  0.0638  0.0628 -0.0377
 2800W        W17931   8.945   1.906   3.149 -0.3085 -0.2956 -0.1656
 2801W        W17932  10.858  16.165   0.316 -0.3467  0.0979 -0.2328
 2802W        W17933   1.112   9.299   0.618  0.1204  0.3061  0.1067
 2803W        W17934  10.650  16.910   3.303 -0.4475 -0.1429 -0.1457
 2804W        W17935  18.252   1.833  11.025  0.4372  0.2566 -0.1296
 2805W        W17936  13.113   4.376  13.627  0.3172 -0.1726  0.1585
 2806W        W17937   0.561  13.404  11.311 -0.1357 -0.3181  0.2723
 2807W        W17938   7.444  14.331  11.299 -0.5213 -0.3596  0.1995
 2808W        W17939  17.625  15.615   4.825  0.0939  0.1370  0.1983
 2809W        W17940  14.696   6.775   0.131  0.2080  0.0486  0.3197
 2810W        W17941  10.906  14.083  13.886  0.0068  0.0500  0.3118
 2811W        W17942   8.989  17.637  12.625  0.3368  0.0333 -0.1931
 2812W        W17943  11.529  15.892  13.812  0.2239 -0.0369  0.0322
 2813W        W17944   6.300  14.834   3.826 -0.0033  0.0784 -0.3233
 2814W        W17945   6.666  13.928  15.748 -0.2299  0.1106 -0.1458
 2815W        W17946  10.703  17.669   1.705 -0.0271 -0.2550  0.2019
 2816W        W17947  12.270   7.085  12.309 -0.1102  0.2676 -0.0773
 2817W        W17948   2.231  15.114   1.321 -0.2407  0.0103  0.0355
 2818W        W17949   1.862   1.991  13.854 -0.0773 -0.0135  0.1049
 2819W        W17950  12.094  10.758  13.495 -0.3070 -0.2641 -0.2721
 2820W        W17951  18.471  15.204  11.505 -0.3950 -0.0182  0.0754
 2821W        W17952  16.400   8.291   3.888  0.0390 -0.1770  0.0064
 2822W        W17953   9.581  15.407  13.543 -0.0306 -0.0344 -0.3003
 2823W        W17954   7.846  13.193   4.283 -0.3152 -0.0268  0.0518
 2824W        W17955  10.793   7.907  14.071  0.3593 -0.0154  0.3579
 2825W        W17956   4.887  13.283   0.414  0.0057 -0.2205 -0.0061
 2826W        W17957   3.463  14.537  15.358 -0.1145  0.2390 -0.2327
 2827W        W17958  13.237  15.968  13.618  0.1522  0.1689 -0.0526
 2828W        W17959   4.429  17.346   4.988 -0.1404 -0.0887  0.1864
 2829W        W17960  12.013   6.795  13.698  0.2462 -0.1772  0.0931
 2830W        W17961   3.539   0.948   4.138 -0.0239  0.0041  0.1645
 2831W        W17962  15.219   2.216  11.154 -0.0636 -0.0497 -0.1409
 2832W        W17963  14.972   5.224   1.198  0.2667  0.1995  0.2213
 2833W        W17964   5.931   9.289  14.476 -0.2303  0.0129 -0.0721
 2834W        W17965   7.730   4.959  12.273 -0.1435 -0.4508 -0.0549
 2835W        W17966  13.747  18.398  11.058 -0.2181  0.0197  0.0961
 2836W        W17967  12.856   3.701  11.526  0.0188  0.0016  0.0942
 2837W        W17968   5.402   9.324  11.879 -0.2457  0.0160 -0.0600
 2838W        W17969   7.585   4.396  12.513  0.0553 -0.0649 -0.3319
 2839W        W17970   3.423   3.165   2.226  0.0198 -0.0077  0.0172
 2840W        W17971  13.047  11.513   4.638 -0.0545 -0.0244  0.0590
 2841W        W17972   9.147   1.150   0.313 -0.1927 -0.2310  0.3468
 2842W        W17973  13.126   0.850  14.726 -0.1400  0.0635 -0.0828
 2843W        W17974  10.004  15.113  13.464 -0.2441  0.2059 -0.3446
 2844W        W17975   5.797   8.544  14.854 -0.1520  0.1116  0.0001
 2845W        W17976   8.275   4.489  14.544 -0.1900  0.0141 -0.1183
 2846W        W17977  14.602   5.296  13.422  0.0357 -0.0869  0.0764
 2847W        W17978  15.616  10.771   2.661 -0.0852  0.3492 -0.0318
 2848W        W17979   8.215   6.833   2.448  0.0658  0.1463 -0.2707
 2849W        W17980   6.802   3.268  11.979  0.0991 -0.2899 -0.1625
 2850W        W17981  17.095  10.292  11.766  0.1121  0.1716 -0.3568
 2851W        W17982   9.379   5.124   5.916 -0.2300 -0.3073  0.1367
 2852W        W17983  18.454  13.496  15.372 -0.2646  0.2318 -0.1305
 2853W        W17984   2.822   4.514  13.121 -0.1134 -0.0253 -0.1398
 2854W        W17985  10.662  17.836  14.963  0.0898  0.0918 -0.0686
 2855W        W17986   7.017  13.101  15.381 -0.1375 -0.0889  0.2587
 2856W        W17987  16.742   4.966  11.206 -0.1895 -0.0405 -0.2186
 2857W        W17988  15.131   3.415   9.950  0.0717  0.0456 -0.1860
 2858W        W17989  13.904   7.058  15.447 -0.1162  0.0796  0.2942
 2859W        W17990   1.972   8.550   2.856 -0.0712  0.0336  0.3090
 2860W        W17991  15.973  17.980  10.959 -0.2623 -0.0456 -0.2499
 2861W        W17992  13.866   3.585   5.321  0.0331  0.3024  0.3238
 2862W        W17993  17.271  10.218  12.242 -0.0188  0.2805 -0.5985
 2863W        W17994  10.735   4.311  15.075  0.2856  0.1726 -0.1907
 2864W        W17995  17.706  17.550   3.346  0.2021 -0.1815  0.2772
 2865W        W17996  15.461   7.144   1.905 -0.0390 -0.0388 -0.0176
 2866W        W17997   5.885  13.772  13.457 -0.1057  0.1628 -0.0089
 2867W        W17998  14.113   8.212   3.650  0.1755 -0.3222 -0.0448
 2868W        W17999  16.670   5.334   3.598  0.2320 -0.0566 -0.1362
 2869W        W18000   2.590   5.410  12.793  0.2006 -0.0492 -0.0199
 2870W        W18001  17.628   4.070   3.319  0.4187  0.0349 -0.0279
 2871W        W18002   4.548   9.021   0.658  0.2830  0.0680 -0.1889
 2872W        W18003  10.255  13.000  10.958  0.1657 -0.3060  0.1341
 2873W        W18004   9.675   7.600   2.257  0.0354  0.2122 -0.1660
 2874W        W18005  11.992   6.710   3.883  0.0498 -0.0304  0.2518
 2875W        W18006   1.328   4.886  15.799  0.1386  0.0842 -0.0475
 2876W        W18007   3.313  12.497  13.044  0.0140 -0.2208  0.3218
 2877W        W18008   6.761   0.844   5.261 -0.2421 -0.0317 -0.0817
 2878W        W18009   8.776   7.697  14.652 -0.1024 -0.2253 -0.1041
 2879W        W18010   9.672  17.096   4.458 -0.0227  0.0924  0.2083
 2880W        W18011  11.085   5.113   3.919 -0.0434  0.1170  0.3303
 2881W        W18012   2.451   6.682   5.081  0.0189  0.2851  0.0984
 2882W        W18013  13.572  10.421  12.981 -0.3909 -0.0127  0.0614
 2883W        W18014  14.259   4.879  14.807  0.0019 -0.0565  0.0279
 2884W        W18015  12.297   7.416   3.662  0.4649  0.6207 -0.3683
 2885W        W18016   2.290  11.043  13.133  0.1234 -0.1701  0.0411
 2886W        W18017  17.422   2.190  12.682  0.2261  0.3458 -0.0048
 2887W        W18018  10.936   7.157   1.106 -0.0411  0.0182 -0.3992
 2888W        W18019   1.498  12.201  12.907 -0.3359  0.2052 -0.1620
 2889W        W18020  10.946   5.495  15.005 -0.0464 -0.2444  0.0208
 2890W        W18021  16.032   9.717  11.357  0.1381 -0.0806 -0.1134
 2891W        W18022   9.568   0.885  11.338  0.0334  0.0548  0.1750
 2892W        W18023   5.211   1.321  12.261 -0.2354  0.0149 -0.1178
 2893W        W18024   3.717   0.252   4.872 -0.0902 -0.0834 -0.0129
 2894W        W18025   3.687   8.846   3.283 -0.0712  0.2146  0.0330
 2895W        W18026   3.575  17.968  10.665 -0.1804 -0.0188 -0.0425
 2896W        W18027  10.591   9.648  10.930  0.0192 -0.0476 -0.3653
 2897W        W18028   5.812   6.565   3.693 -0.0843 -0.1175  0.2969
 2898W        W18029   8.911  13.887   1.316  0.0697  0.3461  0.0471
 2899W        W18030   1.041   7.909  14.895 -0.1264  0.0853  0.2487
 2900W        W18031   7.739   6.929   0.796 -0.1738  0.1135 -0.0814
 2901W        W18032  12.170   8.079   2.390 -0.0610  0.3573  0.0780
 2902W        W18033   7.399   5.385   0.302  0.3322  0.1863  0.3250
 2903W        W18034  16.784   4.553   4.512  0.2134  0.2440 -0.2765
 2904W        W18035   5.377  15.985  12.924  0.1977 -0.2238 -0.1273
 2905W        W18036   8.947   1.920   2.097 -0.0676  0.2171  0.2684
 2906W        W18037  13.966  16.919   1.518 -0.1920 -0.2249  0.1040
 2907W        W18038  16.039  10.722   2.979  0.1107 -0.3989  0.2181
 2908W        W18039   9.585  11.376  12.521  0.0142  0.1124  0.2308
 2909W        W18040  16.412   3.773  11.917 -0.0225 -0.0086 -0.1139
 2910W        W18041   8.305  14.181  11.119 -0.1878  0.1111  0.1579
 2911W        W18042  11.432   4.473  13.293 -0.1268  0.1865  0.3556
 2912W        W18043  13.401  13.688  13.603  0.3093  0.4209 -0.1409
 2913W        W18044  17.469  14.076  11.669 -0.0537  0.0899 -0.1405
 2914W        W18045   7.641   1.885   1.319  0.4003 -0.3214 -0.2485
 2915W        W18046   4.653  15.359  15.321  0.0612  0.2834  0.1141
 2916W        W18047  11.837  12.584   1.926  0.0036  0.3107 -0.3009
 2917W        W18048  10.127  12.629   9.972  0.1016 -0.2845  0.0815
 2918W        W18049   7.611   8.198  15.677  0.2018 -0.1692  0.1237
 2919W        W18050   9.091   1.597   4.009 -0.3861 -0.2012 -0.0179
 2920W        W18051  14.598   3.361  12.681  0.0773 -0.1450  0.1008
 2921W        W18052  11.204  18.191  12.581  0.2318 -0.2961 -0.5184
 2922W        W18053  16.944   3.954  14.829  0.4850 -0.1388  0.0938
 2923W        W18054  14.137   1.241  11.917 -0.2670 -0.0122  0.4548
 2924W        W18055   2.438  11.143   2.106  0.1513  0.1593  0.1492
 2925W        W18056  12.686  16.456   1.193 -0.1061  0.0094 -0.2830
 2926W        W18057   9.793   5.893   1.773 -0.0117 -0.1200  0.0428
 2927W        W18058   8.584   4.826   1.275  0.1973 -0.1591  0.0762
 2928W        W18059  11.365  14.185   1.789  0.1772  0.0458  0.0400
 2929W        W18060  13.994   0.257   4.157  0.0214 -0.0638 -0.2307
 2930W        W18061  17.536  12.853  13.133  0.0985 -0.3004 -0.1956
 2931W        W18062   3.460   4.305  12.503  0.2068  0.3136  0.0566
 2932W        W18063  15.750  12.930   3.601 -0.1982  0.0966  0.1176
 2933W        W18064  16.691  16.326  11.558  0.0188 -0.0807 -0.1605
 2934W        W18065   2.498  18.360  14.587  0.3259  0.4236 -0.0425
 2935W        W18066  12.849  10.004  13.824 -0.0602 -0.0334 -0.1701
 2936W        W18067   5.871  13.524   3.875  0.1462 -0.0769  0.0869
 2937W        W18068   0.932   6.350  15.140 -0.3403 -0.0409 -0.2562
 2938W        W18069   8.987   8.533  14.614  0.1210 -0.3448  0.1474
 2939W        W18070   9.146  11.326   0.195  0.0097  0.0886  0.1005
 2940W        W18071  12.127  14.986  12.192 -0.1127  0.0243  0.0496
 2941W        W18072   7.288  17.014   2.424  0.0180 -0.1748 -0.2275
 2942W        W18073  12.865   2.739  12.893 -0.2540 -0.1663 -0.2975
 2943W        W18074  17.147  16.658   0.616 -0.1944  0.2333  0.1059
 2944W        W18075   9.340   1.852   3.628 -0.0157  0.3042 -0.2119
 2945W        W18076   7.502   3.126   2.689 -0.0320 -0.0630 -0.0992
 2946W        W18077   0.598   9.711   2.266  0.0596  0.0066  0.1795
 2947W        W18078   4.212   4.674   1.695 -0.2253  0.1549  0.1483
 2948W        W18079   0.798   7.197   9.660  0.1138 -0.0922  0.0586
 2949W        W18080  18.211   4.018  12.788  0.1147 -0.0043 -0.1567
 2950W        W18081   9.776  16.653  14.836 -0.0526  0.0664 -0.4713
 2951W        W18082  14.303   5.706  14.231  0.0430  0.3298 -0.1627
 2952W        W18083   5.821   2.599  15.239  0.1791  0.1472 -0.0152
 2953W        W18084  11.498   8.729   2.866  0.1682  0.3116 -0.1180
 2954W        W18085  14.444   4.303   1.514 -0.2145 -0.0310 -0.0758
 2955W        W18086   1.029  10.901  13.373 -0.2978 -0.0936  0.0924
 2956W        W18087   2.159  11.256   0.450  0.0949 -0.0830  0.2403
 2957W        W18088   8.176  17.993   3.482 -0.1161 -0.2584 -0.2253
 2958W        W18089  10.066   2.470   1.781 -0.0477  0.0628 -0.0837
 2959W        W18090  14.610  18.575   4.738 -0.4310 -0.0094 -0.1207
 2960W        W18091  11.596   5.369  13.407  0.0580 -0.0410  0.2441
 2961W        W18092   1.138   2.806  14.636 -0.0008  0.2020 -0.2662
 2962W        W18093   3.705   3.797  14.158 -0.2076 -0.3775 -0.1358
 2963W        W18094  14.221   9.985  11.325 -0.1671 -0.3220  0.0033
 2964W        W18095  14.142  16.047   4.127  0.2072  0.0919  0.1805
 2965W        W18096   9.698   7.724   3.900 -0.1462 -0.4215 -0.0967
 2966W        W18097  11.336   5.650  15.385 -0.3021  0.1041  0.0017
 2967W        W18098   3.949   0.085   0.275 -0.0444  0.0141  0.0268
 2968W        W18099   8.786  14.933   4.641 -0.1832  0.1471 -0.0227
 2969W        W18100   8.685  16.507   0.739  0.0554 -0.0926  0.0985
 2970W        W18101  13.191   0.314   2.014  0.1027  0.2593  0.0085
 2971W        W18102   6.531  15.554  14.920  0.0257  0.0200  0.0396
 2972W        W18103   6.912   1.066  13.783  0.1338 -0.0333  0.2664
 2973W        W18104  11.629  10.848  12.357  0.4155 -0.0031 -0.1534
 2974W        W18105   9.316   4.307   3.273 -0.1820  0.1207  0.1586
 2975W        W18106   2.457   6.586   2.329  0.2273  0.1492 -0.0410
 2976W        W18107  15.439   0.723  12.317  0.0255 -0.1259  0.1609
 2977W        W18108  13.193   8.314   5.390 -0.0329 -0.0512 -0.0371
 2978W        W18109  11.632  18.355   4.415 -0.1030 -0.1692 -0.3535
 2979W        W18110   8.592   9.591   1.560  0.0537  0.0928 -0.1030
 2980W        W18111   8.744   9.537   0.668 -0.1404  0.0785  0.0806
 2981W        W18112  15.246  13.837   5.354 -0.0669 -0.1479  0.0884
 2982W        W18113  15.819   2.035  10.138  0.3825 -0.1557 -0.2353
 2983W        W18114  18.631  11.817  15.066  0.1051  0.0597 -0.3506
 2984W        W18115   9.248   7.616   1.437 -0.1405  0.0984 -0.1235
 2985W        W18116   6.112  14.306   2.415 -0.2287 -0.1628  0.1823
 2986W        W18117  18.124  16.179  14.800 -0.0681 -0.2432  0.1828
 2987W        W18118  11.778   5.047   4.495  0.0766  0.1799 -0.1565
 2988W        W18119  17.832   4.365   2.472 -0.2004  0.2454  0.1000
 2989W        W18120  10.295   9.891  10.563 -0.3248 -0.2418  0.1416
 2990W        W18121   4.126  13.692  12.620 -0.0318 -0.0246 -0.1272
 2991W        W18122  16.028   7.556   2.287 -0.1436  0.0248 -0.0351
 2992W        W18123  18.609   8.345   1.155  0.2182  0.3125 -0.0449
 2993W        W18124   6.353  12.650   1.167  0.1515 -0.0057 -0.0374
 2994W        W18125   9.257   2.155   1.722 -0.0431  0.1893  0.1242
 2995W        W18126   0.518  12.313   2.972  0.1834  0.1331  0.1277
 2996W        W18127  13.154  17.982   1.973 -0.0450 -0.2067 -0.3834
 2997W        W18128   8.088  11.639   4.960  0.1347  0.4584  0.0345
 2998W        W18129   0.880   0.860   4.614 -0.2477 -0.1361  0.0485
 2999W        W18130   7.289   2.762  13.284 -0.2311  0.1033  0.3171
 3000W        W18131   9.632   8.229   3.681 -0.0729 -0.3400  0.1383
 3001W        W18132   8.426   3.284   2.874  0.0825 -0.0249 -0.0485
 3002W        W18133   5.655  17.269  12.549 -0.2975  0.0701  0.0308
 3003W        W18134  18.695  12.562   9.830  0.2719 -0.0484  0.1059
 3004W        W18135  13.436  18.519  10.733 -0.1794  0.0633  0.2973
 3005W        W18136  14.013  17.735   0.492  0.1371 -0.1935 -0.0938
 3006W        W18137   7.617   2.805   3.144  0.4573 -0.1616 -0.2530
 3007W        W18138  14.900   0.652  15.261  0.2195  0.3128  0.4074
 3008W        W18139   1.001   9.978  10.870  0.1064 -0.2425  0.0371
 3009W        W18140   6.950   2.100  12.436 -0.2405  0.2618  0.0280
 3010W        W18141   2.001   6.616  13.794 -0.0679 -0.1868 -0.3255
 3011W        W18142  10.070   4.479   3.395  0.2007 -0.1825  0.1882
 3012W        W18143   1.248   1.366  14.855  0.2336 -0.0117 -0.2313
 3013W        W18144  17.177   7.849   0.866 -0.2102 -0.2824  0.0619
 3014W        W18145   0.972  17.262   1.859  0.0016 -0.0736  0.0297
 3015W        W18146   5.128   0.862  14.934  0.1663  0.1430  0.1907
 3016W        W18147  15.842  13.345  10.882  0.0954  0.3605 -0.1570
 3017W        W18148   1.988  10.368   6.098 -0.2061 -0.2714 -0.3767
 3018W        W18149   2.224  17.020  15.580 -0.0818 -0.0298 -0.1026
 3019W        W18150   7.461  15.913   3.163 -0.1602  0.1786  0.0696
 3020W        W18151  10.762   6.603  11.296 -0.0854  0.1770  0.1080
 3021W        W18152  18.676  15.724  12.201  0.0146  0.0902  0.1055
 3022W        W18153  10.233  12.478   5.545 -0.0003 -0.0246 -0.1034
 3023W        W18154   6.433  17.053   2.881  0.1301  0.5706  0.1861
 3024W        W18155   4.306  18.708  11.556  0.1293  0.1767  0.2872
 3025W        W18156   7.990   6.197  11.823 -0.3809  0.1259  0.1387
 3026W        W18157  17.663  17.876   2.893 -0.1661  0.0349  0.0287
 3027W        W18158   0.189  10.869   1.000  0.0550  0.0942  0.2305
 3028W        W18159   0.471  12.434   1.156  0.0161 -0.3473  0.0297
 3029W        W18160  14.398   4.323  14.584  0.1830 -0.2303  0.1154
 3030W        W18161  11.146   3.833  12.526  0.2625 -0.0409 -0.2748
 3031W        W18162  18.061   2.068  11.988  0.0464  0.2707 -0.1747
 3032W        W18163  10.294   9.247  14.572  0.1451 -0.2066 -0.2821
 3033W        W18164  12.550   7.351   5.174 -0.1186  0.1189  0.2564
 3034W        W18165   5.821   3.238  12.740 -0.0694  0.2446  0.0635
 3035W        W18166   3.456  11.873   0.165  0.1515 -0.0802  0.2568
 3036W        W18167  13.698   3.240   0.003 -0.2693 -0.0959 -0.0663
 3037W        W18168  16.833  16.724  14.089  0.1386 -0.0232 -0.0458
 3038W        W18169  15.954   4.109  12.675 -0.0960  0.1348  0.2503
 3039W        W18170   0.637   4.155   0.378 -0.1879 -0.0853  0.0665
 3040W        W18171  15.663  13.596   5.274 -0.0336  0.0216 -0.1487
 3041W        W18172  10.991   7.732   2.397  0.1600  0.1013 -0.0385
 3042W        W18173  18.190  14.452   2.769 -0.0109 -0.2481  0.0924
 3043W        W18174  16.140   6.563  10.569  0.1075 -0.2173 -0.3107
 3044W        W18175  15.894  17.704   5.485  0.1514  0.1246 -0.1941
 3045W        W18176  16.106  15.322   0.779  0.0605  0.3363  0.0131
 3046W        W18177   6.702  10.680   0.038  0.4689  0.0027 -0.0877
 3047W        W18178   4.352   6.811   0.114 -0.2663  0.2182 -0.0110
 3048W        W18179  18.171  13.833  15.200  0.0895  0.0583  0.2186
 3049W        W18180   5.219  17.946   4.620  0.3506  0.1409 -0.0935
 3050W        W18181   6.991   6.154   3.286 -0.1329 -0.1803  0.0495
 3051W        W18182   2.613  17.212   2.102 -0.2735 -0.2779  0.0170
 3052W        W18183   0.449   6.988   4.115  0.2113  0.1087 -0.1557
 3053W        W18184   5.980  18.508   1.134  0.0522  0.1883  0.3235
 3054W        W18185  13.042   2.299  12.193  0.1427  0.0964 -0.0267
 3055W        W18186   0.771   7.959   5.138 -0.0167  0.0487 -0.0582
 3056W        W18187   4.525   7.837   2.320 -0.3238 -0.0868  0.1274
 3057W        W18188   9.284   2.168   2.730 -0.1641 -0.0531  0.2662
 3058W        W18189   6.288  11.014   0.665  0.1373 -0.0771 -0.0575
 3059W        W18190   4.036  10.146   3.095 -0.0198 -0.1320 -0.0934
 3060W        W18191   8.683  17.514  14.687 -0.4210 -0.0314 -0.3058
 3061W        W18192  15.171  17.872   0.481 -0.0378 -0.0056  0.0947
 3062W        W18193  15.309   4.744  13.758  0.0218  0.1245 -0.0765
 3063W        W18194  15.956   9.967  12.469 -0.0942 -0.1087 -0.1072
 3064W        W18195   1.323  11.533  13.024  0.3094  0.0419 -0.6021
 3065W        W18196   9.367   4.611  13.011  0.2142 -0.1197  0.2142
 3066W        W18197  12.349  10.886   2.125 -0.0218 -0.0361 -0.2999
 3067W        W18198   9.565   3.554  12.326 -0.1332  0.2953 -0.0047
 3068W        W18199   2.929   1.714   4.249 -0.1209  0.1738  0.3172
 3069W        W18200   5.938  10.234   1.007 -0.0079  0.1530  0.0619
 3070W        W18201   8.223   6.244   4.246 -0.0560  0.1172  0.0535
 3071W        W18202   9.204  12.187   1.525 -0.0116  0.0799 -0.0195
 3072W        W18203   1.191   0.740   4.118 -0.0667  0.1010 -0.2299
 3073W        W18204  11.591   1.247  12.660 -0.0840 -0.1378 -0.0644
 3074W        W18205  11.234  15.830  12.448  0.0106 -0.1143 -0.2390
 3075W        W18206  14.234  12.237  14.068 -0.0104 -0.1634 -0.3806
 3076W        W18207   0.710   3.547   2.458 -0.0798 -0.1240 -0.1796
 3077W        W18208   6.277   8.746   5.717 -0.2238  0.3226  0.0372
 3078W        W18209   7.407   9.029  10.727 -0.1550  0.0268 -0.0625
 3079W        W18210  16.256   3.059  11.210  0.0186  0.0356  0.3117
 3080W        W18211   0.609  10.478   4.778  0.3492 -0.1413 -0.1953
 3081W        W18212   5.229  17.791  13.239  0.1313 -0.0762  0.1859
 3082W        W18213   1.763  12.069   5.799  0.0791  0.3283 -0.0682
 3083W        W18214   8.093   8.621   0.632 -0.1863  0.0981 -0.2208
 3084W        W18215   3.360   8.420   4.892 -0.2817  0.1546  0.0049
 3085W        W18216   2.153   6.035  13.569 -0.0707  0.1298  0.1742
 3086W        W18217   1.836  17.423   2.065 -0.1675  0.1696 -0.3480
 3087W        W18218   8.228   6.052  13.969  0.1833  0.0226  0.3446
 3088W        W18219   3.666  12.780  11.861 -0.1417 -0.2528 -0.0054
 3089W        W18220   7.043  17.257  12.214  0.0112  0.1164 -0.1309
 3090W        W18221   6.418  13.116  13.207 -0.0151  0.0781 -0.1603
 3091W        W18222  17.757  10.072   2.599 -0.0161  0.0707 -0.1267
 3092W        W18223   7.110  15.001   3.351  0.1876  0.0911 -0.1586
 3093W        W18224  17.513   5.988   2.093  0.4723  0.3136  0.1279
 3094W        W18225  15.736   5.044   0.376 -0.4876  0.0163 -0.1676
 3095W        W18226   3.017  16.642   0.141 -0.1074 -0.2613 -0.2378
 3096W        W18227   2.048   2.017   5.999 -0.0700  0.1761  0.2688
 3097W        W18228  17.547  11.124  12.720 -0.1608  0.1880 -0.3178
 3098W        W18229  13.424   8.521  13.182 -0.1230 -0.0754  0.0571
 3099W        W18230   0.771  12.667  11.958 -0.1088 -0.2181  0.0898
 3100W        W18231   0.292   9.774  11.409  0.1375  0.3631 -0.1597
 3101W        W18232  16.253  11.044  13.112 -0.1183  0.2885  0.1153
 3102W        W18233  10.798   8.667   2.229  0.1296 -0.0053  0.0381
 3103W        W18234   8.722   1.462  15.313 -0.1783  0.0355 -0.0383
 3104W        W18235  10.223   7.860  14.194  0.2853 -0.1082 -0.0009
 3105W        W18236   6.404   5.852   1.917 -0.0117  0.2567 -0.1778
 3106W        W18237   8.222   0.699   4.448  0.2007 -0.0545  0.2068
 3107W        W18238   3.268   5.292   1.365  0.0521  0.0636  0.0708
 3108W        W18239   3.232   2.957   1.709 -0.3205 -0.1219  0.2867
 3109W        W18240  16.777   8.331  13.001  0.0285 -0.1584 -0.1195
 3110W        W18241  14.141   4.490   2.774  0.2204  0.2124 -0.0704
 3111W        W18242   5.267  14.846  11.528 -0.0633 -0.0655 -0.0268
 3112W        W18243   8.915  18.159   3.106 -0.1412 -0.1386 -0.4058
 3113W        W18244  15.016   8.017   2.107 -0.1187  0.2010 -0.1913
 3114W        W18245   2.624  14.272  15.252 -0.3110  0.1211 -0.0378
 3115W        W18246   5.398  16.217   2.335 -0.0222  0.0149  0.0808
 3116W        W18247   7.353   6.223   5.315  0.2792  0.1768  0.0934
 3117W        W18248   1.106  17.536  12.540 -0.1577  0.2353  0.3333
 3118W        W18249  15.499  14.169   2.059 -0.1362 -0.0307  0.2315
 3119W        W18250   8.196  14.695  15.488  0.1219  0.1820  0.1170
 3120W        W18251   8.482   3.569  13.981  0.2334  0.2181  0.0510
 3121W        W18252   0.919  13.594   3.476  0.0746 -0.1291  0.1662
 3122W        W18253  14.671  15.702   0.326  0.3698 -0.1023 -0.1659
 3123W        W18254  14.311  14.323   3.208 -0.2209 -0.1778 -0.1605
 3124W        W18255   7.078  13.027  10.118 -0.0274  0.0618 -0.1028
 3125W        W18256   2.676  18.621  11.012  0.1724 -0.1327 -0.1726
 3126W        W18257   6.269   2.889  14.682 -0.1272 -0.0310 -0.2571
 3127W        W18258   5.372   5.021  13.305  0.0433 -0.0014 -0.1053
 3128W        W18259   6.698   6.943   5.085  0.1350  0.0880 -0.2120
 3129W        W18260  13.284  13.925   0.149 -0.0152  0.0711  0.2367
 3130W        W18261   1.689   3.978   2.469 -0.1815 -0.1474  0.2094
 3131W        W18262  16.561  10.670  14.664 -0.1135  0.1672  0.2216
 3132W        W18263  17.275   7.937   1.413  0.0941 -0.0327  0.1809
 3133W        W18264  13.729  15.120  12.269 -0.1999  0.0179 -0.0234
 3134W        W18265  17.060   4.531  15.561 -0.1758 -0.0790  0.0109
 3135W        W18266   4.077   6.784   9.979 -0.3379  0.0363 -0.0395
 3136W        W18267   5.334  15.446   6.000  0.0709 -0.2678  0.0297
 3137W        W18268   8.827  15.387  14.770 -0.4910  0.1158  0.2059
 3138W        W18269   5.923   9.081   5.854 -0.0233  0.0398 -0.1613
 3139W        W18270   4.448   9.170  15.567 -0.1357 -0.2508 -0.1075
 3140W        W18271   5.584  15.377   1.284 -0.0466 -0.2726 -0.0847
 3141W        W18272  14.156  17.760  15.507  0.0943  0.0816  0.4307
 3142W        W18273  13.289  18.162  11.005 -0.3316 -0.0251 -0.0874
 3143W        W18274   5.682   6.476   2.909  0.0333 -0.1330 -0.1362
 3144W        W18275  18.099   6.596  14.897  0.1107  0.0879 -0.0063
 3145W        W18276  18.278  11.874  12.634  0.1651 -0.0170  0.0999
 3146W        W18277  17.915   8.405  11.676  0.0861 -0.1624 -0.1426
 3147W        W18278  17.842   5.596   1.888 -0.0699 -0.1121  0.0535
 3148W        W18279   4.792   2.307  14.771 -0.1556  0.1056  0.0910
 3149W        W18280  13.104   2.559   5.288  0.1276  0.2078  0.0574
 3150W        W18281   4.245   1.186  12.589  0.0199 -0.0889 -0.0037
 3151W        W18282  12.806  18.629   2.456  0.0190 -0.0987  0.1813
 3152W        W18283  13.422  15.987   5.125  0.1895  0.3382 -0.1843
 3153W        W18284   2.086   8.210   5.169 -0.3550 -0.0343 -0.0254
 3154W        W18285   2.349  16.872  11.374 -0.0840 -0.0058  0.0843
 3155W        W18286   4.216  14.625  12.957 -0.1815  0.0530  0.0736
 3156W        W18287  14.113  15.454  15.134  0.0101 -0.2466 -0.1718
 3157W        W18288   7.674  18.390  12.188  0.0935  0.3537 -0.1845
 3158W        W18289   9.432  11.080  15.120 -0.2331  0.4379 -0.1128
 3159W        W18290  13.381   6.727   1.882 -0.1753  0.0041 -0.2268
 3160W        W18291   7.868   3.267   4.947 -0.3992  0.0600  0.1035
 3161W        W18292   2.299   0.636  12.529 -0.3559  0.0512 -0.2510
 3162W        W18293  14.542  16.551  13.316 -0.2654 -0.1667  0.2048
 3163W        W18294  12.078  11.571  14.164 -0.2111  0.1589 -0.2268
 3164W        W18295   9.755   1.545   5.181 -0.0018  0.3353 -0.3124
 3165W        W18296  10.690   3.427  14.531  0.0019  0.2013 -0.0456
 3166W        W18297  12.757  16.624  15.452  0.2726 -0.1533  0.1244
 3167W        W18298   4.758   7.023  14.809 -0.1612  0.1463 -0.2247
 3168W        W18299   1.570   4.475   0.159 -0.3460  0.3512  0.0794
 3169W        W18300   3.145  16.396  12.334 -0.2909 -0.1397 -0.1786
 3170W        W18301   1.081   4.250   1.010 -0.0715 -0.0768 -0.0600
 3171W        W18302  15.365   3.257  10.921  0.0759  0.0400 -0.1313
 3172W        W18303  18.263  13.950   2.663  0.0011 -0.1013  0.1638
 3173W        W18304  10.032  14.740   0.878 -0.0824  0.3579 -0.0876
 3174W        W18305  10.618  15.549  13.880 -0.0705  0.2253  0.0652
 3175W        W18306  17.050  14.027   0.674 -0.0182 -0.5032 -0.2439
 3176W        W18307   9.685  17.147  10.944 -0.1216 -0.1735  0.2091
 3177W        W18308   7.762   7.018   2.404  0.0768  0.1914  0.0263
 3178W        W18309  10.029  15.224   3.480  0.0027 -0.3112 -0.1928
 3179W        W18310  16.070   5.567  13.510 -0.2269 -0.0665  0.2059
 3180W        W18311  10.922   3.031  14.386 -0.0300 -0.1948  0.5894
 3181W        W18312  11.745   2.783   4.840 -0.1148 -0.1337  0.2843
 3182W        W18313  16.501   3.183  13.084 -0.1311 -0.1203  0.1164
 3183W        W18314   7.883  12.024   0.324 -0.0505  0.0527 -0.2526
 3184W        W18315  11.610  12.545  14.889 -0.0335  0.3876 -0.1209
 3185W        W18316  11.819   6.433  14.140  0.1684 -0.3465  0.1623
 3186W        W18317  17.694   2.117   1.732  0.0208 -0.0847  0.0081
 3187W        W18318  14.301  11.972   3.287 -0.2637 -0.3292 -0.0464
 3188W        W18319   1.408   0.577   5.647 -0.1648 -0.2006  0.1103
 3189W        W18320   8.576  14.067  12.333  0.2465  0.1145  0.0922
 3190W        W18321  18.663   9.709   3.961 -0.0819 -0.0597  0.1838
 3191W        W18322  14.501   8.332   0.914 -0.2803  0.2977  0.2872
 3192W        W18323   9.026   0.719  13.302 -0.1172  0.1331 -0.1400
 3193W        W18324  17.615  10.032  10.915 -0.1100  0.1563 -0.0579
 3194W        W18325  12.764  12.800  11.765  0.1101  0.2691 -0.0852
 3195W        W18326   3.242   0.592  14.041  0.0408 -0.1060 -0.1270
 3196W        W18327  11.967  12.964   3.508 -0.0245 -0.2895 -0.2491
 3197W        W18328  16.072   1.966   1.241 -0.1979  0.0398  0.0906
 3198W        W18329  14.270   9.117  11.709 -0.1504 -0.0670 -0.0775
 3199W        W18330   3.226   5.508   5.331 -0.4537  0.4186 -0.3737
 3200W        W18331   0.845   2.251  13.292  0.1616 -0.3332  0.1031
 3201W        W18332  14.893  13.986  10.991  0.1765  0.2276 -0.1025
 3202W        W18333   2.186   0.655   2.262  0.1406  0.1288  0.2843
 3203W        W18334   6.498  17.124  14.593 -0.2044 -0.1233 -0.1677
 3204W        W18335   2.865   7.861   5.244  0.0860 -0.2708 -0.1056
 3205W        W18336   2.772   4.720  14.051  0.0893 -0.0622 -0.3732
 3206W        W18337   0.573  12.470   0.301 -0.1056  0.0734  0.4619
 3207W        W18338   8.852  18.406  13.323  0.1569 -0.0920 -0.0651
 3208W        W18339   5.742   0.335   4.333  0.1848 -0.1932  0.1014
 3209W        W18340   2.167   2.954   0.013 -0.0730  0.0185  0.3499
 3210W        W18341  16.268  17.681   2.021  0.4011  0.1743 -0.0683
 3211W        W18342   4.814   2.905   4.782  0.0785  0.2632  0.2179
 3212W        W18343  15.045  14.584   0.312 -0.0514  0.0661  0.0565
 3213W        W18344  16.997  10.072   1.915 -0.4099  0.2449 -0.2769
 3214W        W18345   3.566  14.779  11.226  0.0169 -0.1329 -0.0373
 3215W        W18346  15.978   2.996  12.854  0.0336  0.2501 -0.1234
 3216W        W18347  11.700  16.733   2.927  0.1207 -0.0596  0.1430
 3217W        W18348   8.292  12.552  14.723  0.1574 -0.1650  0.0475
 3218W        W18349   0.848   8.226   3.732  0.0732 -0.0556  0.1462
 3219W        W18350   2.772   5.742  11.308 -0.0109  0.0658 -0.1138
 3220W        W18351   3.082  16.741  14.020  0.2485 -0.1891 -0.0033
 3221W        W18352  12.541  12.193   1.795  0.0885 -0.0759 -0.2391
 3222W        W18353  18.713   5.506  14.893  0.0610 -0.1818  0.1738
 3223W        W18354  10.342   9.492   3.721 -0.2951 -0.1678 -0.2528
 3224W        W18355   8.756   0.170   0.367 -0.0442  0.1362  0.0814
 3225W        W18356   1.003   0.080  11.597  0.2548 -0.0425  0.0185
 3226W        W18357   9.793   2.883   2.824  0.2026 -0.0998 -0.0819
 3227W        W18358  16.561  17.967   3.773  0.1534 -0.3135 -0.1081
 3228W        W18359  13.768  14.489  10.337 -0.1017 -0.2238 -0.0590
 3229W        W18360  11.329   7.572  11.491  0.2296 -0.1917  0.3089
 3230W        W18361   9.812  11.826  14.435 -0.0377  0.0056  0.0175
 3231W        W18362   6.667  11.814  12.806  0.0317 -0.0196 -0.2668
 3232W        W18363  15.571   3.253   1.695 -0.2355  0.2659 -0.0711
 3233W        W18364  11.641   8.940  14.857  0.0324  0.0824 -0.1016
 3234W        W18365  11.504   6.075   0.770 -0.1029 -0.4297 -0.1102
 3235W        W18366  18.512   3.745   0.793 -0.2535  0.1259 -0.1396
 3236W        W18367   0.219   3.603   3.075 -0.4054  0.2671 -0.1255
 3237W        W18368   3.943  11.167  11.716  0.1939  0.0502 -0.1010
 3238W        W18369   1.072   0.996   1.802 -0.0621  0.0394 -0.1173
 3239W        W18370  14.323   8.295  10.655 -0.0537  0.3319 -0.2802
 3240W        W18371  12.505   8.437  14.891 -0.0172  0.2078  0.0343
 3241W        W18372  14.890   9.251   3.535 -0.0533  0.0114 -0.1531
 3242W        W18373  16.240   1.026   5.220  0.2874 -0.1239  0.0235
 3243W        W18374   3.321  18.606   3.590 -0.1532 -0.0991  0.1161
 3244W        W18375  16.245   9.103   0.471 -0.0771 -0.0149  0.0045
 3245W        W18376  13.580   0.911  15.616 -0.0168  0.2095 -0.1731
 3246W        W18377   7.044   0.278  15.569 -0.2008 -0.2258  0.1559
 3247W        W18378   3.213   6.779   4.506  0.4656  0.0400 -0.0181
 3248W        W18379  18.526   7.245   4.425 -0.0439 -0.1629 -0.0653
 3249W        W18380   4.815   7.979  13.173  0.3000 -0.0653 -0.1402
 3250W        W18381   2.088  17.356   2.723 -0.1044  0.2460 -0.3289
 3251W        W18382  13.708   0.542  11.485 -0.2214 -0.1304  0.0436
 3252W        W18383  12.361   2.943   0.616 -0.0736 -0.0110  0.0630
 3253W        W18384   3.223  11.899  15.194  0.0000  0.0920 -0.1845
 3254W        W18385  10.605   3.456   3.017 -0.1428 -0.0263  0.0984
 3255W        W18386  11.990  12.559  14.416 -0.0684 -0.1512 -0.1077
 3256W        W18387   1.445   9.028   0.426 -0.1325 -0.0390  0.2151
 3257W        W18388   9.144  18.285   4.501 -0.1327 -0.2949 -0.0799
 3258W        W18389  10.956   7.702  15.152 -0.0778  0.0145 -0.1911
 3259W        W18390   6.729   7.666   2.639 -0.3300 -0.2358  0.3160
 3260W        W18391   5.664  17.954   2.512 -0.3458  0.0825 -0.0540
 3261W        W18392   4.298  13.575   3.753  0.0179 -0.0864 -0.0417
 3262W        W18393  16.897  13.464  15.784  0.0023  0.0347 -0.3005
 3263W        W18394  16.888   9.203  14.024 -0.1914  0.0602  0.2520
 3264W        W18395   9.703   6.961   2.685 -0.0430  0.1353  0.0500
 3265W        W18396  12.405   4.244   4.486 -0.3141 -0.0102  0.0833
 3266W        W18397  13.122  13.544  11.427 -0.2654 -0.2494 -0.4006
 3267W        W18398  11.191  11.292  11.486  0.2470 -0.0711  0.0740
 3268W        W18399  11.092   5.495   2.026  0.0691  0.0479 -0.1177
 3269W        W18400  18.096  15.742  12.213 -0.2399  0.0204  0.3087
 3270W        W18401  11.338   6.888  13.282  0.1143 -0.0641 -0.0920
 3271W        W18402  14.738   8.441   2.848 -0.0202 -0.1085 -0.0117
 3272W        W18403   8.498  18.415  11.966  0.0125 -0.0005  0.0769
 3273W        W18404  13.566   3.880   5.719  0.1307 -0.1563 -0.2694
 3274W        W18405  16.073  14.797  11.360 -0.1725  0.1226  0.3210
 3275W        W18406  11.727  17.891   2.005  0.0475 -0.0440  0.1133
 3276W        W18407  17.311  10.261   4.375 -0.2342 -0.1882  0.1563
 3277W        W18408   9.640  15.510  10.730 -0.1071  0.1536 -0.4029
 3278W        W18409  16.554   6.283  13.424  0.0574 -0.0402  0.2493
 3279W        W18410   5.751   1.411   2.631 -0.1390 -0.0302  0.0825
 3280W        W18411   5.184   0.567   6.135 -0.2807 -0.0708 -0.0021
 3281W        W18412  18.209   5.751   2.744  0.4170 -0.3776 -0.1075
 3282W        W18413   3.548  12.935  14.176 -0.0574  0.2941 -0.0524
 3283W        W18414   7.957   7.841   3.140  0.2959  0.0460 -0.2408
 3284W        W18415  12.577   9.163  12.908 -0.0756 -0.0596 -0.3480
 3285W        W18416   9.638   8.460   4.793 -0.3041 -0.1405 -0.0258
 3286W        W18417  15.313  18.570   2.494 -0.2410  0.0214  0.1001
 3287W        W18418   1.148  17.015   0.366  0.2622 -0.0032 -0.3016
 3288W        W18419  16.952  15.196  14.512  0.0848 -0.2032  0.3745
 3289W        W18420  18.005  17.418  13.108  0.1483 -0.0540 -0.1078
 3290W        W18421  10.110  14.769  10.840 -0.0354 -0.0576 -0.1153
 3291W        W18422   8.645   2.642   3.590 -0.0252 -0.0322  0.1014
 3292W        W18423   5.531   5.433   0.961 -0.0333 -0.3734  0.3433
 3293W        W18424  16.176   0.587  15.095 -0.1591 -0.0451 -0.0387
 3294W        W18425  17.876  10.801  14.752 -0.2665  0.3674 -0.1254
 3295W        W18426   0.037  17.457  10.817  0.3847 -0.0867  0.1297
 3296W        W18427   0.423  13.858  11.942  0.0772  0.0972 -0.0736
 3297W        W18428   8.634  16.406   2.632  0.0050 -0.1304  0.0988
 3298W        W18429  12.268  14.403  10.968  0.3333  0.1681  0.1915
 3299W        W18430  10.881   1.631  12.427 -0.0297  0.5617  0.2428
 3300W        W18431   9.327  18.362  13.094 -0.0932  0.0505 -0.1690
 3301W        W18432   1.035   5.508   1.569  0.0159  0.2465 -0.1534
 3302W        W18433   9.427  16.850   2.947  0.0631  0.0224 -0.0824
 3303W        W18434   0.064  10.458   4.382 -0.1516  0.0278  0.0010
 3304W        W18435   7.864  11.195   2.723  0.0455  0.3977  0.0003
 3305W        W18436   6.218  15.173   5.304 -0.2536  0.0412  0.3116
 3306W        W18437   0.642   6.991   1.836  0.4740 -0.2040  0.0799
 3307W        W18438   8.715   6.977   1.232 -0.0905 -0.1077 -0.0067
 3308W        W18439  11.350  11.306  10.929  0.3439 -0.2311 -0.1969
 3309W        W18440  15.973   1.542   0.865  0.2257 -0.0367  0.1552
 3310W        W18441  17.449   4.709   1.465 -0.1881 -0.0368  0.1504
 3311W        W18442   2.310   1.244  13.942 -0.2035  0.0410 -0.4132
 3312W        W18443  13.217   7.931   0.797  0.0513  0.0511 -0.0488
 3313W        W18444   1.502  17.435   5.422 -0.0214 -0.0249  0.4316
 3314W        W18445  18.593  17.580  13.294 -0.0175  0.0950 -0.2118
 3315W        W18446  14.189   1.450   2.467  0.1188 -0.0548 -0.0883
 3316W        W18447  10.868   0.028   4.687 -0.1131 -0.0770 -0.2067
 3317W        W18448  18.068   4.611  12.835 -0.0793  0.2536 -0.0443
 3318W        W18449   8.185   5.516  13.113 -0.0537  0.0757  0.0181
 3319W        W18450   2.945  14.241  11.788  0.2041 -0.0952  0.2355
 3320W        W18451   6.478  13.010  15.234 -0.0442 -0.2041  0.2413
 3321W        W18452  17.804  11.406   4.694 -0.2491 -0.3740  0.0335
 3322W        W18453  14.294  16.645  10.115 -0.1587 -0.1405  0.2899
 3323W        W18454  15.240  12.728   1.160  0.0220 -0.0976  0.0450
 3324W        W18455   0.890  12.768   1.945 -0.0430 -0.1061 -0.0232
 3325W        W18456   6.852   0.065   2.774  0.0293 -0.0140 -0.2402
 3326W        W18457   4.714  17.357   2.312  0.1893 -0.1045  0.1407
 3327W        W18458   3.475   4.247  14.369  0.1309 -0.1116  0.0174
 3328W        W18459  15.295   0.456   1.702 -0.3586  0.2956 -0.1095
 3329W        W18460  17.172   3.852  13.678 -0.1153 -0.2010  0.0506
 3330W        W18461   1.649   9.458   0.621 -0.0726  0.0981 -0.1414
 3331W        W18462   8.624  14.503   4.833  0.2044  0.2026  0.5278
 3332W        W18463   6.760   2.413  13.178 -0.0377 -0.0753 -0.1897
 3333W        W18464   3.001  10.415  12.469  0.1810  0.0433 -0.2477
 3334W        W18465   0.276   2.968  14.466  0.2623 -0.0908 -0.1315
 3335W        W18466  14.323   8.297  15.435  0.1870 -0.4091  0.1072
 3336W        W18467   2.691   8.660  11.486 -0.1606  0.1731  0.1396
 3337W        W18468  12.839   1.668   4.020 -0.1550 -0.4342 -0.1855
 3338W        W18469   0.698  12.614  13.733  0.0639 -0.1223 -0.2347
 3339W        W18470   4.704  14.799  12.961 -0.0681 -0.0431  0.1414
 3340W        W18471   9.358   0.085  13.374  0.3219  0.0240 -0.3274
 3341W        W18472   5.443   4.207  11.564 -0.2464  0.0979 -0.3771
 3342W        W18473   4.341  14.644  13.401 -0.0435  0.2003 -0.0969
 3343W        W18474  10.905   1.805  13.017 -0.2563 -0.0050  0.2103
 3344W        W18475   1.300  17.540  10.018 -0.2305 -0.1403 -0.3022
 3345W        W18476   0.711  13.415  15.339  0.0557 -0.1188 -0.0436
 3346W        W18477   3.952   1.487  14.930 -0.2448 -0.2960 -0.1376
 3347W        W18478   1.658  12.857   1.291  0.0907  0.1496 -0.3041
 3348W        W18479   8.055   9.483   2.829  0.2133  0.0102 -0.2087
 3349W        W18480   0.563  16.845   3.673 -0.1770 -0.1367 -0.3041
 3350W        W18481   9.977  11.942  13.110 -0.0684  0.0506 -0.0791
 3351W        W18482   0.588   7.329  13.672 -0.2062 -0.1581  0.1093
 3352W        W18483  13.713  14.456   3.253 -0.1948 -0.1102 -0.0506
 3353W        W18484   5.180   4.479  14.230 -0.3839  0.3513  0.1858
 3354W        W18485  14.265  14.586  13.805  0.0292 -0.0152  0.1515
 3355W        W18486  17.412  18.547   3.718  0.0897 -0.0266  0.0050
 3356W        W18487   3.177   2.249   4.351 -0.0944 -0.1324  0.1676
 3357W        W18488  15.625  18.260  15.629  0.1199  0.1454 -0.0986
 3358W        W18489   1.099   5.115  13.791 -0.2132 -0.3277 -0.3016
 3359W        W18490  17.270  14.915   5.345  0.0150 -0.1389 -0.0517
 3360W        W18491  17.055  10.962  12.611  0.1624  0.1448  0.2916
 3361W        W18492   4.591   5.242   0.839 -0.2838 -0.3839  0.3060
 3362W        W18493  14.697   8.490  13.241 -0.2498 -0.4198  0.2629
 3363W        W18494   9.680   7.544  11.676 -0.0884 -0.0790 -0.0752
 3364W        W18495   0.155   6.995  14.460 -0.1682 -0.1487  0.1786
 3365W        W18496   0.008   5.441   4.005 -0.1678  0.0040 -0.1000
 3366W        W18497  15.219   2.951   6.022 -0.0601 -0.2142 -0.0174
 3367W        W18498   8.766   5.474   2.245 -0.0574  0.1558 -0.0519
 3368W        W18499  13.301   2.630  12.773 -0.1173 -0.1554 -0.1089
 3369W        W18500  11.664  15.884  12.682 -0.0263 -0.0023 -0.1778
 3370W        W18501   2.790  10.039  11.235  0.3903 -0.1526 -0.0401
 3371W        W18502   8.243  16.045   2.890  0.0332  0.1736  0.3502
 3372W        W18503  10.081   9.922   4.602 -0.3228  0.0327  0.0222
 3373W        W18504   0.713  10.219   0.202  0.1709 -0.2116 -0.2154
 3374W        W18505   8.887  12.009   1.877  0.2266 -0.0248  0.1672
 3375W        W18506   4.653  17.017  13.442  0.1855 -0.3337 -0.4446
 3376W        W18507   0.198  14.738  10.690  0.3407  0.3666 -0.2479
 3377W        W18508  11.672  10.981  11.897 -0.0409  0.3635 -0.1288
 3378W        W18509  12.222   9.436  12.576  0.2089  0.0892 -0.0362
 3379W        W18510  16.382  13.699   5.331 -0.0213  0.2895  0.0679
 3380W        W18511   8.606  10.498  10.932  0.0071 -0.2003 -0.1136
 3381W        W18512   3.338   8.065   1.519 -0.3624 -0.0587  0.2736
 3382W        W18513  16.773  17.529   1.938 -0.1667  0.3697  0.2992
 3383W        W18514   5.868  15.672   2.172 -0.3292  0.2360 -0.0942
 3384W        W18515   2.128   1.620   0.815  0.2865 -0.0295  0.0562
 3385W        W18516  10.332  10.977  15.166  0.0815 -0.4164 -0.0487
 3386W        W18517   0.026   1.885   2.102  0.3281  0.1950  0.0663
 3387W        W18518   3.508  17.908   1.760 -0.0205  0.0291  0.0227
 3388W        W18519   9.351  10.192  14.010  0.2771 -0.0453  0.0136
 3389W        W18520  18.292   8.531   4.483  0.0621  0.0405  0.0748
 3390W        W18521   7.526  13.978  14.029  0.1875  0.3364 -0.1067
 3391W        W18522   2.186  12.828  11.889  0.0028 -0.0010  0.0633
 3392W        W18523  14.399   4.882  13.213 -0.3590  0.0806  0.0896
 3393W        W18524   5.158  17.155   2.373 -0.2896 -0.1193  0.1012
 3394W        W18525  15.756   6.071   3.911  0.0538 -0.1379  0.4181
 3395W        W18526  17.832   5.017  13.325 -0.3860  0.2172 -0.0249
 3396W        W18527  10.588  12.634  13.570  0.2707  0.0572  0.2678
 3397W        W18528  11.217  11.267   4.659 -0.1106  0.1769 -0.1885
 3398W        W18529  18.312  17.710  10.953 -0.2616 -0.1748 -0.1346
 3399W        W18530   9.099  10.888   1.179  0.0629 -0.1815  0.1235
 3400W        W18531  11.664   2.163   1.723  0.1189 -0.3644 -0.0556
 3401W        W18532  16.331  17.663   4.450  0.0909  0.0763 -0.0918
 3402W        W18533  14.944   3.249  15.472 -0.2201  0.0423 -0.2420
 3403W        W18534   4.858  14.994   0.596  0.0185  0.5418 -0.0798
 3404W        W18535  14.198   8.124  14.577 -0.0176 -0.1608  0.0563
 3405W        W18536  15.114  16.747   2.634  0.0949 -0.0206 -0.0013
 3406W        W18537  15.031   1.343   1.237  0.0537  0.1444  0.2131
 3407W        W18538  10.153  12.981   2.295  0.0399 -0.1212  0.1232
 3408W        W18539  16.170   2.482   0.087  0.1967  0.0476  0.1749
 3409W        W18540   0.558  15.433   0.918 -0.1388 -0.3864 -0.2642
 3410W        W18541  12.250  13.938  10.461  0.2199  0.2513 -0.2214
 3411W        W18542   6.163   4.822  11.012 -0.1369 -0.1259 -0.1578
 3412W        W18543  13.153   6.907  12.221  0.0414 -0.0659 -0.0155
 3413W        W18544   8.971  16.854   0.294 -0.0390 -0.0561 -0.0824
 3414W        W18545   7.552  10.430   3.654  0.0553  0.1082  0.0895
 3415W        W18546   5.199  10.616   3.480 -0.0104  0.1707 -0.5634
 3416W        W18547   8.719  14.464  14.573 -0.1025  0.0322 -0.1061
 3417W        W18548   9.092   3.271  11.340  0.1124  0.2316 -0.0604
 3418W        W18549  11.177  15.747  10.279 -0.3218  0.1277 -0.3433
 3419W        W18550  10.912  17.457   0.868 -0.1532 -0.1984 -0.1556
 3420W        W18551  18.591   7.131  13.772 -0.0254  0.0074  0.1159
 3421W        W18552  15.685   7.809  11.027  0.0189 -0.0658  0.1490
 3422W        W18553  15.357   4.149   2.790 -0.1642  0.0305 -0.1115
 3423W        W18554   1.792   6.600   2.872 -0.1360 -0.1355  0.0549
 3424W        W18555  10.055   3.988   1.313  0.2345 -0.0800 -0.0470
 3425W        W18556   0.643   6.780   4.566  0.0057 -0.3901  0.0821
 3426W        W18557   8.367   8.350   5.034 -0.0189  0.1186 -0.1406
 3427W        W18558  10.701   2.151  15.060  0.0837  0.0114 -0.2341
 3428W        W18559   5.714   7.585   0.196  0.1120  0.1246  0.3355
 3429W        W18560  11.420   9.328   3.009 -0.1260 -0.1199 -0.0841
 3430W        W18561  14.154  11.728   1.709 -0.1122 -0.2116  0.2501
 3431W        W18562  17.072  17.734   1.554  0.2212  0.2133  0.4376
 3432W        W18563   0.384  13.144  12.529 -0.1382  0.2683 -0.1042
 3433W        W18564  12.792   9.643   3.028 -0.2348  0.1623 -0.5550
 3434W        W18565  14.513   0.575  14.331  0.0300  0.1118 -0.0674
 3435W        W18566  18.426  10.110   0.162  0.1006 -0.0677  0.0673
 3436W        W18567   8.551  12.545  15.509 -0.2359 -0.0176  0.1716
 3437W        W18568  10.123   9.703  13.640 -0.0308  0.1378  0.0246
 3438W        W18569  17.810  11.343   1.139  0.1324 -0.4013 -0.1873
 3439W        W18570   6.880   5.100  13.755 -0.2284  0.1112 -0.0664
 3440W        W18571  12.219   8.242   4.900 -0.1516  0.1228 -0.0007
 3441W        W18572  12.806  10.223  12.219 -0.1895 -0.4712  0.1148
 3442W        W18573   3.251  14.659   5.900  0.2069  0.0836 -0.0237
 3443W        W18574   3.507   2.585  14.855  0.1610 -0.2224  0.2326
 3444W        W18575  10.842  16.399   2.433  0.1221  0.0851 -0.1474
 3445W        W18576  13.115   9.186  12.955  0.0592 -0.0581  0.1476
 3446W        W18577  16.855  12.564  14.973 -0.0207 -0.1435  0.1724
 3447W        W18578  11.210   2.709   2.224  0.2853 -0.1012 -0.2257
 3448W        W18579  10.666  17.235  10.079  0.1537 -0.1862 -0.1073
 3449W        W18580  16.262  13.807  13.093  0.0501 -0.2061 -0.0803
 3450W        W18581   5.640   5.984   2.070  0.2674 -0.1915 -0.2308
 3451W        W18582  15.067   7.431   2.026 -0.2561  0.4123  0.0066
 3452W        W18583  13.239  15.157   1.411  0.1307 -0.0118 -0.1152
 3453W        W18584   6.609  16.419   6.204  0.0484 -0.2349 -0.2523
 3454W        W18585  15.393   8.250  12.611 -0.1692 -0.0198 -0.3370
 3455W        W18586   2.021   3.668   3.773 -0.2104 -0.1616 -0.0241
 3456W        W18587  17.176   4.064   3.774 -0.0393 -0.4926  0.6460
 3457W        W18588  18.103  13.040  13.579 -0.3648  0.2553  0.1877
 3458W        W18589   2.892   6.764  14.817 -0.2974  0.1978  0.1984
 3459W        W18590   4.386  15.065   0.519  0.2543 -0.1132 -0.0007
 3460W        W18591  10.570  18.514  13.719 -0.3021 -0.2219  0.1668
 3461W        W18592  12.881  18.387   0.153 -0.3042 -0.3023 -0.1610
 3462W        W18593   0.907  12.577   3.095  0.1272  0.0873 -0.0085
 3463W        W18594  12.596  16.542  12.012 -0.0257 -0.0948  0.1607
 3464W        W18595  10.480   8.668  10.985 -0.1211 -0.2378  0.3927
 3465W        W18596   0.047  17.833  14.333  0.2495  0.1445 -0.0214
 3466W        W18597  17.402  18.113  14.450 -0.1157 -0.0464  0.2195
 3467W        W18598  11.779   8.384  11.373 -0.2789 -0.1077 -0.1515
 3468W        W18599  14.379  14.390   3.970 -0.2059 -0.1195 -0.1130
 3469W        W18600  11.134   1.533   5.127  0.0073  0.1038 -0.1721
 3470W        W18601   5.347   1.337  15.573 -0.1571 -0.0605 -0.0948
 3471W        W18602   5.939  17.109   3.155 -0.0769 -0.0694 -0.0472
 3472W        W18603   2.366   6.144   0.255  0.0856 -0.1404  0.0013
 3473W        W18604   9.863  16.610   2.090  0.4762  0.0488 -0.1233
 3474W        W18605   8.302   5.721   3.650 -0.1001  0.0987  0.2634
 3475W        W18606   2.428  12.380  11.835  0.1850  0.1262  0.2434
 3476W        W18607  15.950   6.689  11.354  0.3048 -0.1887 -0.0589
 3477W        W18608   3.110   1.848   5.781  0.2015 -0.2118  0.2059
 3478W        W18609  15.927  10.770   3.940  0.3114  0.0191 -0.3153
 3479W        W18610  14.760  13.136   3.869 -0.2549  0.1449 -0.1491
 3480W        W18611   9.310   9.752  11.043 -0.0173 -0.1855  0.0189
 3481W        W18612   7.221  15.901   1.774  0.0228  0.1150 -0.0245
 3482W        W18613  18.694  16.550   3.168 -0.3835 -0.0165  0.2110
 3483W        W18614  16.494  13.469  12.822  0.1078 -0.3353  0.1927
 3484W        W18615   7.922  16.465   2.197  0.0078  0.0151  0.2327
 3485W        W18616  17.260   2.460  14.227 -0.0645 -0.0659 -0.0560
 3486W        W18617   8.971  18.650   5.560 -0.2629 -0.3110  0.1331
 3487W        W18618  16.317  15.976   3.870 -0.1802  0.2646  0.1910
 3488W        W18619   0.663  14.519   2.342  0.2808 -0.2421 -0.0833
 3489W        W18620  14.201   1.461  11.006  0.0708  0.1831 -0.4037
 3490W        W18621   1.890  14.596  12.572  0.1724  0.0684 -0.1119
 3491W        W18622   3.568   0.018  15.768 -0.1355  0.1322 -0.1530
 3492W        W18623   2.090   4.687   0.862 -0.2247  0.1494  0.1476
 3493W        W18624   2.091   6.306   3.440  0.2508 -0.0906  0.1469
 3494W        W18625  13.925  13.946   1.440  0.0102  0.0779  0.1426
 3495W        W18626  17.102  17.701  13.672 -0.3247  0.2505  0.1214
 3496W        W18627  18.078   5.454  14.222 -0.1424  0.0663  0.0460
 3497W        W18628  15.114   7.352   5.463 -0.2108  0.2127 -0.2106
 3498W        W18629  18.538   7.847   1.878 -0.1009 -0.0928  0.2791
 3499W        W18630  16.839   5.234  14.799 -0.1873 -0.0095  0.2630
 3500W        W18631  16.584   7.669  13.981 -0.1435 -0.6473 -0.3794
 3501W        W18632   3.374  11.730  13.689  0.2447  0.3716 -0.1236
 3502W        W18633  12.930   2.285   2.028  0.0522 -0.0289  0.2437
 3503W        W18634   5.124  10.167  14.245  0.0292  0.0786 -0.2091
 3504W        W18635   8.710   2.674  15.200 -0.2077  0.0526  0.1608
 3505W        W18636  12.582  17.593  13.349 -0.2266 -0.2938  0.0830
 3506W        W18637  16.299   0.204   0.223  0.1703 -0.0417  0.0816
 3507W        W18638   2.155   7.791   4.904 -0.0359  0.0361 -0.0397
 3508W        W18639   0.248   0.661  14.567 -0.3140 -0.0660 -0.1785
 3509W        W18640  17.927  15.866  13.214  0.0575  0.2218 -0.0588
 3510W        W18641  14.139  10.933  10.617  0.2304  0.1187 -0.1682
 3511W        W18642  14.962   3.504   5.493  0.0794 -0.3513 -0.1114
 3512W        W18643   3.455   4.761   3.480 -0.0188 -0.0565  0.2382
 3513W        W18644  17.592  18.510  10.089  0.0715  0.0768 -0.0536
 3514W        W18645   5.233  13.351   3.340  0.2915 -0.2915 -0.3865
 3515W        W18646  14.458  13.438   4.804 -0.0985  0.0075 -0.2459
 3516W        W18647   1.147  13.435  13.981 -0.2763 -0.0536  0.0742
 3517W        W18648  14.190  14.235  13.278 -0.0239  0.2250  0.0534
 3518W        W18649   7.297   9.056  13.061 -0.1462  0.2548 -0.2321
 3519W        W18650   1.027   6.391  13.378  0.5390  0.1484 -0.0635
 3520W        W18651  14.515  13.728  12.160 -0.0231  0.2367  0.1520
 3521W        W18652  11.589  13.843   3.947  0.3819  0.4420 -0.1091
 3522W        W18653  13.696  10.684  10.551  0.1685 -0.1379  0.0485
 3523W        W18654  18.631   4.033   2.923 -0.0515 -0.0380 -0.1056
 3524W        W18655   9.164  11.247  13.885  0.1378 -0.2408 -0.1339
 3525W        W18656   9.463   4.475   2.459 -0.1036 -0.0599 -0.2682
 3526W        W18657  13.481   1.329  14.009  0.3532  0.0363 -0.0491
 3527W        W18658  11.721  17.109  10.472 -0.0526 -0.1082 -0.3466
 3528W        W18659  11.421   0.025  13.141  0.1908 -0.1869 -0.1591
 3529W        W18660   6.256   3.696   4.657  0.0412  0.1365 -0.0607
 3530W        W18661  12.393   1.033   0.157 -0.3140 -0.0172 -0.2815
 3531W        W18662  13.389  18.077  15.216  0.1579  0.1667  0.1480
 3532W        W18663   2.915  15.661   5.597  0.2698 -0.1609 -0.1927
 3533W        W18664   9.284  18.287   3.451 -0.2229  0.1953 -0.3243
 3534W        W18665   3.077  16.080   2.678  0.0106  0.0314 -0.1387
 3535W        W18666  14.019  10.293   1.474 -0.0178  0.1137  0.0494
 3536W        W18667  17.406  14.136  14.796  0.0998 -0.1108  0.0464
 3537W        W18668  14.935   3.276   5.047 -0.1986 -0.0264 -0.1617
 3538W        W18669   8.583  16.327  13.234  0.0155 -0.0963 -0.1208
 3539W        W18670   4.480   3.564  13.844 -0.0198 -0.1863 -0.1028
 3540W        W18671   0.734  17.341  13.146  0.1481  0.1296  0.2432
 3541W        W18672   5.658   9.848   3.734 -0.2425  0.1179 -0.3282
 3542W        W18673  14.236  10.631   2.499 -0.0595  0.3671  0.1660
 3543W        W18674   8.857  16.559   9.840 -0.0550 -0.2371 -0.1718
 3544W        W18675  13.122   9.797  15.530  0.0078  0.3052  0.0324
 3545W        W18676   7.551   7.872   4.751 -0.1185 -0.1338 -0.0929
 3546W        W18677   5.331   3.585  11.917 -0.2501 -0.3629 -0.1090
 3547W        W18678  13.596  14.893  15.554 -0.0054 -0.0081 -0.0524
 3548W        W18679  17.866   4.080   0.192 -0.0728  0.1864 -0.0335
 3549W        W18680  11.997   8.370  14.702 -0.2282 -0.0034 -0.1537
 3550W        W18681   6.147  18.010   2.572  0.2345  0.0175  0.0050
 3551W        W18682  10.837   9.214   2.893 -0.0024  0.1504 -0.0225
 3552W        W18683   3.874   6.249   4.053  0.2288  0.0020 -0.0233
 3553W        W18684   4.810   2.099   0.951  0.0418 -0.2800 -0.0962
 3554W        W18685   4.923   5.563  12.800 -0.1370 -0.3525 -0.1212
 3555W        W18686  10.946  10.666   5.417 -0.2531 -0.0214 -0.0494
 3556W        W18687  15.892  10.514  13.274 -0.1707  0.0137  0.0775
 3557W        W18688   7.086  11.585   5.221  0.0855 -0.0894  0.0606
 3558W        W18689   2.941   5.894   0.787  0.0500  0.2685  0.0025
 3559W        W18690   1.688  16.756   1.162  0.0200 -0.3672  0.1027
 3560W        W18691  14.355   8.854   0.960  0.3151  0.1175  0.1389
 3561W        W18692  10.023   0.064   3.466  0.0175 -0.0024 -0.2227
 3562W        W18693   5.749   5.453  11.883  0.1130 -0.0547 -0.2935
 3563W        W18694   1.419  15.503  12.865 -0.1711  0.0980 -0.3327
 3564W        W18695  15.274   2.779   2.692 -0.1313  0.1645  0.0506
 3565W        W18696  18.108   3.040  15.101 -0.3533 -0.4192 -0.3977
 3566W        W18697  13.430  10.357   3.078 -0.1285  0.3030 -0.4017
 3567W        W18698   4.547  13.871  13.629 -0.0759 -0.0073 -0.2311
 3568W        W18699  13.291   3.431   6.006  0.0866  0.1163 -0.0916
 3569W        W18700  10.647   3.725   0.176  0.1121  0.1693 -0.2408
 3570W        W18701  11.971   1.128  13.578  0.0967 -0.0881  0.2053
 3571W        W18702   8.428   3.466   4.805  0.2519 -0.1605 -0.2010
 3572W        W18703   9.095   8.388   0.264  0.1278  0.0785 -0.1091
 3573W        W18704   6.382   7.521   2.124 -0.2631  0.3768 -0.2889
 3574W        W18705  14.734  16.247  14.809  0.1059 -0.0616 -0.1774
 3575W        W18706   7.993   7.382  11.616 -0.1446  0.0223  0.2206
 3576W        W18707   3.069  17.118  11.821 -0.1460 -0.2330  0.0671
 3577W        W18708   0.713  10.842   0.943 -0.0990  0.1790 -0.0544
 3578W        W18709   3.305  17.395  11.472  0.5359 -0.1027 -0.0318
 3579W        W18710  14.570   7.411   4.830 -0.0582 -0.1085 -0.5171
 3580W        W18711   8.816  15.341   4.838 -0.1639  0.0135 -0.3133
 3581W        W18712   6.036  11.653   5.380 -0.0250  0.0217 -0.2602
 3582W        W18713   5.019  14.323   4.767 -0.0852 -0.0008 -0.1676
 3583W        W18714  12.667   2.017   3.527  0.3328 -0.0260  0.0090
 3584W        W18715   2.486  17.301   1.278  0.0216 -0.1245 -0.4215
 3585W        W18716   4.291   6.759  10.506 -0.0756 -0.0231  0.0114
 3586W        W18717   3.147   5.698  11.605  0.5244  0.1463  0.1136
 3587W        W18718   9.207   9.346   3.700  0.2471  0.2929  0.0474
 3588W        W18719  11.601  16.235   5.015 -0.0190 -0.3848 -0.0113
 3589W        W18720   5.780   4.663  14.870 -0.0923 -0.1540 -0.0723
 3590W        W18721   3.856  15.959  13.870  0.3079 -0.1572 -0.1616
 3591W        W18722  11.814  18.678   2.569 -0.1347  0.1158  0.0281
 3592W        W18723   7.725   9.904  12.056 -0.0109 -0.2383 -0.1054
 3593W        W18724   5.380   9.112   2.308 -0.0701  0.1235 -0.0437
 3594W        W18725  11.931   8.916  10.366 -0.2033 -0.1782  0.0612
 3595W        W18726   7.794   3.616   3.386  0.0161 -0.2199 -0.3245
 3596W        W18727   3.355  16.994   2.089  0.2286 -0.1826  0.0088
 3597W        W18728  13.753  14.052   2.455 -0.0129 -0.3097  0.1411
 3598W        W18729   8.887  17.699   5.280 -0.2955 -0.2483 -0.0940
 3599W        W18730   3.970  10.425   4.589 -0.0748  0.2398  0.0842
 3600W        W18731   7.825  13.855  10.717  0.1716 -0.2693 -0.0277
 3601W        W18732   7.644  10.600   3.174  0.3477 -0.1028  0.3322
 3602W        W18733   3.854  13.595  14.861 -0.0057  0.2466  0.5091
 3603W        W18734  11.186   0.887   1.518  0.0175 -0.1468 -0.0893
 3604W        W18735  12.083  10.763  12.211  0.0572 -0.0727  0.1820
 3605W        W18736  12.366   4.614  15.320 -0.3867 -0.4405 -0.0822
 3606W        W18737  12.509   7.837   3.897  0.1358  0.0861 -0.1187
 3607W        W18738   1.980  13.891  14.877 -0.1802  0.0917 -0.0148
 3608W        W18739   2.365  12.534  11.011 -0.0639 -0.0202 -0.0424
 3609W        W18740   7.587  16.294   5.239 -0.3642 -0.1752 -0.0604
 3610W        W18741   7.564   4.771   9.972 -0.1724 -0.2809  0.0147
 3611W        W18742   0.276   3.554  10.992 -0.0511 -0.0579  0.1226
 3612W        W18743  17.789  12.491  14.522  0.3388  0.1443  0.2827
 3613W        W18744  12.794   7.667   2.941 -0.0723  0.1174 -0.1620
 3614W        W18745   5.478  17.017   2.813 -0.2625 -0.0103 -0.1054
 3615W        W18746   7.101   0.533  15.113  0.1923  0.0553  0.0219
 3616W        W18747  11.912   7.509  15.030  0.1385  0.0417  0.0774
 3617W        W18748  17.783   9.826  12.787 -0.0437 -0.1432  0.1618
 3618W        W18749   5.903   9.750  14.507 -0.0325  0.1144 -0.0073
 3619W        W18750   5.016   2.005  11.157 -0.0003  0.2708 -0.2515
 3620W        W18751  11.560  16.855  12.816  0.1494 -0.1342 -0.0940
 3621W        W18752   8.577  14.961  13.917 -0.2071 -0.0289  0.2292
 3622W        W18753   6.911   7.492   3.466 -0.2325 -0.0140  0.0458
 3623W        W18754  17.341  18.496  13.246  0.0756  0.1108 -0.1804
 3624W        W18755  16.720  17.142  13.293  0.0141  0.0618 -0.0829
 3625W        W18756   8.167   2.688  14.898 -0.0604 -0.1477  0.3057
 3626W        W18757   9.822  15.175  11.984 -0.3439  0.0553  0.0183
 3627W        W18758  18.530  11.498   4.025 -0.0397  0.3155 -0.2200
 3628W        W18759  14.213  15.525   1.797  0.0570  0.1769 -0.2250
 3629W        W18760   7.095  14.974  14.608  0.3288  0.0749  0.3278
 3630W        W18761  16.281  15.159   2.670 -0.2418 -0.0545 -0.0949
 3631W        W18762  12.945  10.196   3.127 -0.2179 -0.0755 -0.0318
 3632W        W18763   8.108  10.346  12.081  0.0273  0.1757 -0.0093
 3633W        W18764   6.378  17.532  15.525 -0.0165  0.0723 -0.2532
 3634W        W18765   0.681  11.752   5.146 -0.0382  0.2323  0.0946
 3635W        W18766   5.227  16.661   5.159 -0.0660  0.5080 -0.2315
 3636W        W18767  12.868   9.738   1.944  0.1633 -0.2295  0.0631
 3637W        W18768   9.097   6.157  14.368  0.1584  0.2993 -0.0546
 3638W        W18769   9.693  16.135  10.065  0.2352  0.2700 -0.3643
 3639W        W18770  13.347  10.242   0.505  0.5566 -0.3790 -0.0275
 3640W        W18771  18.701  17.792   4.481 -0.2478 -0.2613 -0.0306
 3641W        W18772   6.637   6.246  12.474 -0.2328  0.0396  0.1224
 3642W        W18773   3.189  18.487  11.291 -0.0102 -0.2201  0.0721
 3643W        W18774   1.717  18.058  15.744 -0.0583  0.2098 -0.1731
 3644W        W18775   6.821   5.014   5.163  0.1956 -0.3168  0.0674
 3645W        W18776   3.716  17.457  13.040  0.0864 -0.1808 -0.2323
 3646W        W18777   2.112  13.235  13.669  0.0175  0.1409  0.0839
 3647W        W18778  16.112  17.868   3.954  0.0111  0.2778  0.0872
 3648W        W18779   2.188  12.024  15.015  0.0018 -0.2367 -0.1983
 3649W        W18780   5.947  14.447  10.407 -0.0930 -0.0772  0.1773
 3650W        W18781  13.385   5.885  14.762  0.0241  0.0785 -0.0514
 3651W        W18782   2.174  15.349   2.489 -0.1919 -0.1749 -0.3361
 3652W        W18783   2.935  10.455   3.915  0.1590  0.2173  0.1369
 3653W        W18784  17.665  15.804   0.460 -0.5552 -0.0530 -0.1305
 3654W        W18785  16.343   1.128  12.009  0.0907  0.1245  0.3022
 3655W        W18786   3.983  13.872   1.236  0.0695  0.1919  0.1910
 3656W        W18787   4.294  13.634   0.833 -0.2129  0.2408 -0.3840
 3657W        W18788   6.327   8.068  11.694 -0.1149 -0.1148  0.1842
 3658W        W18789   8.291  16.054   0.806  0.1248 -0.0610 -0.1093
 3659W        W18790   5.780   9.188   0.272  0.2784 -0.1265  0.2568
 3660W        W18791   0.461  17.945   2.016  0.2397 -0.0619 -0.1891
 3661W        W18792   5.533  13.449  13.243 -0.1309 -0.2132  0.0722
 3662W        W18793   2.772   9.839   1.926  0.0611  0.2300 -0.1364
 3663W        W18794  13.454  10.078   3.781  0.0358 -0.1760  0.0070
 3664W        W18795  13.696  11.502   3.918  0.2023  0.2223  0.2324
 3665W        W18796  10.470   6.757   1.800  0.1042 -0.0682  0.0560
 3666W        W18797   9.489  15.413   0.674 -0.0844  0.0030 -0.1872
 3667W        W18798   0.113  16.221  13.808 -0.1745  0.1507 -0.0615
 3668W        W18799  11.614  17.975  11.281  0.0600 -0.0264  0.2671
 3669W        W18800  14.311   6.685  15.395  0.1782 -0.0612  0.0828
 3670W        W18801   2.766   0.427  12.424 -0.0582 -0.0032 -0.0121
 3671W        W18802   2.011   3.422   5.007  0.0144  0.2395 -0.2481
 3672W        W18803  12.809   4.276   0.733  0.2170 -0.0303  0.1255
 3673W        W18804  16.210   5.675   3.863 -0.1910  0.2274 -0.0760
 3674W        W18805   4.688   3.290   4.345  0.1549 -0.2699 -0.0248
 3675W        W18806  14.865  14.860   2.093  0.3100  0.1720  0.4014
 3676W        W18807   2.182  16.930   4.308 -0.3803 -0.0089  0.1436
 3677W        W18808  15.307  15.053  14.469  0.0812  0.0367  0.2462
 3678W        W18809   3.978   9.567   4.648 -0.0120  0.3054 -0.2114
 3679W        W18810   1.384   7.959   4.220 -0.1256 -0.0035  0.0219
 3680W        W18811  14.082   4.901   4.761 -0.0723  0.2131  0.2175
 3681W        W18812  16.553   2.456  14.684 -0.1264 -0.0015 -0.2045
 3682W        W18813   2.503  16.400  11.703  0.1972 -0.1532 -0.1136
 3683W        W18814  16.147  16.266   2.151  0.0026  0.3206 -0.1996
 3684W        W18815  17.953   2.518  10.517  0.2608 -0.0112  0.0525
 3685W        W18816   9.233   3.834   4.418 -0.3482 -0.0580 -0.0012
 3686W        W18817  13.201   9.798   3.306  0.0694  0.2480 -0.2542
 3687W        W18818  18.090   0.625  11.802  0.2700 -0.0512  0.1219
 3688W        W18819  14.989  16.007   1.231  0.0607 -0.0788  0.3046
 3689W        W18820   5.162  18.268  11.787 -0.1323 -0.1807  0.0184
 3690W        W18821   8.547  18.130  15.763  0.0947 -0.0035 -0.3330
 3691W        W18822   1.471   9.346   4.468  0.2425  0.0306  0.2011
 3692W        W18823  12.318  14.291  13.339 -0.0561 -0.2231  0.3041
 3693W        W18824  14.363  18.358  15.410 -0.1061 -0.2425 -0.0401
 3694W        W18825  13.545   3.884  10.039 -0.2059  0.3979 -0.1452
 3695W        W18826   6.348  17.661   3.404  0.1855 -0.0732 -0.2086
 3696W        W18827  10.888  16.935  12.754  0.1863 -0.0749 -0.1748
 3697W        W18828  17.465  15.711  13.792  0.1125 -0.3908 -0.2053
 3698W        W18829   4.001  14.316   1.607 -0.2419  0.0291 -0.0507
 3699W        W18830  18.566   2.115  14.291  0.0578  0.1608 -0.0956
 3700W        W18831  15.698  18.154  11.315 -0.2570  0.1280  0.3943
 3701W        W18832   5.978   3.685   3.539 -0.1433  0.1873  0.1605
 3702W        W18833   8.874  10.453   3.319  0.2812 -0.1266  0.1629
 3703W        W18834  17.204  13.296  14.390 -0.5397 -0.1644 -0.0074
 3704W        W18835  13.973  13.313  11.555  0.1111 -0.2329 -0.1526
 3705W        W18836   0.296  10.882  13.780 -0.0136  0.1278 -0.1414
 3706W        W18837   5.395   9.887   4.872 -0.2719 -0.0262  0.0031
 3707W        W18838   9.017   2.166  11.535 -0.0856  0.0109  0.0437
 3708W        W18839   1.518   1.681   2.383  0.4182 -0.0807  0.0322
 3709W        W18840  13.772   4.625   3.450  0.1146 -0.0162 -0.1349
 3710W        W18841   7.147   0.578   1.007  0.0497  0.0104 -0.1602
 3711W        W18842  13.245  11.827  15.027  0.0235  0.0131  0.2689
 3712W        W18843   1.732  16.188  14.900  0.0425 -0.3657 -0.0969
 3713W        W18844  10.632  10.678  11.133  0.1438 -0.2069 -0.0342
 3714W        W18845  17.123  10.306  14.528 -0.2006 -0.1651  0.0141
 3715W        W18846  18.680   1.535  13.174  0.1844 -0.0960  0.0656
 3716W        W18847   5.253  11.038  11.185  0.1185 -0.2579 -0.2920
 3717W        W18848  16.825  18.042   3.279  0.1638  0.0806 -0.1151
 3718W        W18849   4.872  18.549   4.131  0.0096 -0.1005  0.2347
 3719W        W18850   1.492  12.768  14.422 -0.2421  0.1515  0.2574
 3720W        W18851   2.979   6.467   2.190  0.2065  0.2498 -0.1572
 3721W        W18852  14.475  11.809  11.247 -0.1518  0.0623  0.4004
 3722W        W18853  10.230   8.417   5.488 -0.1874  0.2584  0.0535
 3723W        W18854  14.432   8.337  12.174  0.0029 -0.1468  0.0606
 3724W        W18855   1.074   3.665  14.535 -0.1112 -0.1746 -0.0083
 3725W        W18856   2.876   2.006   2.831 -0.0680 -0.0747  0.0748
 3726W        W18857  17.449  15.532  12.120 -0.4353  0.1814 -0.3302
 3727W        W18858   4.097   4.329  15.630  0.0755 -0.0791  0.1411
 3728W        W18859   7.416  13.112  13.859  0.2882  0.0654 -0.0975
 3729W        W18860   4.382   9.660   3.072 -0.1666 -0.3113  0.0421
 3730W        W18861   3.572  10.819   1.700  0.0416 -0.0221 -0.0182
 3731W        W18862  11.316   9.402  14.626  0.0076 -0.0746 -0.1930
 3732W        W18863   8.606  17.163   0.367  0.0872 -0.0512 -0.0203
 3733W        W18864   2.129  15.321  14.936 -0.1372  0.0595 -0.0195
 3734W        W18865  16.206   5.558   3.421  0.1263 -0.2575  0.0720
 3735W        W18866  18.639   5.525  14.138  0.1573  0.1194 -0.1877
 3736W        W18867   4.176   3.415   0.229 -0.1526  0.2897 -0.0272
 3737W        W18868   0.919  14.849  14.660 -0.2028 -0.2260  0.0351
 3738W        W18869  17.455   1.009  14.552 -0.0568  0.1540  0.3097
 3739W        W18870   4.029  12.486   5.004  0.0205  0.1643  0.3006
 3740W        W18871  14.790  14.328  10.569 -0.1506  0.0957  0.6300
 3741W        W18872   3.476  10.211   9.902  0.1364 -0.1128 -0.0311
 3742W        W18873   2.414   4.422   0.594 -0.0050 -0.0893 -0.1679
 3743W        W18874  17.109  10.797   3.112  0.2030 -0.2262  0.2986
 3744W        W18875   1.236   1.703  12.436 -0.1409 -0.0384 -0.0118
 3745W        W18876   7.960   3.013   4.136 -0.2715  0.0242  0.1883
 3746W        W18877  15.156  10.088   1.192 -0.3504 -0.0476 -0.0903
 3747W        W18878   2.735  10.185  15.188  0.1178  0.1269 -0.1014
 3748W        W18879  13.567   7.146  11.985 -0.1613 -0.1515  0.1213
 3749W        W18880   8.902  14.554   3.875  0.1490 -0.0594 -0.1054
 3750W        W18881   0.543  11.281  14.016  0.2680 -0.0320 -0.0707
 3751W        W18882  15.707  18.649  14.798  0.1144  0.0504 -0.0321
 3752W        W18883  14.134  15.721  12.061 -0.0752  0.2492 -0.1426
 3753W        W18884   0.099   0.527  11.232 -0.1533 -0.0227  0.1852
 3754W        W18885  11.712   0.212  14.199 -0.1804  0.0453 -0.2207
 3755W        W18886   5.952  11.556   1.385  0.0799 -0.1866  0.3914
 3756W        W18887  16.680  18.690  14.312 -0.2134  0.1108  0.4334
 3757W        W18888  15.569  13.932   4.490 -0.0295  0.0395  0.2734
 3758W        W18889   9.924   5.028  11.134  0.0311  0.1618 -0.0303
 3759W        W18890   8.391  17.739   2.522  0.3115  0.0276 -0.0648
 3760W        W18891   8.427   1.774   2.872  0.1241 -0.0121 -0.0661
 3761W        W18892   7.635   5.844  12.012  0.4872  0.4428 -0.0183
 3762W        W18893  10.095   3.548  10.480 -0.0595 -0.1414  0.1087
 3763W        W18894   7.595  18.136   1.722  0.2260  0.2313 -0.0418
 3764W        W18895   7.372  17.626  12.052 -0.2556 -0.1054  0.0116
 3765W        W18896   8.471   0.565  14.525  0.2026 -0.0217 -0.0482
 3766W        W18897   5.119   7.124   0.484 -0.4418  0.1365  0.2906
 3767W        W18898  17.606  17.459  10.795 -0.1635 -0.1271  0.0708
 3768W        W18899  17.391   1.702  13.421  0.2691 -0.1307 -0.0149
 3769W        W18900  11.918  11.503  12.701 -0.2950  0.1357 -0.1057
 3770W        W18901  14.624  12.394   0.512  0.0296 -0.2247 -0.2512
 3771W        W18902   6.469  11.492   1.629 -0.1795  0.2140  0.1197
 3772W        W18903  12.633   8.861   3.606 -0.4390 -0.0446  0.1318
 3773W        W18904   4.642  11.777   0.921  0.0463 -0.0987 -0.0469
 3774W        W18905  10.663   5.224  13.926  0.3432  0.0097  0.1912
 3775W        W18906   1.040   6.442   1.186  0.2552 -0.0513  0.1741
 3776W        W18907   5.212   3.175   0.615 -0.2560 -0.0206  0.0281
 3777W        W18908  14.027   7.782   4.390 -0.1824 -0.2910  0.1063
 3778W        W18909  11.245  17.882   0.686  0.2547  0.3060  0.1595
 3779W        W18910   2.841   8.164   1.629 -0.0703 -0.4246  0.0620
 3780W        W18911   1.041   1.890   9.996 -0.1241  0.2828 -0.0475
 3781W        W18912  17.069  12.775  14.130 -0.1230  0.1803  0.1431
 3782W        W18913   0.133   8.259   2.372  0.1108  0.3280 -0.0856
 3783W        W18914   7.365  13.779   2.515 -0.0065 -0.2879 -0.0128
 3784W        W18915   7.751   0.404   5.753 -0.1417 -0.0072  0.0476
 3785W        W18916   1.782  15.446   3.903 -0.0789  0.0563  0.3352
 3786W        W18917   6.730  15.936   2.658  0.3067 -0.0059 -0.3461
 3787W        W18918   8.024   9.832   1.007  0.0898  0.1633 -0.2737
 3788W        W18919  14.109   7.914   5.131 -0.3223 -0.1124 -0.1751
 3789W        W18920   9.598   4.165  14.962  0.0074 -0.0743 -0.1127
 3790W        W18921   7.508   7.640  15.008 -0.0975 -0.4078  0.1448
 3791W        W18922  15.622   5.685   9.859 -0.1179 -0.1934 -0.0853
 3792W        W18923   1.278   4.243   3.445 -0.2607 -0.1120  0.1189
 3793W        W18924   7.898   7.091   3.799 -0.1849 -0.4055  0.2706
 3794W        W18925  10.362  12.114  12.770 -0.1542 -0.0905  0.1615
 3795W        W18926   7.385   9.216   1.687  0.2089 -0.0098 -0.4622
 3796W        W18927   3.107  16.880  14.554 -0.2710  0.0892 -0.1837
 3797W        W18928  16.074   2.347   2.060  0.3478  0.1627 -0.1350
 3798W        W18929   3.874  17.619   2.005 -0.1471 -0.1232 -0.2737
 3799W        W18930   0.689  13.818  12.448  0.4708 -0.0720  0.2374
 3800W        W18931   3.632  14.437  12.221 -0.0265 -0.1227  0.0325
 3801W        W18932  18.692  10.574  15.243  0.2960  0.2509 -0.0977
 3802W        W18933  12.576   6.124  13.029  0.2245 -0.0325 -0.0636
 3803W        W18934   6.917  13.370  12.527 -0.2402 -0.0007  0.0907
 3804W        W18935  10.521   1.339  14.655  0.2490 -0.2308  0.2944
 3805W        W18936   2.175   8.786  14.268  0.0910  0.1080  0.1462
 3806W        W18937   6.548  14.956  13.392 -0.0835  0.0892  0.2088
 3807W        W18938   5.396   0.879  12.412  0.0207 -0.1634 -0.0680
 3808W        W18939  10.284   4.540   3.895  0.2306 -0.1567  0.1117
 3809W        W18940  10.869  12.994  13.258  0.1474  0.1534 -0.1282
 3810W        W18941   2.740  13.106   0.072  0.0932  0.1084 -0.0200
 3811W        W18942  17.083  16.186   3.947 -0.3125  0.2114 -0.4901
 3812W        W18943  14.989   8.023  11.612 -0.4644  0.1369  0.1300
 3813W        W18944   0.216  10.785  12.855 -0.0218 -0.2838  0.1562
 3814W        W18945  13.282   6.933   5.798 -0.2269 -0.1354 -0.1417
 3815W        W18946   8.780  16.827   4.241 -0.0076 -0.1339  0.1040
 3816W        W18947   8.846  17.887  15.395  0.2172 -0.1558  0.2015
 3817W        W18948  18.038  16.993  12.804 -0.0698  0.2486 -0.2467
 3818W        W18949  16.190  14.740  14.467  0.1845 -0.2170 -0.2427
 3819W        W18950   6.007  11.410  12.245 -0.2936  0.0371 -0.1652
 3820W        W18951   6.681   3.049  14.421  0.1358 -0.2935 -0.0444
 3821W        W18952  18.045  17.213   1.711  0.1831  0.1384  0.2660
 3822W        W18953   6.474   9.215  14.419  0.2434  0.1774 -0.2494
 3823W        W18954   3.641   5.352  14.053  0.1634 -0.3926  0.0240
 3824W        W18955  13.163   4.292  12.894 -0.0179 -0.2314 -0.0472
 3825W        W18956   5.033   0.094  10.832  0.1006 -0.2409 -0.0163
 3826W        W18957  15.537  14.677  15.740 -0.1023 -0.0652 -0.0962
 3827W        W18958  18.357  14.972   3.216 -0.0333  0.1841 -0.4012
 3828W        W18959  10.043   2.617  10.868 -0.0425 -0.0415 -0.1739
 3829W        W18960  10.876  15.026  12.094 -0.1472 -0.1256 -0.0339
 3830W        W18961   5.589  15.369  12.625  0.0842  0.0195 -0.2445
 3831W        W18962  14.956  13.440  15.300  0.0688  0.0265 -0.0173
 3832W        W18963  16.306   3.798  12.884 -0.0128 -0.2272 -0.1299
 3833W        W18964  16.724   2.632   2.202  0.0928 -0.1844 -0.2622
 3834W        W18965  17.372  14.430  13.902  0.1780  0.1636 -0.1717
 3835W        W18966   9.504   0.484  11.606  0.2219 -0.0950 -0.2971
 3836W        W18967   8.894   4.506  13.331 -0.0767  0.2003  0.1827
 3837W        W18968  11.397  17.226  15.275 -0.1488  0.2041 -0.2105
 3838W        W18969  17.386  11.587   0.710 -0.0407  0.0891  0.0816
 3839W        W18970   3.295   9.235  14.128  0.0094 -0.0447  0.2278
 3840W        W18971   8.447   3.956   4.888  0.2134 -0.2490 -0.1327
 3841W        W18972  11.015  12.209   1.609 -0.1188 -0.3985 -0.0928
 3842W        W18973   5.435   1.477  14.278 -0.1948 -0.1032 -0.2284
 3843W        W18974   4.491   3.749  13.370 -0.0446 -0.1832 -0.0667
 3844W        W18975   5.301  10.193   1.405  0.0040  0.1629  0.4916
 3845W        W18976   9.965   8.277  14.199 -0.1957  0.1008  0.2541
 3846W        W18977  17.939   9.203   1.922  0.0317  0.2601  0.1041
 3847W        W18978  18.543  13.312   5.974 -0.3853 -0.2853 -0.1840
 3848W        W18979   4.996   7.332   0.939 -0.0534  0.0372 -0.2878
 3849W        W18980   6.628  15.044  12.893 -0.0177 -0.0607 -0.1250
 3850W        W18981  10.225  18.184  14.810 -0.0482 -0.0102 -0.2595
 3851W        W18982   4.887   2.755  13.489 -0.2004 -0.3071 -0.1963
 3852W        W18983  16.746   1.260   1.871  0.3267  0.2014 -0.3710
 3853W        W18984   1.297  11.511   4.010 -0.1624  0.0071  0.0289
 3854W        W18985  10.776   8.893  12.697 -0.3603 -0.3516 -0.0868
 3855W        W18986  11.750  14.276   3.052  0.4155  0.0074 -0.3739
 3856W        W18987   3.375   6.469   5.249  0.1003 -0.0457  0.0395
 3857W        W18988   0.110  10.764  14.801 -0.2717 -0.0928 -0.2176
 3858W        W18989   6.618   9.738  13.017 -0.0349  0.1438  0.0760
 3859W        W18990  11.780   6.066  10.246 -0.0676  0.0191  0.0095
 3860W        W18991   6.397  16.002  15.263 -0.2543 -0.0307  0.1511
 3861W        W18992  11.599  16.104  12.061  0.4988 -0.1103  0.2426
 3862W        W18993   9.883  10.170  14.304 -0.2952  0.2683  0.1584
 3863W        W18994   5.116  15.154   5.192  0.1680 -0.2440 -0.1373
 3864W        W18995  11.305   0.321   3.388 -0.0823 -0.1482  0.2249
 3865W        W18996  17.183   9.432   4.079  0.0286 -0.0713  0.0615
 3866W        W18997  10.123  16.586   1.312 -0.0698 -0.3144  0.0506
 3867W        W18998  10.689   3.167   4.015  0.1572  0.1660  0.1833
 3868W        W18999   1.745  12.904   2.306  0.0851  0.1358  0.3008
 3869W        W19000  14.954  13.567   2.335  0.2000  0.4431  0.0720
 3870W        W19001   5.592  18.305  15.604  0.2755  0.1851 -0.0505
 3871W        W19002  16.816   7.541  12.482 -0.0288  0.0823  0.1284
 3872W        W19003   6.504   1.507  12.804 -0.0169 -0.1880  0.1558
 3873W        W19004  16.884   2.777  14.392  0.0135 -0.3277 -0.1651
 3874W        W19005  16.970   5.851   0.067  0.1198  0.1949  0.1092
 3875W        W19006  14.111  11.169   3.030  0.2948  0.0100  0.0087
 3876W        W19007  16.375   7.787   4.718  0.1912  0.0162  0.1371
 3877W        W19008   4.205  18.022   2.776  0.0871  0.3237  0.1597
 3878W        W19009   8.642   0.684  11.493 -0.2990 -0.3378  0.0641
 3879W        W19010   6.067  12.124   2.603 -0.2414  0.0541 -0.3891
 3880W        W19011   5.948   6.713   4.990 -0.2579 -0.1574 -0.0476
 3881W        W19012  10.126  11.781  11.842 -0.3020 -0.0494 -0.0908
 3882W        W19013  11.157  11.393   0.292 -0.0277 -0.0409  0.1269
 3883W        W19014   3.418   5.130   3.802  0.3818  0.0491 -0.1898
 3884W        W19015  17.963  12.688  11.767  0.3684  0.0370  0.3753
 3885W        W19016  10.623  11.914   3.137  0.4533  0.0620 -0.1634
 3886W        W19017   5.943   2.341  13.967  0.0961  0.3711  0.1480
 3887W        W19018  12.335  10.980   0.076 -0.0954  0.2783 -0.1174
 3888W        W19019   3.258   4.780   4.786 -0.3073  0.1612  0.1255
 3889W        W19020   2.572  10.208   3.585  0.2873 -0.1293  0.1120
 3890W        W19021  10.796   3.758  11.285  0.0607  0.0996  0.0744
 3891W        W19022  13.226  11.411  14.683 -0.2430  0.0994 -0.4113
 3892W        W19023  10.944   2.196  11.263  0.0850 -0.3101  0.1796
 3893W        W19024   5.065   5.374  13.904 -0.0868 -0.0618  0.3889
 3894W        W19025  10.517  16.385  13.109 -0.1100 -0.0367 -0.2706
 3895W        W19026  17.120  16.153  11.756 -0.2864  0.0083  0.0028
 3896W        W19027  13.772  15.430   3.591  0.3838  0.0926  0.0808
 3897W        W19028   8.395  15.007   1.764  0.0506 -0.1363  0.2229
 3898W        W19029   4.766  13.836  12.621 -0.2767 -0.0655  0.0253
 3899W        W19030   4.080   3.546  14.424  0.2270  0.1343 -0.0462
 3900W        W19031   8.458  12.353   4.475  0.0334  0.1530 -0.4815
 3901W        W19032   5.164  11.791  14.735 -0.1686 -0.0103 -0.1972
 3902W        W19033  14.282   6.393   5.447  0.1768  0.1302 -0.1124
 3903W        W19034  14.453   5.654   1.561 -0.1150 -0.2244 -0.1670
 3904W        W19035  18.381   9.889   4.837  0.1457 -0.2685  0.0335
 3905W        W19036   9.060  10.324   1.577 -0.0003 -0.0487  0.3167
 3906W        W19037   6.837   8.920  15.127 -0.1442  0.3265 -0.0132
 3907W        W19038  15.007   1.594  12.466 -0.0553 -0.2260 -0.1080
 3908W        W19039  10.201   8.392   1.417  0.3167 -0.1732 -0.1441
 3909W        W19040   6.616   7.660  14.452 -0.5229 -0.3711  0.0946
 3910W        W19041  15.271  14.919   0.655  0.2635 -0.1001 -0.2061
 3911W        W19042  12.767   7.779   5.967  0.1238 -0.1770  0.0954
 3912W        W19043  16.650   5.691   3.214  0.0488  0.6617  0.1771
 3913W        W19044   0.068  14.886   1.457  0.3777  0.1617 -0.3847
 3914W        W19045  14.204   9.275   0.698  0.2140 -0.1468  0.0541
 3915W        W19046   8.405  13.086  14.648 -0.0538  0.0298 -0.0311
 3916W        W19047  10.378   0.216   0.532 -0.3115  0.1756  0.1721
 3917W        W19048  12.279  12.496   2.068  0.3243 -0.0709  0.1313
 3918W        W19049  18.101   3.846   5.590 -0.1232  0.0113 -0.1260
 3919W        W19050   5.344   3.106   3.772  0.0605  0.0362 -0.0999
 3920W        W19051  17.077  16.691   4.080  0.3561  0.0163  0.0004
 3921W        W19052  18.031   6.025   2.175 -0.1193  0.4214  0.2237
 3922W        W19053  15.644   1.617   4.679 -0.1200 -0.1768  0.0022
 3923W        W19054   1.450   9.972  12.511 -0.4926  0.0887 -0.2320
 3924W        W19055   6.656  10.649   4.808 -0.0703  0.3819  0.1041
 3925W        W19056   3.294  13.439  10.832 -0.0301  0.2053 -0.4116
 3926W        W19057   2.318  10.703   1.808 -0.1703 -0.0924  0.2780
 3927W        W19058  18.320  15.732  14.822  0.0015 -0.0172  0.2897
 3928W        W19059  17.216  13.636  15.170  0.1988  0.1826 -0.3080
 3929W        W19060  17.662  18.029   0.280 -0.1582 -0.0306  0.1306
 3930W        W19061   0.469  14.524  13.077  0.1306 -0.1598 -0.2215
 3931W        W19062  16.958  12.805  13.203 -0.0076  0.1973  0.1933
 3932W        W19063   3.826   0.410  13.236  0.0631 -0.0953  0.2065
 3933W        W19064   3.366   7.409  15.480 -0.0402 -0.1661 -0.0196
 3934W        W19065  15.517  17.195   3.053  0.0543 -0.0543  0.0875
 3935W        W19066   6.020   5.608   1.745  0.1481  0.0613  0.1150
 3936W        W19067  14.188  18.013   2.864  0.0582  0.2226 -0.5423
 3937W        W19068  16.812   2.257  14.252  0.0428  0.0220  0.0020
 3938W        W19069  18.516  17.359   3.146 -0.0206  0.0209  0.1017
 3939W        W19070  17.409   3.267  13.542 -0.2533  0.0089  0.1188
 3940W        W19071  16.492   1.502  10.442 -0.0005 -0.2977  0.4046
 3941W        W19072   1.723  14.482   5.025 -0.4886 -0.0485  0.2659
 3942W        W19073   4.533  11.811  11.607  0.2267  0.1241  0.1718
 3943W        W19074  18.104   9.712   9.472  0.1249 -0.0364  0.0933
 3944W        W19075  12.898  11.438  13.585 -0.2039  0.0986 -0.1074
 3945W        W19076  17.351   6.639  13.110  0.2460 -0.1518 -0.0797
 3946W        W19077   0.428   4.139  13.742 -0.1753  0.0572 -0.1783
 3947W        W19078   6.952  10.400   2.912  0.0617 -0.1093 -0.0277
 3948W        W19079   6.087  11.919   0.851  0.1363  0.1863  0.1945
 3949W        W19080  12.316  15.320   2.683  0.0506 -0.2921 -0.0790
 3950W        W19081   8.338  17.488   9.990  0.0925  0.4407 -0.0454
 3951W        W19082   7.399   0.456  12.636 -0.0540 -0.1437  0.0458
 3952W        W19083   8.327  10.979  10.511 -0.2030  0.3018  0.1808
 3953W        W19084   7.419   3.099   4.073  0.0426  0.1460 -0.1753
 3954W        W19085  15.592  11.971  10.956 -0.1443 -0.2303 -0.0616
 3955W        W19086   2.365  18.199   4.509 -0.2140 -0.0078 -0.1191
 3956W        W19087   0.577   2.006   0.350 -0.0688 -0.0014  0.2801
 3957W        W19088  15.284   1.033  14.155 -0.2065 -0.0138 -0.1331
 3958W        W19089   1.828  17.635   0.661  0.0078 -0.3236  0.1720
 3959W        W19090   0.015   3.645  12.415  0.0955  0.3391 -0.1985
 3960W        W19091  17.419  14.247   0.461 -0.0571 -0.2231 -0.1438
 3961W        W19092   4.128   9.988  15.732  0.1607  0.0900  0.0443
 3962W        W19093   8.345   4.768  15.536  0.1810 -0.0273  0.0552
 3963W        W19094  16.370   1.219   1.586  0.2144 -0.1387  0.0162
 3964W        W19095  16.434  15.821   3.353  0.0726  0.0602 -0.0478
 3965W        W19096   7.660   5.353   4.292 -0.0810  0.2021  0.4129
 3966W        W19097   8.751  14.107   0.883 -0.0959 -0.2225 -0.0390
 3967W        W19098   3.371  15.414   9.892  0.0259  0.1583  0.0828
 3968W        W19099   1.671  10.510   2.383  0.0080 -0.1823  0.1726
 3969W        W19100  10.863   1.346   3.389 -0.2259  0.0411  0.1438
 3970W        W19101   5.496  15.830   3.935  0.1708 -0.2706  0.1120
 3971W        W19102   6.449  16.402   2.570  0.0192 -0.0981 -0.0050
 3972W        W19103  11.010   4.183  11.028  0.0354  0.0640 -0.1111
 3973W        W19104  16.825  10.480   2.760  0.0626 -0.1901 -0.2715
 3974W        W19105   2.967  14.880   5.437 -0.1443  0.0178  0.2835
 3975W        W19106   1.256  17.815   3.884  0.1398  0.1013  0.3304
 3976W        W19107   7.649  12.955  14.356 -0.4022 -0.0808 -0.0609
 3977W        W19108  17.719  15.539  10.940  0.2450  0.0156  0.1116
 3978W        W19109   7.558   4.395   4.703 -0.2564  0.1096  0.2648
 3979W        W19110   2.762  16.235   0.693  0.0726 -0.0178  0.4122
 3980W        W19111  17.637  11.623   4.269 -0.0777 -0.0304  0.1488
 3981W        W19112   0.077   9.918   2.988  0.2887  0.0766  0.4549
 3982W        W19113   6.605  11.627  11.408 -0.2926  0.1534 -0.1237
 3983W        W19114   5.456  13.568   1.252  0.2158 -0.0947  0.2678
 3984W        W19115   1.889   0.461   1.774  0.2773  0.1600 -0.2195
 3985W        W19116   6.777  17.005  14.215  0.0240 -0.3159  0.1868
 3986W        W19117  14.404  16.240   0.516 -0.0841  0.1982 -0.0581
 3987W        W19118  13.967   9.234   1.239 -0.0913 -0.0095  0.0577
 3988W        W19119   9.458   9.296  12.749  0.0544 -0.2564  0.2210
 3989W        W19120   9.090   6.317   2.663 -0.0204  0.2168 -0.2448
 3990W        W19121   5.553  14.258   1.844 -0.2315  0.2272  0.1241
 3991W        W19122  11.075  13.008   4.934 -0.0555 -0.3208 -0.1145
 3992W        W19123   7.220  15.615   4.346 -0.1800 -0.0607 -0.1034
 3993W        W19124   4.635   9.825   4.162 -0.1606 -0.5838 -0.2566
 3994W        W19125   4.087  12.917   0.146  0.1408 -0.0593 -0.1471
 3995W        W19126  14.110  15.538  14.639  0.1701  0.0884  0.1219
 3996W        W19127  14.047  17.480  11.788 -0.1130  0.1398  0.0009
 3997W        W19128   5.740   6.643  13.360 -0.1222  0.1495 -0.0265
 3998W        W19129  10.465  15.414  10.923  0.0517  0.1962 -0.0591
 3999W        W19130   7.997  13.993   5.129  0.1641  0.1928 -0.2074
 4000W        W19131   2.629   2.495   3.613  0.1201 -0.1730 -0.2115
 4001W        W19132   3.539   5.902   5.884  0.1758  0.0040  0.2024
 4002W        W19133   8.749  13.681   2.787 -0.0627  0.1455 -0.1625
 4003W        W19134  17.545   1.942  13.881 -0.3579 -0.1220  0.3503
 4004W        W19135   2.185  11.697   2.638  0.0822 -0.1096  0.1925
 4005W        W19136  16.876   1.460   1.461 -0.3329 -0.4100 -0.2728
 4006W        W19137  12.184  12.823   0.997 -0.0520 -0.1335  0.2433
 4007W        W19138  10.951   4.255  13.878 -0.2015 -0.0438  0.1841
 4008W        W19139  11.935  13.778   3.205 -0.1288  0.3462 -0.1757
 4009W        W19140   3.702   4.040  12.140  0.1250 -0.0857 -0.3386
 4010W        W19141  10.933   4.540  15.660  0.0795 -0.0936 -0.2127
 4011W        W19142   2.611  11.661   0.391 -0.1238 -0.4444 -0.1301
 4012W        W19143  16.397  16.830  15.168  0.0736  0.4890 -0.0943
 4013W        W19144  18.498  10.547   0.899 -0.0090 -0.1086 -0.0213
 4014W        W19145  14.861   2.594   2.531  0.0911 -0.0083 -0.2718
 4015W        W19146   2.058   8.411  12.323 -0.1059  0.1104 -0.0362
 4016W        W19147  15.779  14.447   0.894 -0.1311  0.1683  0.2271
 4017W        W19148   4.909   4.083  13.223  0.0260  0.1395 -0.5716
 4018W        W19149  11.969  14.032  11.419  0.3273 -0.1569 -0.0805
 4019W        W19150  10.672   9.587   0.025  0.1085 -0.0942 -0.1778
 4020W        W19151   2.195  16.073   2.660  0.2662 -0.3983 -0.2746
 4021W        W19152   1.174  10.804   0.440  0.0665 -0.2712  0.1370
 4022W        W19153   7.433   7.186   5.116  0.0378  0.0036  0.4072
 4023W        W19154  11.671  14.213   4.920  0.1481 -0.4063 -0.0361
 4024W        W19155  15.750   3.943  15.050  0.1405 -0.1240  0.1183
 4025W        W19156  17.027   1.579   4.150 -0.0645  0.2748  0.0032
 4026W        W19157   3.946   7.142  12.811  0.3544  0.0549 -0.1201
 4027W        W19158  16.102   4.798  14.930  0.4697  0.1035  0.0535
 4028W        W19159   8.719  16.538  10.409  0.0935 -0.1553  0.0604
 4029W        W19160   9.058   4.452  11.729  0.0356  0.1601  0.0849
 4030W        W19161   2.319   2.388   4.069 -0.1250  0.0462  0.0925
 4031W        W19162  11.805   9.627   2.982  0.0135 -0.4069 -0.1760
 4032W        W19163  12.636   6.798  12.419 -0.2105 -0.1980 -0.0479
 4033W        W19164   6.584  17.233   5.276  0.0290 -0.0373  0.1412
 4034W        W19165   3.774   6.400   1.642  0.0114 -0.1256 -0.1611
 4035W        W19166  12.630  12.703   2.343  0.2268 -0.0744 -0.2102
 4036W        W19167   9.729   8.465   5.614 -0.4485  0.1135 -0.1490
 4037W        W19168  17.056  15.233   0.817 -0.0656  0.0359  0.1228
 4038W        W19169  10.394  13.704  12.626 -0.1784 -0.1564  0.0882
 4039W        W19170  18.604   4.567  11.987 -0.2233  0.0515 -0.1707
 4040W        W19171  13.632   2.377  10.746 -0.2552  0.1292 -0.1661
 4041W        W19172   6.194  14.221  10.867  0.1382 -0.3919 -0.0493
 4042W        W19173  12.648   3.028  10.196 -0.1060 -0.0742  0.0085
 4043W        W19174   0.372   5.714   5.364  0.3763  0.0001 -0.2139
 4044W        W19175   3.622  15.530   1.530 -0.2863 -0.0380 -0.1243
 4045W        W19176   1.599  12.846   3.722  0.0003 -0.0477 -0.2154
 4046W        W19177   4.178  12.247  10.545 -0.0032 -0.2558  0.2824
 4047W        W19178   1.218  17.990   1.355 -0.0261  0.2253  0.2641
 4048W        W19179   8.102  11.795  12.424 -0.1032 -0.0047 -0.0031
 4049W        W19180  12.848   4.306  14.174 -0.1550 -0.2327 -0.0132
 4050W        W19181   0.290  13.958  14.330 -0.5296 -0.2786  0.1253
 4051W        W19182   4.039  15.438  13.223 -0.0874 -0.0993 -0.0537
 4052W        W19183   8.930  13.199   4.254  0.1624  0.3037 -0.2293
 4053W        W19184  13.726   1.505  11.785  0.1645 -0.1250 -0.2171
 4054W        W19185  18.248  15.777   0.794  0.0667 -0.0147  0.1818
 4055W        W19186   0.897  17.724   2.065  0.2189 -0.1619 -0.0790
 4056W        W19187  16.023  15.704   2.420 -0.1547 -0.0743 -0.1238
 4057W        W19188  17.407  16.786   2.499  0.0958 -0.0853 -0.0941
 4058W        W19189  13.564   4.257   0.707  0.1575 -0.1477 -0.2145
 4059W        W19190  10.884   5.558  13.557  0.2144 -0.1279  0.0985
 4060W        W19191   5.677   3.731   0.396 -0.1423  0.0034 -0.2743
 4061W        W19192   5.112   1.674  11.538 -0.1793 -0.0678  0.3366
 4062W        W19193   9.852  15.880  13.569  0.1453  0.0102 -0.0924
 4063W        W19194  17.146   2.389   2.384 -0.1203 -0.3512 -0.4375
 4064W        W19195   4.785   5.776  14.155  0.2273  0.2430  0.1188
 4065W        W19196  16.753  13.357  10.364 -0.0245  0.1450  0.0971
 4066W        W19197   5.799  17.342   4.900 -0.2175  0.0409 -0.0009
 4067W        W19198  15.780   7.462   2.765  0.0152  0.1354  0.1782
 4068W        W19199  10.162   3.858   5.509 -0.2334 -0.0642  0.0637
 4069W        W19200   3.038  14.404   4.953  0.1745 -0.0989  0.4032
 4070W        W19201  18.061   8.431  13.616 -0.2229 -0.0259 -0.0935
 4071W        W19202  13.597   9.608  14.300  0.1001  0.0743  0.3844
 4072W        W19203   1.099   9.055  15.264 -0.3694 -0.1345 -0.0020
 4073W        W19204   5.204   4.063   0.853 -0.1189  0.3344  0.0193
 4074W        W19205   6.905  12.112  11.245 -0.0435 -0.3117  0.2100
 4075W        W19206  15.833  10.062   0.552 -0.1193  0.4272 -0.0810
 4076W        W19207   3.339  17.622   0.306  0.4209 -0.0582 -0.2435
 4077W        W19208   5.736  10.375   2.750 -0.3218 -0.0457  0.0523
 4078W        W19209  12.637   2.583  12.449 -0.0102  0.1215 -0.0886
 4079W        W19210  18.316  16.241   3.159 -0.0968 -0.0329 -0.2721
 4080W        W19211   6.297   7.416   0.963 -0.1600 -0.1360 -0.2060
 4081W        W19212  18.611  16.211   1.428 -0.1366  0.0270 -0.1697
 4082W        W19213  14.892   4.808  10.680 -0.1227  0.1301  0.0352
 4083W        W19214   2.731  18.568   4.585 -0.1664 -0.1179 -0.0217
 4084W        W19215  13.475   8.860   1.804 -0.0414  0.2683 -0.0240
 4085W        W19216   2.345   8.437   0.932 -0.2935 -0.0381  0.0522
 4086W        W19217   2.180  17.846   4.824 -0.0010 -0.0513  0.0226
 4087W        W19218   9.773  12.734  10.278  0.0423 -0.0302  0.0953
 4088W        W19219   9.168   1.430   1.460  0.3187  0.0694  0.1697
 4089W        W19220  15.689   5.247  11.019 -0.1570  0.3198 -0.0430
 4090W        W19221   2.399  18.427   3.714 -0.0011  0.2806 -0.1280
 4091W        W19222  12.515   3.549   0.529 -0.1213 -0.2437  0.1215
 4092W        W19223   0.257  13.268  15.367  0.0531 -0.3795  0.0665
 4093W        W19224  15.445  16.980  15.137 -0.0955 -0.1928 -0.2755
 4094W        W19225   0.119   4.745  15.545 -0.1603  0.4328  0.3307
 4095W        W19226   1.876   5.349  11.152 -0.0203  0.2550  0.1472
 4096W        W19227  17.593   2.453  13.858  0.0913  0.0775 -0.0527
 4097W        W19228   5.679  18.325  11.656 -0.0385 -0.1441 -0.0324
 4098W        W19229  10.867   7.536   5.325  0.1539  0.5174 -0.1747
 4099W        W19230  13.404  13.347  14.054 -0.0632  0.0044 -0.1293
 4100W        W19231  14.220  13.473   1.808  0.2283  0.2184  0.2453
 4101W        W19232  14.258   5.493   3.423  0.0587 -0.0398 -0.1236
 4102W        W19233   0.895   4.067   5.468 -0.2722  0.2102 -0.1066
 4103W        W19234   2.147   7.737  10.931 -0.1310 -0.2999  0.0382
 4104W        W19235  13.807   8.205   4.258  0.1948  0.1926 -0.1623
 4105W        W19236   8.961   6.198   5.468 -0.0664  0.2243 -0.2344
 4106W        W19237   4.690   2.266   4.700  0.2182 -0.4798  0.3358
 4107W        W19238   4.834  18.712  11.905 -0.1183 -0.3881  0.1436
 4108W        W19239  13.883   4.251  14.583  0.0499 -0.1416  0.2492
 4109W        W19240   2.652   0.195   1.672 -0.2509  0.0524 -0.2446
 4110W        W19241  12.484   1.482   3.264 -0.2666  0.0063  0.4236
 4111W        W19242   2.928   4.941   1.197  0.2285  0.0150 -0.0596
 4112W        W19243   2.691   6.528   9.257  0.1396  0.0279  0.0678
 4113W        W19244  14.504   0.104   1.343 -0.0072  0.1755  0.1040
 4114W        W19245  16.054  15.153   5.747 -0.1527 -0.0879  0.2713
 4115W        W19246   0.742   6.488   1.676  0.3680  0.1876  0.2733
 4116W        W19247   2.040   9.835  11.204 -0.2563 -0.0460  0.1079
 4117W        W19248  14.081   5.255  13.240 -0.0131  0.2335 -0.0877
 4118W        W19249   5.130   5.488  11.455 -0.0782  0.2245 -0.3589
 4119W        W19250  10.846   3.233   4.553 -0.1378 -0.1243  0.2131
 4120W        W19251  11.205  14.682  14.071  0.0109  0.0401 -0.2626
 4121W        W19252  12.940   4.128  11.193  0.1473 -0.1828 -0.0352
 4122W        W19253  16.283   7.497   2.692 -0.0127  0.1309  0.2961
 4123W        W19254   5.124   1.534   1.999  0.1059  0.0723 -0.1650
 4124W        W19255  11.775  11.708  13.302  0.0530 -0.3997 -0.0694
 4125W        W19256   8.843   8.080   3.448  0.0897  0.1158 -0.2081
 4126W        W19257   7.703   6.440  11.114 -0.0078 -0.0537 -0.2031
 4127W        W19258   8.492   1.037   4.750 -0.0977 -0.0848  0.0499
 4128W        W19259   0.159   6.959   0.176  0.0379  0.1647  0.2998
 4129W        W19260  18.464   1.018   5.822  0.3433 -0.1512 -0.0538
 4130W        W19261  12.758  10.328  13.161 -0.1147 -0.2226 -0.2831
 4131W        W19262   7.899  16.348   0.716  0.1843 -0.2699 -0.3260
 4132W        W19263  14.009   1.635   0.411 -0.0144 -0.1790 -0.2442
 4133W        W19264   8.615   6.508   5.272  0.1313 -0.1098  0.0778
 4134W        W19265  16.946  10.871   1.090 -0.1295  0.4386 -0.0892
 4135W        W19266   3.920  10.863  12.131  0.0855  0.3176  0.1111
 4136W        W19267  11.769   6.624   1.102  0.0113  0.0423  0.1734
 4137W        W19268  11.456   9.696   4.545 -0.0181  0.1389 -0.2718
 4138W        W19269   7.448  16.910  15.025 -0.0328  0.1747  0.0960
 4139W        W19270   5.123  16.613   2.725 -0.1351  0.1169  0.2156
 4140W        W19271   7.015   4.432  14.885  0.2126 -0.0743 -0.0718
 4141W        W19272  16.948  12.661  15.481 -0.1595 -0.1520  0.0811
 4142W        W19273   0.999  12.496  15.258 -0.0449 -0.0193 -0.0024
 4143W        W19274   7.877  13.533  13.429 -0.1750  0.1189 -0.0076
 4144W        W19275  16.155  11.171  14.883  0.1645  0.3295  0.3195
 4145W        W19276   3.551  15.210   2.272  0.2511  0.1164 -0.2147
 4146W        W19277  13.320   4.914   3.381 -0.0881 -0.0136 -0.3691
 4147W        W19278  13.717  18.134  13.360  0.0872 -0.0127  0.0938
 4148W        W19279  10.078  11.252   3.475  0.2472 -0.0412 -0.0119
 4149W        W19280   4.149   6.525  12.127  0.1519  0.0470  0.1693
 4150W        W19281  16.178  11.772   4.444  0.3325 -0.3332 -0.0862
 4151W        W19282  12.168   8.596  13.690  0.3004  0.2534  0.2723
 4152W        W19283   2.232  13.877   4.523  0.1084 -0.1867 -0.0019
 4153W        W19284  13.229  12.748  11.615 -0.0556  0.1842 -0.1700
 4154W        W19285   0.716  18.060  12.399  0.1575  0.1171 -0.1303
 4155W        W19286   9.319   7.452  12.133 -0.0060  0.2089  0.3927
 4156W        W19287  16.715  15.506   2.592 -0.0182  0.0878 -0.1789
 4157W        W19288   6.196   1.982  12.402 -0.3536 -0.2743  0.2575
 4158W        W19289   4.212  10.011  14.718  0.2095 -0.1980 -0.1832
 4159W        W19290  10.602   3.193   3.469 -0.1626  0.0195  0.0368
 4160W        W19291  11.193  15.307  11.243 -0.1706  0.3668  0.0653
 4161W        W19292   3.649   3.355  11.580  0.2277 -0.0128 -0.1111
 4162W        W19293  10.725  18.677   1.348 -0.0347  0.0030  0.1197
 4163W        W19294   0.022   2.824   9.675  0.2245  0.0060 -0.0676
 4164W        W19295   8.030  11.514  14.337 -0.1104  0.2967  0.5606
 4165W        W19296   3.113   5.784   4.458 -0.0253  0.0192  0.3968
 4166W        W19297   2.261  18.040  14.267  0.3674 -0.1562 -0.1651
 4167W        W19298   5.291  16.147   5.006 -0.1789 -0.1502 -0.0693
 4168W        W19299   3.257   4.132   3.980  0.0221 -0.0063  0.0997
 4169W        W19300   0.781  13.511  13.626  0.1584 -0.1687 -0.0117
 4170W        W19301   9.156  15.380   3.664  0.4261 -0.1702  0.3634
 4171W        W19302   4.587   0.681   4.549 -0.0994  0.1613  0.0718
 4172W        W19303   2.459  16.656  13.022  0.0431  0.2570  0.2381
 4173W        W19304   1.464  12.087  10.374  0.0363 -0.0738 -0.4192
 4174W        W19305  10.351   3.144   1.266 -0.4421  0.0327 -0.4612
 4175W        W19306   1.751  10.796  12.989 -0.3656 -0.2317  0.2306
 4176W        W19307   1.459  14.819  13.925 -0.0369 -0.2989 -0.1024
 4177W        W19308  15.036   9.616  10.955  0.1808  0.1036 -0.2703
 4178W        W19309  16.043  13.285  11.359 -0.3962  0.1083 -0.0068
 4179W        W19310  10.883  18.408   4.110  0.2591 -0.1554 -0.0980
 4180W        W19311   7.509  14.266   1.603 -0.1215 -0.0458  0.1066
 4181W        W19312   7.874   3.508   2.920  0.2447 -0.1244 -0.1266
 4182W        W19313   3.562  14.344   5.667 -0.3208 -0.1375  0.3447
 4183W        W19314   8.908   8.402   1.289  0.2848  0.2187  0.0062
 4184W        W19315   9.419  18.316  11.612 -0.1940 -0.0017  0.0785
 4185W        W19316  18.170  14.449   4.629 -0.1431 -0.2637 -0.0917
 4186W        W19317  17.568  10.454  12.725  0.2321 -0.1501  0.0435
 4187W        W19318  14.638   0.970   1.875  0.0589 -0.1444 -0.1351
 4188W        W19319   0.827  14.314  11.095 -0.0329  0.0166  0.0896
 4189W        W19320   7.053  18.687   1.612  0.0048  0.2957 -0.0507
 4190W        W19321  16.723  11.981   3.759 -0.4275  0.3476  0.1845
 4191W        W19322   0.493   5.963  11.359 -0.1187 -0.3521  0.1797
 4192W        W19323   2.095   0.699   4.611 -0.1296  0.0112 -0.0850
 4193W        W19324   0.728   6.749  13.548 -0.2613 -0.0232 -0.1287
 4194W        W19325  11.309   3.985  14.267  0.1821 -0.0649  0.1474
 4195W        W19326  13.520  14.308   4.218 -0.0405  0.2259  0.1331
 4196W        W19327  11.786   9.221  10.878  0.0672  0.1000  0.5072
 4197W        W19328  16.597  12.544   1.202 -0.2002 -0.1947 -0.0841
 4198W        W19329  16.908  15.899  15.441 -0.0437 -0.1373  0.1858
 4199W        W19330   6.469   4.807   0.748  0.2941  0.0584 -0.0134
 4200W        W19331   9.796   2.077   1.752  0.3449 -0.1138 -0.0547
 4201W        W19332   4.921   0.257  12.771  0.1217 -0.4209 -0.0973
 4202W        W19333   4.230   1.518   3.613  0.2100 -0.0544 -0.1672
 4203W        W19334   4.049   7.073  15.383 -0.1655 -0.0107 -0.2910
 4204W        W19335  12.737   7.539   0.665 -0.2486  0.2231  0.0124
 4205W        W19336   8.427   7.282  14.760  0.3284  0.2060  0.0861
 4206W        W19337  13.648  16.433  11.288  0.2052 -0.0830 -0.1573
 4207W        W19338  12.904  13.605   1.177 -0.2138  0.1240  0.0222
 4208W        W19339   6.939  18.450   5.263  0.0050  0.0635 -0.0966
 4209W        W19340   4.780   8.810  15.134  0.4216  0.0052 -0.1499
 4210W        W19341   7.848  11.162   0.605 -0.2362  0.2118  0.0453
 4211W        W19342  12.998   6.462  12.068  0.0733  0.3054  0.2672
 4212W        W19343  17.450   4.043   2.830 -0.2577 -0.1671 -0.0056
 4213W        W19344   0.385   5.037  12.002  0.0161 -0.0433  0.0692
 4214W        W19345  11.828   0.919  11.570 -0.2101  0.2559 -0.4458
 4215W        W19346  14.569  17.227   3.723  0.2445 -0.1430 -0.3057
 4216W        W19347  16.053   4.100   9.567  0.2944  0.1204  0.1535
 4217W        W19348   5.311   0.330   2.082  0.1740 -0.1044  0.0470
 4218W        W19349  10.810  16.636   0.096  0.1523  0.1016 -0.0573
 4219W        W19350   1.931  13.735  13.462  0.0280  0.0646 -0.1937
 4220W        W19351   8.361  14.525  14.243  0.1352 -0.3296  0.0592
 4221W        W19352   4.441   3.828   6.109 -0.0226  0.1015  0.0980
 4222W        W19353  10.751  16.719  12.218  0.2721 -0.3075 -0.3919
 4223W        W19354  16.842   1.147  14.639 -0.2614  0.0830  0.2032
 4224W        W19355  18.407   7.092   3.550 -0.1194  0.0912  0.3831
 4225W        W19356   8.211   9.500   0.223 -0.2113  0.1788 -0.0791
 4226W        W19357  11.137   6.885  12.439  0.0242  0.1138  0.2558
 4227W        W19358   7.067  16.041  13.082 -0.4446  0.1121  0.4670
 4228W        W19359   1.283  14.472   0.079  0.0020 -0.2210  0.0162
 4229W        W19360  12.276   6.919  15.584 -0.1357 -0.0007 -0.1740
 4230W        W19361   8.058  18.594   2.812 -0.1471 -0.0384 -0.2305
 4231W        W19362   1.213  11.574  15.499  0.1036  0.1602 -0.0624
 4232W        W19363   5.535  14.978  11.093 -0.2215 -0.0509  0.2754
 4233W        W19364   0.741   5.693   1.179  0.1639  0.0246 -0.1564
 4234W        W19365   2.609   7.654  12.505  0.0366 -0.3556 -0.0518
 4235W        W19366  18.004   3.039  15.584 -0.0947 -0.3660 -0.3589
 4236W        W19367   2.213   3.842  14.308 -0.4287 -0.3977 -0.1552
 4237W        W19368   0.582  15.017  12.239 -0.1301 -0.1321  0.0462
 4238W        W19369  14.529   2.352  11.586  0.2242 -0.2307 -0.1217
 4239W        W19370  12.832   7.078   4.453  0.1920  0.1437 -0.3859
 4240W        W19371  12.323  15.976  10.945 -0.4050  0.3115 -0.0632
 4241W        W19372  12.887  12.467  10.809  0.0984  0.3446 -0.2897
 4242W        W19373   7.656   3.503  13.149 -0.0232 -0.3806 -0.2869
 4243W        W19374  16.249   8.319   2.901 -0.1242 -0.3253 -0.0074
 4244W        W19375   6.947  15.835  12.642 -0.3376 -0.0479  0.2834
 4245W        W19376   9.173  13.809   5.243  0.1426  0.2109  0.2773
 4246W        W19377  12.072  17.749   4.911 -0.0802  0.1894  0.0963
 4247W        W19378  16.917  15.560  10.118  0.0762  0.1656  0.3124
 4248W        W19379   7.243  13.848   1.482 -0.0230 -0.1780  0.1915
 4249W        W19380  16.328   4.931   2.761  0.1961  0.0075  0.1870
 4250W        W19381   4.550  15.451   4.198 -0.2221 -0.1489  0.0425
 4251W        W19382   5.557   8.139  15.042  0.0536  0.3910  0.1521
 4252W        W19383   4.478   5.273   2.646 -0.1336  0.3348 -0.1170
 4253W        W19384  17.181  17.238  11.103 -0.1933 -0.0476 -0.0112
 4254W        W19385   6.281  13.449   0.645 -0.1282 -0.2886 -0.0998
 4255W        W19386   4.843   3.743   4.394  0.0617  0.0803  0.0395
 4256W        W19387  16.409  17.106  11.513  0.1355  0.0505 -0.1889
 4257W        W19388  16.478   6.435   4.402  0.2041  0.0737  0.1124
 4258W        W19389   7.027   0.879   0.528 -0.3677 -0.4744  0.1935
 4259W        W19390  15.453   7.672   4.312  0.0826 -0.1090 -0.0308
 4260W        W19391   3.946   7.686  13.093  0.1983 -0.0330  0.0452
 4261W        W19392   3.370   8.317  13.848  0.0236 -0.2080 -0.2066
 4262W        W19393   5.675  13.464  14.320  0.0241 -0.1187 -0.1936
 4263W        W19394  16.687   3.565   4.821 -0.1001  0.2434  0.3051
 4264W        W19395  14.528  10.329   2.842 -0.3655  0.0138 -0.3445
 4265W        W19396   9.755   5.309  14.377 -0.2859 -0.1207 -0.1648
 4266W        W19397   0.533  15.865  11.867  0.2444 -0.1600 -0.0226
 4267W        W19398  16.173   0.496  15.614 -0.2767 -0.3117 -0.2631
 4268W        W19399   4.834   0.163  15.183 -0.0246 -0.1475 -0.2004
 4269W        W19400  15.595   8.540  15.264  0.1609  0.1269 -0.0528
 4270W        W19401   9.340  12.244   3.750 -0.0552 -0.0439 -0.2879
 4271W        W19402  12.688   0.144  13.669  0.2317  0.1817 -0.0843
 4272W        W19403   5.440  14.181  14.758  0.2175 -0.0214  0.1103
 4273W        W19404   0.653   0.768   1.643 -0.1065  0.2262  0.3061
 4274W        W19405  11.400   7.795  10.553 -0.5092  0.2163 -0.2496
 4275W        W19406  10.127   9.632   1.479  0.2724  0.2620  0.3058
 4276W        W19407  10.978   1.817  11.636  0.0606 -0.1294  0.0353
 4277W        W19408   5.273   5.748  10.877  0.0588 -0.1280  0.1406
 4278W        W19409   1.647   2.513   5.306  0.1972 -0.0323  0.0486
 4279W        W19410   6.795   9.562   4.779 -0.0798 -0.2167 -0.3560
 4280W        W19411  13.736   8.281   2.509 -0.2460  0.0656 -0.1259
 4281W        W19412   2.069   4.098   4.932 -0.0034 -0.2124 -0.2760
 4282W        W19413   5.761   8.458   9.788 -0.1337 -0.1316  0.3010
 4283W        W19414   6.259  10.497   4.611  0.1951 -0.3014 -0.1194
 4284W        W19415  15.349  13.760   3.549 -0.0905 -0.2004  0.0398
 4285W        W19416   0.727  15.533  14.154 -0.2490  0.0657  0.1520
 4286W        W19417  14.718   7.321  15.758 -0.1735 -0.0771 -0.2300
 4287W        W19418   5.078   8.444   0.192 -0.0078 -0.1596  0.1578
 4288W        W19419  15.834   1.371   1.743 -0.2866  0.0896 -0.1276
 4289W        W19420   8.866   8.562  12.988  0.0879 -0.4420  0.1980
 4290W        W19421   0.200   2.231   1.790  0.6427  0.2130 -0.0596
 4291W        W19422   4.484  14.564   5.216  0.0729 -0.1760  0.1238
 4292W        W19423   2.151  10.383   1.425  0.0130 -0.1561  0.0121
 4293W        W19424  11.823  17.835   4.211  0.1752 -0.0903 -0.1937
 4294W        W19425  17.406   7.524   1.157  0.0964  0.0933 -0.1285
 4295W        W19426  17.335   6.020  15.300 -0.1119  0.3373  0.1744
 4296W        W19427  15.541  16.426  15.140  0.2237  0.1514 -0.0533
 4297W        W19428  17.056   6.708  12.598 -0.3014  0.0035  0.5844
 4298W        W19429   1.749  15.915  14.236 -0.3898  0.1179  0.4910
 4299W        W19430  12.710   9.183  11.859 -0.1181  0.0595 -0.1418
 4300W        W19431  11.173   7.337  13.452  0.0344 -0.0595 -0.1144
 4301W        W19432  14.214   7.439  12.714  0.2550 -0.1092  0.0763
 4302W        W19433  10.645   5.919  14.490 -0.2060 -0.1236 -0.1591
 4303W        W19434  16.456  17.732  15.303 -0.0350  0.3674 -0.0730
 4304W        W19435   1.717  12.731  10.972  0.4499 -0.0455  0.3283
 4305W        W19436   9.672  14.649   1.955  0.0264  0.0544 -0.0595
 4306W        W19437   6.088  13.631  12.628  0.0241  0.0804  0.0718
 4307W        W19438   2.314   0.165  15.332 -0.2547  0.0094 -0.1744
 4308W        W19439  18.610   7.080  13.222 -0.4736  0.1049 -0.0891
 4309W        W19440   8.197  14.517   5.106  0.0986 -0.0831  0.0734
 4310W        W19441  14.925   9.464   3.996  0.0135  0.0413 -0.2487
 4311W        W19442  16.748  10.695   3.464  0.1446 -0.3536 -0.1611
 4312W        W19443   8.044   5.885  11.262  0.1382 -0.0683  0.2190
 4313W        W19444   4.091   0.469   5.815 -0.0553  0.1575  0.1680
 4314W        W19445  10.578   2.828  11.518 -0.1226 -0.1858 -0.1790
 4315W        W19446  10.322  16.335  14.062  0.1003  0.1348  0.1451
 4316W        W19447  12.751   1.194   4.234 -0.2874  0.1633 -0.1464
 4317W        W19448  14.889   5.975  14.195  0.1113  0.0710 -0.1347
 4318W        W19449   3.647  13.918  10.934 -0.2008  0.1192  0.0031
 4319W        W19450  17.444   0.963   2.774 -0.1452  0.1496  0.2828
 4320W        W19451   2.016   4.353  11.442  0.2745 -0.0143 -0.0493
 4321W        W19452  17.056  11.620  14.751 -0.1254 -0.0930  0.0321
 4322W        W19453  10.185   6.062  15.247 -0.2200  0.1694  0.2760
 4323W        W19454   6.396   2.591   3.784  0.1129  0.2280  0.1521
 4324W        W19455   4.467   0.885   0.587  0.1683  0.6030  0.0970
 4325W        W19456  14.476  16.750  10.743  0.0766 -0.0591  0.2572
 4326W        W19457  18.092  14.659   0.935  0.0835 -0.1548  0.0088
 4327W        W19458  11.928   1.991   5.549  0.1045  0.0119 -0.0171
 4328W        W19459   0.077  15.051   4.501 -0.0106 -0.0062  0.0079
 4329W        W19460   7.086   3.234  11.528 -0.1146 -0.1700  0.0393
 4330W        W19461   2.309   0.204   1.316 -0.0372  0.0204 -0.1511
 4331W        W19462  10.739  12.092  10.193  0.0938 -0.1025 -0.2780
 4332W        W19463  14.718   2.148  12.011  0.5605  0.1052  0.0261
 4333W        W19464   3.874   6.974  11.915  0.0070 -0.0755 -0.3669
 4334W        W19465   4.040   8.870  15.579 -0.1043  0.1882  0.1069
 4335W        W19466  18.357   3.586   3.650 -0.1085 -0.0627  0.2983
 4336W        W19467   4.736  12.462   9.881  0.3316 -0.0764 -0.1756
 4337W        W19468   2.674   5.204   5.548 -0.2758 -0.1413 -0.3319
 4338W        W19469  10.664   0.496   2.163  0.2444  0.2453  0.1836
 4339W        W19470  10.074   1.522   2.853 -0.0030 -0.0159 -0.0900
 4340W        W19471  18.120  13.029  13.076 -0.0765  0.3906  0.3146
 4341W        W19472  14.519  13.754  12.918  0.2992  0.0301 -0.1385
 4342W        W19473   9.376   0.443  13.006 -0.1464 -0.1246  0.1652
 4343W        W19474   6.681  15.283   3.288 -0.1840 -0.0715  0.0477
 4344W        W19475   0.629   2.784   0.655  0.1005 -0.1229  0.1158
 4345W        W19476  16.196  13.825  15.212  0.1630  0.1114  0.2627
 4346W        W19477  17.311   8.189  13.054  0.4237 -0.1033 -0.0013
 4347W        W19478   1.533   8.843   4.627  0.0359 -0.2118  0.2801
 4348W        W19479  13.394   2.648   4.524 -0.1468 -0.0568 -0.1003
 4349W        W19480  13.304   3.785  14.574  0.2885  0.1061  0.3713
 4350W        W19481   0.713   7.295  15.172  0.1172  0.1341  0.2414
 4351W        W19482   9.034  17.375   0.260  0.0114  0.2658 -0.0316
 4352W        W19483  16.189  12.970  14.154  0.2113  0.0350 -0.0680
 4353W        W19484  12.724   4.954   4.625  0.3214 -0.3710  0.3092
 4354W        W19485   6.619  13.643   1.021  0.1677  0.1395 -0.0157
 4355W        W19486   4.420  14.020  11.756  0.2722 -0.0704  0.0441
 4356W        W19487   0.213  12.076   1.491 -0.1874  0.1331 -0.1017
 4357W        W19488   4.572   2.797  13.856 -0.0362  0.0164 -0.0675
 4358W        W19489   6.982   3.243   1.803  0.2687 -0.0718  0.0696
 4359W        W19490  17.879   3.287   1.518  0.4544  0.0267  0.5247
 4360W        W19491   7.646  13.665   9.968  0.1181 -0.2576 -0.0464
 4361W        W19492   6.039   4.068  15.423 -0.3290  0.1371 -0.0976
 4362W        W19493   1.806  15.666   2.624  0.1835  0.0275 -0.1425
 4363W        W19494  11.510  13.957   0.139  0.1353  0.1789 -0.0773
 4364W        W19495   4.899   3.739  13.595  0.0236  0.0429 -0.1567
 4365W        W19496  11.531  12.545   0.643  0.3241 -0.4121  0.3338
 4366W        W19497  17.436  16.141   3.515 -0.3221 -0.1863 -0.1748
 4367W        W19498  12.434  14.895  13.381 -0.0213  0.0560 -0.1159
 4368W        W19499   0.337   7.525   4.986 -0.1231 -0.3993  0.1272
 4369W        W19500  15.321   8.397   2.995  0.1362 -0.0367  0.2025
 4370W        W19501  17.272   1.344  14.153 -0.1288  0.1321 -0.2187
 4371W        W19502   6.366   7.776  15.370  0.0330 -0.0167 -0.4875
 4372W        W19503  11.587   3.776  10.626  0.0497  0.0585  0.0558
 4373W        W19504   4.418  18.398   2.423 -0.1684 -0.0533  0.0678
 4374W        W19505   7.155   9.590   2.656  0.0254  0.2202 -0.0526
 4375W        W19506  16.754  15.947   4.294  0.0358 -0.2314  0.1891
 4376W        W19507   0.246  18.662   2.803 -0.2767 -0.0328 -0.0318
 4377W        W19508  10.279   6.921  15.734  0.0575  0.0475  0.1518
 4378W        W19509   1.172   9.480  14.958  0.1131 -0.3601  0.0473
 4379W        W19510   2.009   3.811   1.308 -0.0401 -0.3061  0.0566
 4380W        W19511   3.758  17.668  11.557  0.1787  0.0955 -0.0534
 4381W        W19512   4.716  16.717  14.760  0.2188  0.3068  0.0072
 4382W        W19513   1.579   3.142  13.951 -0.2528  0.0560 -0.0219
 4383W        W19514   8.353   8.049   1.433 -0.2902 -0.0209  0.1465
 4384W        W19515  14.892  16.228   0.383  0.0939 -0.4380 -0.4261
 4385W        W19516   3.353  12.896   4.543  0.1915  0.0424  0.0652
 4386W        W19517  16.702   7.351  13.107 -0.0969 -0.1227  0.0727
 4387W        W19518   1.400  16.268   3.366  0.3377  0.1883  0.2349
 4388W        W19519   0.995   1.989   4.933 -0.1327  0.0939 -0.1206
 4389W        W19520   3.948  11.901  12.112  0.0881 -0.1850  0.3759
 4390W        W19521  11.976  13.440   2.041  0.0620 -0.0958  0.2813
 4391W        W19522  17.974   1.240   3.991  0.2034 -0.3508 -0.0536
 4392W        W19523   0.622   1.775  14.809 -0.2668 -0.2674 -0.0729
 4393W        W19524   4.065  16.452  12.097 -0.2472  0.1367 -0.3892
 4394W        W19525   8.919  16.912  13.085 -0.1555 -0.1966  0.2998
 4395W        W19526  13.021  13.980  11.187  0.2615  0.2762  0.0135
 4396W        W19527   9.812   4.828   1.017 -0.1342  0.1700  0.1992
 4397W        W19528   6.907  11.655  10.999  0.0337 -0.0971  0.0051
 4398W        W19529  14.678  13.187  12.059 -0.1398  0.0907 -0.2450
 4399W        W19530  15.435   1.994   0.501 -0.0985  0.2729  0.0642
 4400W        W19531   9.705   6.863  12.682  0.0838 -0.0586  0.0803
 4401W        W19532  14.686  13.863   1.983  0.3591  0.0660  0.3440
 4402W        W19533   5.433   7.648  11.282  0.1550 -0.1403 -0.1742
 4403W        W19534  18.519   3.631   4.133 -0.0454  0.1271  0.0510
 4404W        W19535   2.585  10.804   4.056 -0.1895  0.2187 -0.0500
 4405W        W19536   4.528  11.962   3.363 -0.1674  0.3614  0.1840
 4406W        W19537   9.483  13.484  14.822  0.0629  0.0360  0.2048
 4407W        W19538  15.749   5.479   0.831  0.0788  0.0821 -0.0469
 4408W        W19539  10.390   7.007  15.185  0.1659  0.2498  0.3449
 4409W        W19540  11.849   4.127   3.263 -0.0281  0.1180 -0.0990
 4410W        W19541  16.655   0.930   1.274 -0.0574 -0.0203  0.1743
 4411W        W19542   1.198   2.962   3.180  0.1070 -0.1349  0.0552
 4412W        W19543  13.065  12.440   9.600  0.2560  0.1019 -0.2269
 4413W        W19544   7.835   7.633   0.501  0.0664 -0.0353  0.0840
 4414W        W19545   0.389  12.052   4.830 -0.2150  0.1464 -0.0497
 4415W        W19546  12.400  18.283   0.094  0.1491  0.0924  0.0447
 4416W        W19547   9.892  14.440  10.460  0.1365 -0.3471  0.0988
 4417W        W19548  12.969  15.896   5.409  0.1618  0.1283 -0.1586
 4418W        W19549  12.359  11.068   3.781 -0.3194 -0.5636  0.0435
 4419W        W19550  17.086   5.053  14.070 -0.0271  0.2737 -0.0639
 4420W        W19551   3.090  13.854   3.491 -0.1504 -0.0417 -0.0434
 4421W        W19552  17.966  12.778  10.478 -0.3585 -0.2640  0.1494
 4422W        W19553  11.301   0.420   3.965 -0.0386 -0.3174  0.1055
 4423W        W19554   0.545  16.904  11.389  0.2178  0.1459 -0.2116
 4424W        W19555   4.736   9.535  11.254  0.2311  0.0347  0.3249
 4425W        W19556  15.930  14.221  14.251  0.0510 -0.1510  0.1646
 4426W        W19557  12.878  18.279  11.288  0.0951  0.5687 -0.0120
 4427W        W19558  16.699  17.594   2.934  0.1120  0.3098  0.0629
 4428W        W19559  15.686  10.877  15.732 -0.2257  0.0708  0.3167
 4429W        W19560  18.347   0.210   3.620  0.1475  0.1489  0.1548
 4430W        W19561   7.999   7.605   3.792 -0.1108 -0.2555  0.1380
 4431W        W19562  16.350   1.037   9.974  0.3084  0.1210  0.3309
 4432W        W19563  12.165  14.282  14.786 -0.2307 -0.0769  0.0199
 4433W        W19564   0.335   0.600  11.772  0.2530  0.0290 -0.0852
 4434W        W19565   6.729  12.506   0.231 -0.0372 -0.0743 -0.0323
 4435W        W19566   8.287  18.077   6.484 -0.1742  0.2482 -0.0067
 4436W        W19567  10.638   4.915  10.904 -0.4200  0.0117  0.0739
 4437W        W19568  18.489   3.736  10.567 -0.1307 -0.5460  0.2729
 4438W        W19569   5.811   5.102   3.517  0.2893  0.2084  0.0661
 4439W        W19570   4.367   5.635  10.615 -0.4437  0.0693 -0.0494
 4440W        W19571  16.691   9.154   0.645  0.1168  0.0045 -0.2561
 4441W        W19572   0.114   0.867   4.028 -0.0685 -0.2813 -0.2657
 4442W        W19573   5.770  15.003  12.385 -0.1207 -0.1755  0.0497
 4443W        W19574   4.049  12.425  12.151 -0.4025 -0.3323 -0.0850
 4444W        W19575  11.231   8.813  14.576 -0.0428  0.0526 -0.0137
 4445W        W19576  16.647  13.905   2.570  0.2305  0.0663  0.1657
 4446W        W19577   9.572  14.295   2.313  0.0834  0.3046 -0.3293
 4447W        W19578   5.872  13.387  10.647 -0.3225  0.0978 -0.1254
 4448W        W19579   2.284   4.810   4.465  0.2557  0.1866  0.1528
 4449W        W19580  11.684   4.424   3.787 -0.2533  0.3212 -0.1924
 4450W        W19581   2.372  11.772   3.639 -0.1713  0.0618 -0.0977
 4451W        W19582   5.700  11.900   6.103 -0.1397 -0.0301  0.0991
 4452W        W19583  11.399  11.313   1.352  0.2784  0.1978 -0.0379
 4453W        W19584   3.229  11.681  12.262 -0.0151 -0.4043 -0.1618
 4454W        W19585  10.869   3.649   0.626 -0.0400 -0.0012  0.2149
 4455W        W19586   1.837  13.371   2.077  0.0406  0.1674 -0.1958
 4456W        W19587  12.477  16.824   1.492  0.2591 -0.2066 -0.0002
 4457W        W19588   5.895   8.505  15.410  0.0176  0.1592  0.1844
 4458W        W19589   4.160  12.826  14.892  0.2868  0.4436  0.2156
 4459W        W19590  15.724   8.319   2.646 -0.3321  0.0546  0.1877
 4460W        W19591   1.150   7.763   5.380  0.0120 -0.2166 -0.3393
 4461W        W19592   2.421   7.185   2.444 -0.1422 -0.0437 -0.0242
 4462W        W19593   9.033  15.315  13.611 -0.1912  0.0799 -0.3476
 4463W        W19594   9.452   0.740  12.595 -0.1956 -0.2811 -0.3301
 4464W        W19595  13.450  13.740  14.370 -0.0846  0.0612  0.1515
 4465W        W19596  10.302  16.355   2.119  0.1989  0.0630  0.0849
 4466W        W19597   9.545   8.440   2.791  0.0697  0.2295  0.1143
 4467W        W19598  10.216  14.767  10.154  0.2009 -0.0338  0.0865
 4468W        W19599   3.039   6.004   3.557  0.2139 -0.2056  0.2127
 4469W        W19600   9.133  10.350   0.466  0.1227 -0.0527  0.1003
 4470W        W19601   2.230   7.390   1.054 -0.2088  0.2792  0.1157
 4471W        W19602  15.185   0.558  13.244  0.0890  0.1566 -0.0945
 4472W        W19603  13.165   4.666   9.908  0.3509 -0.1150  0.2985
 4473W        W19604  16.714   6.523   3.627  0.1820  0.0513 -0.1499
 4474W        W19605  10.211  10.039  11.052 -0.4290  0.1474 -0.3382
 4475W        W19606   9.627  13.837   3.697 -0.1030 -0.2511 -0.2585
 4476W        W19607   5.857  11.811   3.339 -0.3376  0.3981 -0.3606
 4477W        W19608  18.238   7.142   4.018 -0.2365  0.1533 -0.4524
 4478W        W19609   1.348   6.665  15.282 -0.0309  0.0399 -0.2433
 4479W        W19610   6.570   6.407   4.155  0.0597 -0.0585 -0.0062
 4480W        W19611   4.449  16.238   3.388  0.2390  0.2114 -0.1968
 4481W        W19612   1.869  14.274  12.153 -0.0432 -0.2615 -0.2959
 4482W        W19613   9.149  14.880  14.676 -0.2230 -0.1982  0.0646
 4483W        W19614  14.923   4.729  11.841 -0.1586 -0.1294 -0.0750
 4484W        W19615   2.114  10.164   2.227 -0.3023 -0.2826  0.2299
 4485W        W19616  12.058  13.635  13.616  0.0821  0.0102  0.0885
 4486W        W19617   6.992  17.087   3.333  0.2541  0.2620 -0.2142
 4487W        W19618  18.662  10.356   2.192  0.2046 -0.1566  0.1690
 4488W        W19619  13.786   5.632   1.009  0.1065  0.0753  0.1217
 4489W        W19620  18.398   4.146  10.876  0.1530 -0.2808 -0.3299
 4490W        W19621   0.164   6.586  13.983  0.3208 -0.1017 -0.1960
 4491W        W19622  15.861   7.546  12.755  0.0713  0.0866  0.1638
 4492W        W19623  15.563  15.529  15.039  0.4006  0.0188 -0.0867
 4493W        W19624  13.111  18.118  12.170  0.1941 -0.2730 -0.2496
 4494W        W19625   8.983   9.170  12.934 -0.3709  0.0421 -0.1480
 4495W        W19626   0.912  18.375   0.088  0.2312 -0.0951  0.2141
 4496W        W19627   0.290  10.256  12.699  0.0793 -0.0542 -0.0733
 4497W        W19628   8.509   7.741   2.327 -0.1364 -0.0528  0.1380
 4498W        W19629  17.504  13.547  13.973 -0.1409  0.0049  0.1167
 4499W        W19630   0.501   0.975   0.656 -0.0161  0.2382  0.2942
 4500W        W19631   8.329  14.890  15.047 -0.1810  0.0378  0.0743
 4501W        W19632  11.620   2.209   0.744 -0.4249 -0.0795  0.0203
 4502W        W19633  10.087  13.123  13.857 -0.2502  0.0563 -0.1489
 4503W        W19634  11.728  11.717  12.323 -0.0320  0.1842 -0.1071
 4504W        W19635  12.497   7.061   0.325  0.0316 -0.0149 -0.0730
 4505W        W19636  12.003  18.644   3.175  0.0776 -0.3390 -0.1051
 4506W        W19637  13.167  14.239  10.748 -0.1848 -0.0869  0.2747
 4507W        W19638   4.054  14.285  10.767  0.1023 -0.0897  0.1901
 4508W        W19639   7.217   9.211  11.141  0.0891  0.0432 -0.1177
 4509W        W19640   4.801   3.141  14.736 -0.0915 -0.1575 -0.0993
 4510W        W19641  18.652   9.349  15.453  0.2550 -0.1083  0.1268
 4511W        W19642   3.933  14.481  11.776 -0.0836  0.1516 -0.1885
 4512W        W19643  17.174  17.385   3.760  0.0984  0.1372  0.0566
 4513W        W19644   4.309   3.160  14.682  0.0701  0.0120  0.0742
 4514W        W19645   6.368   2.485   5.913 -0.1076 -0.0098 -0.0763
 4515W        W19646   7.870  15.164   0.879  0.0892 -0.2117 -0.3323
 4516W        W19647  15.595   7.486  12.238 -0.1352  0.0281  0.0264
 4517W        W19648   3.169   3.702   1.811  0.0574 -0.1491 -0.0614
 4518W        W19649   4.314   3.791   3.031 -0.3721  0.1415  0.2118
 4519W        W19650   8.973   8.947  10.656 -0.3126  0.1225  0.0603
 4520W        W19651   5.824   3.948  13.271  0.0675  0.3482  0.1039
 4521W        W19652   4.360   5.597  15.405 -0.0976  0.4083 -0.4918
 4522W        W19653   2.453   5.231   0.064 -0.0101  0.2655  0.3827
 4523W        W19654  18.674   0.990  11.308  0.3616 -0.1933 -0.0804
 4524W        W19655   8.694  18.190  11.395  0.2406 -0.0866  0.0170
 4525W        W19656  15.232   2.877   2.248 -0.0744  0.2261 -0.1689
 4526W        W19657   5.812  18.198  10.063  0.0978 -0.1013 -0.0249
 4527W        W19658  16.105   8.993   1.244 -0.0290  0.3613  0.1185
 4528W        W19659  12.886   0.792   2.611 -0.1587 -0.2241 -0.0073
 4529W        W19660  13.809   9.287  15.173  0.3166 -0.0543 -0.0778
 4530W        W19661  12.018   4.826   3.894 -0.1085  0.1327 -0.4100
 4531W        W19662   8.714   8.924  12.043  0.1668  0.1939 -0.3066
 4532W        W19663   7.772   5.415   3.214  0.0397  0.1237 -0.1691
 4533W        W19664  17.007   5.568   1.312  0.1213  0.0483 -0.3539
 4534W        W19665  15.145  11.999  13.498  0.0693 -0.1444  0.1246
 4535W        W19666  12.023   6.205   2.807 -0.0032  0.1354  0.0050
 4536W        W19667   7.260   4.143  12.809  0.0474  0.0352 -0.1176
 4537W        W19668  16.900   7.497  14.831 -0.0859 -0.0299 -0.2847
 4538W        W19669  10.624   7.169   0.256 -0.2598  0.0521  0.2160
 4539W        W19670  17.249   9.684   0.538  0.0859  0.2277 -0.2700
 4540W        W19671  13.313   0.201  11.759  0.1867 -0.0832 -0.1263
 4541W        W19672   1.345  13.060   2.046 -0.0983  0.1752 -0.0056
 4542W        W19673   6.346   8.695  10.990 -0.0054 -0.0070 -0.5159
 4543W        W19674  16.118  17.203   2.605 -0.0300  0.5622 -0.0504
 4544W        W19675   7.011  11.517   3.107  0.0392  0.2981  0.2430
 4545W        W19676  13.649   5.590  11.670  0.1146  0.1538 -0.0877
 4546W        W19677  15.391  13.030   1.546 -0.3469  0.1603  0.1538
 4547W        W19678   3.120   7.780  12.621 -0.3722 -0.3416 -0.2046
 4548W        W19679  12.338  16.488  12.432  0.0118 -0.0135 -0.2429
 4549W        W19680  11.754  14.379   0.102  0.1305 -0.0265 -0.2092
 4550W        W19681  15.367   9.223   9.620 -0.1102 -0.2125 -0.3088
 4551W        W19682   3.110   3.628  13.086  0.0472 -0.1187 -0.0682
 4552W        W19683  13.108   2.378   0.086  0.1067 -0.3258 -0.0451
 4553W        W19684   9.682   5.208   3.827 -0.0687  0.2891  0.2060
 4554W        W19685   7.445  12.612  14.594 -0.0832  0.0890  0.1743
 4555W        W19686  16.057   6.258  12.081 -0.2247  0.3154  0.1248
 4556W        W19687  15.566   2.044   4.901  0.0770 -0.1399 -0.1265
 4557W        W19688   3.285   4.560   0.846  0.1790 -0.0640  0.2784
 4558W        W19689   2.627   4.336   6.068 -0.4324 -0.0558  0.0595
 4559W        W19690  11.538   7.959  11.222 -0.1772 -0.1360 -0.0591
 4560W        W19691   0.878   4.908  15.604  0.0793  0.1313 -0.0907
 4561W        W19692  16.196   4.575   3.329  0.0563 -0.0990 -0.2670
 4562W        W19693  13.209   1.679  15.246 -0.5155  0.1004 -0.2328
 4563W        W19694  14.446   0.519   0.192  0.1435 -0.2436  0.0364
 4564W        W19695  10.041  13.813   2.391  0.0283  0.1245 -0.0734
 4565W        W19696  10.471   1.669   4.559 -0.0710 -0.2710 -0.3813
 4566W        W19697  13.015  17.084   1.833  0.0025  0.1814 -0.2228
 4567W        W19698   4.267   5.948  11.071 -0.0561 -0.0850  0.0394
 4568W        W19699   9.747  11.061  12.110 -0.1117 -0.1157 -0.0442
 4569W        W19700   2.055  12.406   4.986 -0.0663 -0.0885  0.0219
 4570W        W19701   9.724  13.688   0.857  0.2227 -0.1518  0.0559
 4571W        W19702   8.618   8.144  14.565  0.2547 -0.0906 -0.0067
 4572W        W19703   5.000   0.793   2.603 -0.1259  0.0793  0.2676
 4573W        W19704  14.362  12.534   0.033 -0.1995 -0.0774  0.0674
 4574W        W19705   7.126  11.619  12.499  0.2926  0.3246  0.1066
 4575W        W19706   8.341  10.509   4.587 -0.0861 -0.1759  0.2726
 4576W        W19707  16.353   7.593  12.765  0.3608  0.1333  0.2844
 4577W        W19708   6.994   1.051  15.286 -0.0130  0.1499  0.2193
 4578W        W19709   6.228   1.215  11.021  0.2503  0.0589  0.4231
 4579W        W19710  10.952  16.383  12.722 -0.3360 -0.0225  0.2280
 4580W        W19711  15.782  13.512  13.065 -0.1958  0.1006  0.2515
 4581W        W19712  16.222   5.564  15.480  0.0616 -0.0989 -0.3094
 4582W        W19713   0.541  16.030   4.204 -0.1358  0.0457  0.0490
 4583W        W19714  18.302  18.443   1.799 -0.0458  0.2723 -0.1233
 4584W        W19715   1.152   9.199  14.045  0.3896 -0.1402  0.0117
 4585W        W19716  10.646  17.520  12.096 -0.1624 -0.2865 -0.2404
 4586W        W19717   0.421   1.212   2.456 -0.1524  0.0672 -0.0999
 4587W        W19718   1.318  10.539  13.180 -0.0512 -0.1523 -0.0282
 4588W        W19719   5.589   4.536  11.905  0.3038  0.0360 -0.0300
 4589W        W19720  14.567   6.707  14.973  0.0906  0.1226 -0.0539
 4590W        W19721  15.932  16.093  10.910  0.0128  0.1656  0.0539
 4591W        W19722   6.030   3.067  15.142  0.0283  0.2184  0.0590
 4592W        W19723  15.144  17.671  10.653 -0.0286 -0.0676  0.1777
 4593W        W19724  11.403  11.256  10.424 -0.3587 -0.1560 -0.0835
 4594W        W19725  17.959  16.221  15.281  0.1691  0.1715 -0.1780
 4595W        W19726   1.642   7.786   4.704  0.1175 -0.0537 -0.0759
 4596W        W19727  15.368  13.811  15.728 -0.2623  0.0440  0.1107
 4597W        W19728  12.160   7.469   0.690 -0.1633 -0.0933 -0.1041
 4598W        W19729   5.215   4.718  12.326 -0.0509  0.1055  0.1718
 4599W        W19730  13.693   5.226  13.660 -0.1959 -0.3108  0.0063
 4600W        W19731  13.584  11.706  10.252 -0.1147 -0.1564  0.1229
 4601W        W19732   1.544   2.636   1.977  0.2009  0.0709  0.0182
 4602W        W19733  16.470   2.455   3.637 -0.0286  0.0527  0.1954
 4603W        W19734   8.736   2.371   0.472  0.0143 -0.2619 -0.1431
 4604W        W19735   0.519   4.720  12.990 -0.1517 -0.2242 -0.0121
 4605W        W19736   8.932   2.493   1.474  0.2291 -0.0626  0.1234
 4606W        W19737  15.152  10.273  11.478 -0.0419 -0.1799  0.0006
 4607W        W19738   3.038  13.181  12.546  0.1468 -0.3076 -0.3135
 4608W        W19739  10.083   7.798   2.558 -0.1362  0.1443  0.2506
 4609W        W19740  16.139  10.679  14.982 -0.0261  0.2379 -0.1104
 4610W        W19741  13.097   0.661  11.837 -0.0674  0.0394  0.1890
 4611W        W19742   4.255   9.892   0.857 -0.1591 -0.1138  0.1756
 4612W        W19743  13.175   0.764  10.920  0.1608 -0.0623  0.1389
 4613W        W19744  14.340  18.116  12.465  0.4254  0.1765  0.1214
 4614W        W19745  17.145  13.999  12.023  0.2071  0.1199  0.2433
 4615W        W19746  13.551   2.518  11.440  0.2308 -0.1176 -0.0131
 4616W        W19747  15.531   5.904   3.362  0.0059 -0.0531 -0.1648
 4617W        W19748   5.430   7.114   2.879 -0.2789 -0.0608  0.0877
 4618W        W19749  15.138  18.632  11.198 -0.2374  0.0207  0.0778
 4619W        W19750   7.530   2.263   3.357  0.0042  0.0519  0.0953
 4620W        W19751   2.576  12.160  10.266  0.2224  0.1746 -0.1439
 4621W        W19752   0.679   2.329   1.751 -0.1931  0.0683 -0.0249
 4622W        W19753  12.915   4.362   9.542  0.1094 -0.1298 -0.1235
 4623W        W19754  15.067  17.869  14.928  0.1986  0.1058  0.0119
 4624W        W19755   8.898  14.734   1.724 -0.0312  0.0054  0.1516
 4625W        W19756   0.649  13.297   2.827  0.2365 -0.1206  0.3395
 4626W        W19757   3.279   6.326  12.516  0.1656 -0.0786 -0.5172
 4627W        W19758   2.552  17.745   1.942 -0.0532 -0.1405 -0.0465
 4628W        W19759  11.425  13.329  12.963 -0.0042 -0.1767  0.2014
 4629W        W19760   4.183   8.691   4.627 -0.3160 -0.0816  0.0010
 4630W        W19761   8.096   5.568   1.697 -0.3190  0.2472  0.0433
 4631W        W19762   9.541  10.761  10.013 -0.0329  0.2997  0.0927
 4632W        W19763  13.088   6.550  12.568  0.1907  0.4265 -0.1382
 4633W        W19764   7.740   6.285   3.112 -0.1886  0.0915  0.0136
 4634W        W19765  13.104  11.158  11.242  0.0561 -0.0274  0.1471
 4635W        W19766   4.829  14.719   3.422  0.0763  0.1133  0.2166
 4636W        W19767   1.974   6.756   1.596 -0.2184  0.1581 -0.2135
 4637W        W19768   4.735  16.029   0.997 -0.6892 -0.1802  0.3699
 4638W        W19769   8.287   8.733  10.952 -0.0400 -0.0030 -0.0025
 4639W        W19770  13.006   5.838  12.048  0.0850 -0.0546 -0.3204
 4640W        W19771   8.329   1.972  11.686 -0.0528 -0.0165 -0.3626
 4641W        W19772  16.890   9.013  15.349 -0.1683  0.3934 -0.1317
 4642W        W19773   2.277  17.372   1.771 -0.0631 -0.2122 -0.1211
 4643W        W19774   4.248   6.507   3.601 -0.2245  0.1641 -0.1685
 4644W        W19775  10.303  10.317  11.537 -0.2064  0.1867  0.3555
 4645W        W19776   0.215   9.115  12.518 -0.0614  0.0520  0.0882
 4646W        W19777  16.959   9.680   1.437 -0.0723  0.2489  0.1169
 4647W        W19778   9.409  16.607  14.371  0.1380 -0.1694 -0.4327
 4648W        W19779   8.888  11.783  13.782  0.0506  0.0651 -0.0229
 4649W        W19780   8.337  17.816  13.188  0.0368  0.0870 -0.0559
 4650W        W19781   6.099  15.893  13.356 -0.1952 -0.1394  0.0201
 4651W        W19782  17.977   1.698   4.188  0.0398 -0.1976 -0.0138
 4652W        W19783  12.019  16.432  12.039  0.0961 -0.4522 -0.3878
 4653W        W19784  12.068   0.243   4.782  0.2924  0.0879 -0.0241
 4654W        W19785   4.216   9.931  13.786 -0.0263 -0.2313 -0.1411
 4655W        W19786   8.199  14.018   0.972 -0.0132  0.0423  0.2564
 4656W        W19787   3.444   3.046  14.702  0.0514  0.3235  0.1088
 4657W        W19788   6.159   3.411   5.482  0.0839  0.0213 -0.4111
 4658W        W19789   0.993   8.023  13.164  0.2147  0.1734  0.3388
 4659W        W19790  16.017   7.594   5.024  0.4172  0.0335 -0.1890
 4660W        W19791   0.587   5.606  11.052  0.3961 -0.2324  0.0357
 4661W        W19792  15.991   0.405   3.977 -0.1919  0.3823 -0.2450
 4662W        W19793   2.676  14.342   1.952 -0.0553 -0.0290  0.0411
 4663W        W19794   7.554  16.204   3.702  0.0434  0.1967  0.0078
 4664W        W19795   7.286   9.588  11.915 -0.4088 -0.3605  0.2867
 4665W        W19796  17.198  16.733   3.495 -0.4022 -0.0069 -0.2184
 4666W        W19797  11.432  10.435  12.767  0.0752 -0.0023 -0.0448
 4667W        W19798   5.396   1.127   2.847 -0.1326  0.1201  0.5423
 4668W        W19799  12.702  13.133   2.073  0.2317  0.2158 -0.2600
 4669W        W19800   3.481   9.361   3.335  0.1924 -0.2505 -0.1635
 4670W        W19801  16.420  15.834   2.795  0.2054  0.1645 -0.2241
 4671W        W19802  11.249   5.982  13.633 -0.1293 -0.0171  0.2711
 4672W        W19803  18.312   8.834  14.688  0.2234 -0.0216 -0.0252
 4673W        W19804   5.343  18.074   6.046  0.2157 -0.0710 -0.0781
 4674W        W19805  11.052   9.950  12.123  0.0499 -0.0811 -0.0727
 4675W        W19806   2.914  15.567   0.929 -0.3039  0.0817  0.2345
 4676W        W19807   1.722   3.277  10.991  0.4951 -0.0722  0.1683
 4677W        W19808   1.337   2.734  15.098  0.1902  0.0353 -0.1344
 4678W        W19809   4.894  11.654  13.480 -0.0801  0.2554 -0.0716
 4679W        W19810  13.067  14.437  13.955 -0.1312  0.4202 -0.2281
 4680W        W19811  13.510  18.421   0.432 -0.2877 -0.2500 -0.0711
 4681W        W19812   9.724   2.375  14.364  0.0178 -0.3371  0.0368
 4682W        W19813   0.837   3.189   3.496  0.3737 -0.5264 -0.0724
 4683W        W19814  15.098   1.569   0.519  0.0168  0.0141  0.0157
 4684W        W19815  12.210  13.144  10.525  0.1825 -0.1371  0.3320
 4685W        W19816   7.880   4.923  14.060 -0.0060 -0.4759  0.0559
 4686W        W19817   4.249  12.056   4.828  0.0094  0.1971  0.0232
 4687W        W19818   2.588  15.982  11.007 -0.1165 -0.3234 -0.2688
 4688W        W19819   7.342   1.935  14.724  0.1876 -0.4645 -0.2714
 4689W        W19820  13.865   3.577  11.301 -0.2112 -0.0992 -0.0796
 4690W        W19821  14.327   8.196   0.406 -0.2989  0.1303 -0.2230
 4691W        W19822   0.095  16.937  13.886 -0.3912  0.0560 -0.0701
 4692W        W19823   0.815   0.773   6.100 -0.2261 -0.4269 -0.1351
 4693W        W19824   8.711  11.565   3.768 -0.2661  0.0369 -0.0571
 4694W        W19825   2.835   8.373   2.081  0.1367 -0.0162 -0.3444
 4695W        W19826   3.308  13.012  10.567  0.1764 -0.1268  0.3676
 4696W        W19827   1.319  17.801  14.142  0.3003 -0.1581 -0.2309
 4697W        W19828  16.022  11.233  13.464  0.1194  0.0250  0.0633
 4698W        W19829  11.953  17.829  12.203 -0.2227  0.3957 -0.1020
 4699W        W19830   7.849  13.955   2.681  0.0153  0.0374  0.1620
 4700W        W19831  14.689   9.337   3.106  0.1386  0.2148 -0.2197
 4701W        W19832  14.694   0.166  11.127 -0.3616 -0.2542 -0.0258
 4702W        W19833   8.787   3.643   1.227 -0.0156  0.0032  0.2793
 4703W        W19834  10.335  16.277   4.723  0.0437 -0.2908  0.0012
 4704W        W19835  16.770  11.026   2.152 -0.1007  0.0055 -0.3640
 4705W        W19836   3.341   5.737  14.174  0.1572  0.3519  0.0008
 4706W        W19837   2.633   5.538  10.505 -0.0838  0.2261 -0.1407
 4707W        W19838   7.928  15.776   3.830 -0.3784 -0.2395  0.4179
 4708W        W19839   0.328   3.967   3.721 -0.1800  0.2945 -0.0402
 4709W        W19840   3.661   6.626   4.304 -0.0940  0.1790 -0.3110
 4710W        W19841   0.191   5.125  14.275 -0.2900 -0.0498  0.4159
 4711W        W19842   9.864  10.138  12.699  0.1496 -0.0539  0.0736
 4712W        W19843   6.807   1.345   4.396  0.1446 -0.0356 -0.0452
 4713W        W19844   7.146   3.970  15.048  0.2451 -0.1748 -0.0552
 4714W        W19845  11.490   8.292  10.844  0.1986 -0.0347  0.3851
 4715W        W19846  16.188  13.159   3.719 -0.4030 -0.2553 -0.0894
 4716W        W19847   5.760   8.731   0.967 -0.4405 -0.0631 -0.3781
 4717W        W19848  17.800   4.087  14.317  0.2772  0.2359 -0.0229
 4718W        W19849   1.273   2.129   0.793 -0.2700  0.0876 -0.0661
 4719W        W19850  18.102   9.321  15.284  0.2762 -0.2726 -0.1664
 4720W        W19851  12.779   4.692   0.371 -0.1640  0.0613  0.2667
 4721W        W19852  11.107  12.225  10.475 -0.0749  0.0680  0.0804
 4722W        W19853   5.112  13.591   0.790 -0.1335  0.3297 -0.0618
 4723W        W19854  13.115   9.415  12.085  0.1050  0.0737 -0.0014
 4724W        W19855  13.749  14.788   1.280  0.0087  0.0760  0.5950
 4725W        W19856   4.385  13.258   0.454 -0.1584 -0.2630  0.3399
 4726W        W19857   6.135  17.061  11.504 -0.2719  0.1461  0.2244
 4727W        W19858   4.481   8.107  15.494  0.2094  0.1727  0.0176
 4728W        W19859  17.643   0.268  12.735  0.0299  0.0563  0.0245
 4729W        W19860   7.343   3.710  15.416  0.2135 -0.0166  0.2366
 4730W        W19861  14.364   5.107   2.251 -0.0360  0.1629 -0.0286
 4731W        W19862   4.468   4.968   0.379  0.0160 -0.0596 -0.1235
 4732W        W19863  17.951   1.041  15.795 -0.0568  0.1690  0.2436
 4733W        W19864  15.615  10.782   1.235  0.0478 -0.2686  0.0402
 4734W        W19865   6.721  12.057   4.636  0.3029  0.0968 -0.2155
 4735W        W19866   7.276  14.744   0.235  0.1123 -0.0714 -0.0529
 4736W        W19867   9.028   7.354   1.086  0.1041 -0.1904  0.1679
 4737W        W19868  15.502   3.668  11.655  0.0456 -0.0194  0.2298
 4738W        W19869   5.296   4.516   0.783 -0.2218 -0.0467 -0.0444
 4739W        W19870  11.051   1.142  10.960 -0.0223  0.2132 -0.2596
 4740W        W19871   8.641  16.312  15.567 -0.2621 -0.0390  0.0225
 4741W        W19872   1.951   5.334   5.117  0.0348  0.0454 -0.0234
 4742W        W19873   2.574  12.491   2.879  0.0795  0.1361 -0.2789
 4743W        W19874   6.294  14.488   9.997  0.1463 -0.1249  0.1944
 4744W        W19875  14.373  18.003   0.842  0.0414  0.1866 -0.3465
 4745W        W19876  16.982   3.266   1.515 -0.0934 -0.0460  0.0689
 4746W        W19877   9.247   0.036  15.186 -0.2260 -0.3182 -0.0996
 4747W        W19878   4.324   8.532   5.086 -0.1210 -0.0548 -0.1583
 4748W        W19879   2.098   9.767   1.909  0.2269  0.1102 -0.1987
 4749W        W19880  17.027   6.505  13.603 -0.1037  0.1432  0.1567
 4750W        W19881  18.453  11.976   3.279 -0.2482 -0.0084  0.3667
 4751W        W19882   6.610   6.873  12.795  0.0612  0.0361  0.0405
 4752W        W19883   0.861   8.259  14.482  0.3051  0.0351 -0.2625
 4753W        W19884   3.211  12.781  11.484 -0.2820 -0.1400  0.0968
 4754W        W19885  12.816   7.264   3.783  0.0110  0.1477 -0.0194
 4755W        W19886   9.259  17.094  13.666  0.1285  0.2923 -0.2029
 4756W        W19887  11.555   5.280   0.981  0.3808 -0.0465  0.0070
 4757W        W19888  16.725   6.273   0.034 -0.2124  0.1677  0.1212
 4758W        W19889   6.680   5.153  15.527 -0.3319 -0.0729 -0.3172
 4759W        W19890   2.775   3.514   3.984  0.0768 -0.0830 -0.2415
 4760W        W19891  14.842   1.405  15.324  0.4680 -0.0661  0.0286
 4761W        W19892  13.664   2.738   3.120 -0.0159 -0.1390  0.1184
 4762W        W19893   2.038  13.750   2.283  0.0412  0.2544  0.3124
 4763W        W19894  11.086   1.090  11.515 -0.1798  0.0618 -0.2257
 4764W        W19895   5.592  16.984  14.794 -0.3000  0.1928 -0.0323
 4765W        W19896  13.461   9.009   0.092  0.3272 -0.0067 -0.0838
 4766W        W19897   2.825   6.928   2.294 -0.0350  0.1237 -0.0296
 4767W        W19898  18.436   9.765   2.453  0.0709  0.0059 -0.1162
 4768W        W19899   3.087  15.483  15.203  0.0051  0.1344  0.0333
 4769W        W19900   6.186   0.242   0.317  0.2468  0.3328  0.1022
 4770W        W19901   2.838   5.808   4.952 -0.0461 -0.0981 -0.0254
 4771W        W19902  10.388  15.556   0.659 -0.0367  0.0634 -0.1965
 4772W        W19903  16.272  16.551   4.676  0.0655  0.1256  0.0325
 4773W        W19904   3.858   3.004   2.050  0.1982  0.3260 -0.0489
 4774W        W19905   8.399  11.518  14.673 -0.0150 -0.2253  0.0403
 4775W        W19906   9.372   0.854  14.082  0.4481 -0.2021 -0.0246
 4776W        W19907  13.320  13.323  12.792 -0.1089  0.0936 -0.1861
 4777W        W19908  15.112  15.129   5.424  0.0523 -0.0084  0.2765
 4778W        W19909   4.417  11.779   1.463 -0.0546 -0.1534 -0.0733
 4779W        W19910   4.619  18.215   0.740 -0.3515 -0.2573 -0.1091
 4780W        W19911   1.347  15.794   3.577 -0.3368  0.0391 -0.1455
 4781W        W19912  17.883   7.490   2.363  0.1767  0.1441  0.1585
 4782W        W19913  13.152  11.693  11.113  0.1173 -0.0337  0.4455
 4783W        W19914  10.835   8.424  14.766 -0.2871  0.0173  0.0439
 4784W        W19915   1.725   8.537   5.491 -0.3148  0.2805  0.3548
 4785W        W19916   9.547   2.018  12.677 -0.0542 -0.2571  0.1272
 4786W        W19917  13.062  15.026  10.032 -0.0919 -0.2753  0.2493
 4787W        W19918  15.427  10.437   3.067  0.2601  0.3336  0.0338
 4788W        W19919   3.656   6.547  12.108  0.1885  0.0914  0.0063
 4789W        W19920   6.959  18.288  14.221 -0.1281 -0.0460 -0.1944
 4790W        W19921  15.626   2.859  12.040  0.3260 -0.1884 -0.0118
 4791W        W19922   2.602   8.367  11.067 -0.0015  0.3296  0.2277
 4792W        W19923   1.671   0.155   4.803  0.3407  0.2721  0.2480
 4793W        W19924   7.989  15.691   4.762 -0.1910 -0.0159 -0.2164
 4794W        W19925   1.710   7.152   5.572  0.4403  0.0961 -0.0378
 4795W        W19926  16.519  16.947   1.520  0.2318 -0.0176  0.1202
 4796W        W19927  16.028  17.271   3.942  0.1974 -0.2952 -0.2524
 4797W        W19928  15.874   4.166   4.781  0.0021  0.0817  0.3246
 4798W        W19929  16.539   7.922   3.149  0.1378 -0.0639 -0.2242
 4799W        W19930  11.747   8.026  10.346  0.1835 -0.0242  0.6001
 4800W        W19931   4.279   1.930  13.015 -0.2785 -0.1088 -0.1542
 4801W        W19932   9.155   6.268  12.412 -0.0864 -0.1086  0.2449
 4802W        W19933  10.489  10.513   0.263 -0.1536 -0.0178 -0.0771
 4803W        W19934  13.429   1.447  10.513 -0.0358  0.1049  0.0584
 4804W        W19935  17.070  14.345   4.448 -0.0433  0.1408  0.2251
 4805W        W19936   8.100  11.521  12.969 -0.2949 -0.1249  0.4026
 4806W        W19937   9.430  18.422  15.721  0.1450 -0.2325 -0.1910
 4807W        W19938  17.565  11.291  14.032 -0.4063  0.0198 -0.0069
 4808W        W19939   8.144   9.775  15.478  0.0969  0.1014 -0.0225
 4809W        W19940  11.528  18.454  11.180  0.0070 -0.0886  0.0869
 4810W        W19941  18.256  15.357   1.965  0.0601  0.0338 -0.2089
 4811W        W19942  16.810   4.994  15.672 -0.1746 -0.0266  0.0319
 4812W        W19943   2.134   4.639  15.126  0.1332 -0.3391 -0.1404
 4813W        W19944   5.043  10.194   0.620  0.0447 -0.0683  0.0484
 4814W        W19945  12.796   8.177   3.086 -0.0130  0.2236  0.0147
 4815W        W19946  13.586   9.298   1.627  0.2973  0.1164  0.1336
 4816W        W19947   1.782   5.783   2.549 -0.3654  0.1071  0.1347
 4817W        W19948   3.349   6.166  10.823  0.1872 -0.0235 -0.0700
 4818W        W19949  10.238   5.395   1.793 -0.1378 -0.0650 -0.1619
 4819W        W19950  12.816  16.241  13.527 -0.0789  0.0029 -0.5462
 4820W        W19951  12.734  10.023  10.464  0.1482 -0.1667  0.2675
 4821W        W19952   3.732  17.828  12.641  0.1898  0.0250 -0.1728
 4822W        W19953  16.473   8.708   4.799 -0.1649 -0.3074 -0.3371
 4823W        W19954  11.582  15.010  11.537  0.2459  0.1389  0.2613
 4824W        W19955  18.421  11.200  15.379 -0.1781 -0.0684  0.0558
 4825W        W19956   8.079   0.831   4.923  0.1988  0.0706 -0.3782
 4826W        W19957   4.217  10.508   3.493  0.2815 -0.0867  0.3987
 4827W        W19958  18.533   2.126   1.335 -0.0398 -0.0855  0.0273
 4828W        W19959  12.457   8.160  10.916 -0.0113  0.1856  0.2350
 4829W        W19960  14.041  16.187  11.046 -0.1158 -0.2252 -0.1739
 4830W        W19961  15.515  16.701  14.273  0.4473  0.0886 -0.2758
 4831W        W19962  13.766   4.832   9.858 -0.2502  0.0816 -0.1280
 4832W        W19963   0.484  13.319   3.879  0.1019 -0.0521 -0.1435
 4833W        W19964  12.007  10.627   4.316 -0.3546  0.3483 -0.1510
 4834W        W19965   2.708  12.619  12.136 -0.0896 -0.0900 -0.2701
 4835W        W19966  10.495   9.767  11.465  0.1455 -0.0324 -0.1948
 4836W        W19967   2.444   7.661  10.454  0.0658  0.1095  0.1963
 4837W        W19968  14.492   9.832   3.033 -0.0548  0.3102  0.0981
 4838W        W19969  17.354   6.175  15.789 -0.1720 -0.0609  0.1788
 4839W        W19970   4.557   6.496  12.466 -0.5033 -0.2058 -0.0634
 4840W        W19971   7.616  15.477  15.146  0.0089 -0.1307 -0.0664
 4841W        W19972   6.906   2.476   2.886  0.1419  0.5348  0.0090
 4842W        W19973   2.733   3.992   4.005 -0.0248 -0.1427 -0.1260
 4843W        W19974   2.077   3.627  10.626 -0.0984 -0.4676  0.1119
 4844W        W19975   2.745   0.780  11.395  0.0675 -0.0182  0.1037
 4845W        W19976   0.393  14.556   0.173  0.1710 -0.5621 -0.1023
 4846W        W19977  12.222   4.696   1.473  0.1841  0.0098  0.0388
 4847W        W19978   3.636   2.699   5.499  0.0716 -0.1259  0.0135
 4848W        W19979   1.176   6.692  11.670  0.0750 -0.4357  0.1724
 4849W        W19980   6.038   4.514   0.406 -0.1578  0.0330  0.0193
 4850W        W19981   8.865   9.232   4.141 -0.2961  0.2146 -0.0063
 4851W        W19982   2.124   5.380  10.042  0.0143  0.0299 -0.2655
 4852W        W19983  16.371   8.136  10.652 -0.1235 -0.0186 -0.0314
 4853W        W19984  17.864   0.491   2.739 -0.1995  0.0770 -0.0410
 4854W        W19985   6.892  10.930   5.159 -0.3491  0.0589 -0.0332
 4855W        W19986  16.044  14.717  14.941 -0.2335 -0.1545  0.4787
 4856W        W19987   2.267   3.593  15.293 -0.0172 -0.4374  0.2050
 4857W        W19988   2.355  17.810  14.811 -0.1050  0.0604  0.0710
 4858W        W19989   0.884   1.426   4.133  0.2031 -0.1363 -0.0141
 4859W        W19990  11.690   5.740  11.797 -0.3375 -0.2692  0.1259
 4860W        W19991   3.993   6.173  11.570 -0.1235 -0.0878 -0.0588
 4861W        W19992   3.037   4.319   4.825  0.0502 -0.3434 -0.3667
 4862W        W19993  11.911   3.902   2.786 -0.3094 -0.1104 -0.1473
 4863W        W19994  12.718   3.577   3.647  0.0158 -0.0916  0.3245
 4864W        W19995   0.692  13.205   1.918  0.1385 -0.0294 -0.0435
 4865W        W19996   1.975  16.106  13.697 -0.0246  0.1064 -0.1297
 4866W        W19997  14.926   3.019   5.576 -0.2294 -0.0734  0.4475
 4867W        W19998   8.456  18.487   1.697 -0.1984  0.0534 -0.3449
 4868W        W19999  12.614  15.901  11.395  0.2798 -0.0608  0.1348
 4869W        W20000   7.970  12.138  11.011  0.0172 -0.1570  0.0718
 4870W        W20001   3.911  14.651  13.763  0.1951  0.2071  0.1579
 4871W        W20002  17.240   2.604  10.080 -0.3288 -0.2238  0.3413
 4872W        W20003  11.615   3.130   0.950 -0.1943  0.2374  0.1315
 4873W        W20004   9.329   6.054   0.123 -0.1084  0.3146  0.2304
 4874W        W20005  10.969  18.436   1.930 -0.3173  0.0549 -0.0630
 4875W        W20006   7.442  15.618  11.337  0.0125  0.0289  0.1478
 4876W        W20007  17.446  14.649  10.822  0.0596  0.2832  0.1116
 4877W        W20008  11.745   7.931  12.141 -0.3026  0.1152  0.2382
 4878W        W20009  15.793  12.852   1.939 -0.0413  0.0426  0.0680
 4879W        W20010  13.929   5.055  11.756  0.5700 -0.0175  0.2699
 4880W        W20011   5.682   0.612  10.141 -0.4496  0.1124 -0.2626
 4881W        W20012   2.711   2.129   1.370 -0.2316 -0.3896 -0.0228
 4882W        W20013  17.620   9.386   1.421  0.2608  0.1148  0.1763
 4883W        W20014   4.157  12.483  11.033  0.3040 -0.2366  0.1194
 4884W        W20015  18.493  15.356   2.599 -0.2368  0.2630 -0.1461
 4885W        W20016  12.667  12.174  13.796  0.1233 -0.2291  0.3099
 4886W        W20017  10.891  13.559   1.138 -0.1342 -0.0712 -0.1341
 4887W        W20018  10.963   6.703   0.090 -0.1929 -0.1843  0.2344
 4888W        W20019   2.905  16.149  12.732 -0.0115  0.0138 -0.2511
 4889W        W20020   2.792   5.274  10.866  0.0192 -0.0476 -0.4404
 4890W        W20021   1.749  10.139  14.360 -0.0915  0.2251  0.0208
 4891W        W20022   6.343  12.042   4.118 -0.1172 -0.0372  0.0226
 4892W        W20023  16.682   1.138   3.931 -0.0368  0.0943 -0.1861
 4893W        W20024  10.571   6.828  14.174 -0.0501 -0.1340 -0.0861
 4894W        W20025  13.310  18.627  11.161  0.0873  0.0018 -0.2620
 4895W        W20026   2.214   7.354  12.522  0.1999 -0.0658  0.1588
 4896W        W20027   0.955   1.403   3.130  0.0173  0.0264 -0.0414
 4897W        W20028  13.214  11.776   0.609 -0.1019 -0.1514 -0.1152
 4898W        W20029   0.108   8.673  11.041  0.2641 -0.1217  0.1008
 4899W        W20030  13.375  14.399   5.169  0.1828  0.1094  0.0151
 4900W        W20031   2.520  12.526   1.795  0.5133  0.0603  0.1769
 4901W        W20032  18.411   9.927   2.000 -0.0757 -0.0113  0.3518
 4902W        W20033  16.445   9.338  11.685  0.1603 -0.2311 -0.1238
 4903W        W20034   9.338   6.575   0.209  0.0358  0.2878  0.0844
 4904W        W20035  15.290   7.329   1.015 -0.0959 -0.4987 -0.0756
 4905W        W20036   4.055   6.532   5.126 -0.3788  0.6056  0.3837
 4906W        W20037   0.068   2.934   2.346  0.0385  0.0222 -0.0285
 4907W        W20038   0.553   0.372   6.186 -0.0427  0.2576 -0.2249
 4908W        W20039   3.141  11.766  14.337  0.2400 -0.2451 -0.3349
 4909W        W20040   0.582  10.662  12.461 -0.2228 -0.0304 -0.1592
 4910W        W20041   1.514  16.846  13.954  0.3765 -0.2619  0.0393
 4911W        W20042   7.459   1.734  15.214 -0.4265  0.2885 -0.3494
 4912W        W20043   4.466  13.652   4.243 -0.1149 -0.1088 -0.1653
 4913W        W20044   4.396   1.456  15.218  0.0520 -0.0373 -0.2919
 4914W        W20045   7.501   9.922  10.213  0.0215 -0.0016 -0.1178
 4915W        W20046   0.549  10.977  10.766 -0.1105 -0.0412 -0.4326
 4916W        W20047  16.737   7.265  14.259 -0.1690 -0.0054  0.1002
 4917W        W20048   6.970  16.740   6.132  0.2411  0.3297 -0.1291
 4918W        W20049   8.340  18.599  11.461  0.1769 -0.0877 -0.0436
 4919W        W20050  17.813  13.430  11.587  0.3865 -0.1005 -0.2219
 4920W        W20051  10.543  12.985   2.668  0.1970 -0.0658  0.0449
 4921W        W20052   7.954   2.294  13.999  0.0196 -0.0568 -0.0171
 4922W        W20053  17.641  11.437   5.283 -0.0592  0.0380  0.1712
 4923W        W20054  12.714  10.164   1.602 -0.2433 -0.0071  0.2454
 4924W        W20055  11.764   3.691   4.159  0.2592  0.2591  0.1007
 4925W        W20056  14.615   1.722  14.300 -0.2409 -0.1847  0.1644
 4926W        W20057   4.686  15.871   4.425 -0.0760  0.0867 -0.0794
 4927W        W20058  14.935  16.389  10.845 -0.0532 -0.0108 -0.2061
 4928W        W20059  17.050  14.542  15.021 -0.2603 -0.2306  0.1025
 4929W        W20060   2.946   0.968   1.500  0.5538 -0.3313  0.0871
 4930W        W20061   8.499   4.984  11.890 -0.0586  0.1482 -0.2260
 4931W        W20062   3.797   7.906  15.048  0.4615 -0.0475 -0.1813
 4932W        W20063  13.382   3.915  11.343  0.2065 -0.0196 -0.2100
 4933W        W20064  16.324  16.201  13.224 -0.0196  0.0441  0.0897
 4934W        W20065   9.096  10.587  10.913 -0.0567 -0.0492  0.3313
 4935W        W20066   9.152   0.535   0.281 -0.1065  0.3221 -0.2340
 4936W        W20067  15.218   6.678  12.342 -0.1082  0.5211 -0.2676
 4937W        W20068  11.006  10.868  10.267  0.0838  0.1017  0.0388
 4938W        W20069   0.446  14.591  15.414 -0.3049  0.1504  0.3947
 4939W        W20070  10.912  13.148  13.845  0.0669  0.3709  0.0452
 4940W        W20071  10.920  11.974   4.817  0.1573 -0.3528 -0.0294
 4941W        W20072  17.917   6.744  14.380 -0.1149 -0.2105  0.2756
 4942W        W20073   0.080  12.783   4.776 -0.0402 -0.3504 -0.0220
 4943W        W20074   4.627  10.887  14.793 -0.0496  0.0463  0.0776
 4944W        W20075   2.372   9.439  14.133  0.0026  0.0584 -0.0560
 4945W        W20076  17.748  18.523  13.577 -0.0300 -0.2894 -0.0949
 4946W        W20077  15.471   6.648  15.579  0.2778 -0.0741 -0.3825
 4947W        W20078  14.540  10.499   0.349 -0.2160 -0.1189  0.1126
 4948W        W20079   5.925  10.857  13.898 -0.0050  0.1597  0.1145
 4949W        W20080   7.848  12.992   1.431 -0.1525 -0.1711  0.2572
 4950W        W20081  18.282   1.974  11.549 -0.0482  0.3014  0.0031
 4951W        W20082  11.408  11.761  10.626  0.1567 -0.2076 -0.3197
 4952W        W20083   9.754  12.214  11.696 -0.1025  0.1863  0.3559
 4953W        W20084   0.436   4.230  12.342 -0.4158  0.4843  0.1338
 4954W        W20085   6.273   4.006   0.434  0.1750 -0.2022 -0.3230
 4955W        W20086   6.269   8.862   2.144 -0.1277 -0.1075 -0.1447
 4956W        W20087   8.012  13.190   0.506 -0.3152  0.1635 -0.0250
 4957W        W20088   0.282  16.235   4.719 -0.3344 -0.3211 -0.0928
 4958W        W20089   3.514   1.032   5.639 -0.0087 -0.0853 -0.1437
 4959W        W20090   0.581  16.975   5.408  0.2064 -0.2663  0.2247
 4960W        W20091  16.722  13.481  15.291  0.2146 -0.1292 -0.0624
 4961W        W20092  15.073  11.508   2.350 -0.1999  0.0037  0.1586
 4962W        W20093  18.623   5.239  11.758 -0.1417 -0.1165  0.1945
 4963W        W20094  12.446   4.701   2.662 -0.2240  0.0166 -0.0227
 4964W        W20095   1.532  13.733  13.054  0.2291 -0.0796  0.0811
 4965W        W20096  14.965  15.579   2.568 -0.0239  0.1085  0.0844
 4966W        W20097  13.109  12.299  11.511 -0.0801  0.0137  0.2167
 4967W        W20098   8.305  16.257  12.591 -0.1208 -0.0628  0.0179
 4968W        W20099  18.222   2.168  14.657  0.0531 -0.1642  0.0850
 4969W        W20100  13.581   3.127  12.540  0.1301 -0.0773  0.0177
 4970W        W20101  16.759  14.842   3.718  0.0643 -0.0636  0.0718
 4971W        W20102   2.645   0.639   1.242 -0.1397  0.0532 -0.0879
 4972W        W20103   7.262   4.751   5.032 -0.0998 -0.0364  0.1218
 4973W        W20104   7.441   6.728  12.180 -0.1951  0.1157 -0.1737
 4974W        W20105   6.377  14.670   2.244  0.1098  0.1642 -0.0934
 4975W        W20106  17.432   8.183   3.922 -0.2776 -0.0682  0.0415
 4976W        W20107   2.951   2.804  13.986 -0.1272 -0.1275 -0.3959
 4977W        W20108   3.572   0.305   4.238  0.0175 -0.1615  0.0931
 4978W        W20109  12.783   7.242  10.463 -0.4327  0.0332 -0.2238
 4979W        W20110   0.228  18.342  11.239  0.0031 -0.0597  0.0385
 4980W        W20111   4.658   8.493   4.636  0.1540 -0.0417 -0.0574
 4981W        W20112  16.619   4.478  10.737  0.3422  0.1502  0.0909
 4982W        W20113   7.019   7.805  11.840  0.1314  0.0634  0.2574
 4983W        W20114  15.805  10.157   2.739  0.3449  0.0410  0.0246
 4984W        W20115  17.751   7.027  13.242  0.0479 -0.0600  0.1004
 4985W        W20116   4.761  11.277  11.384  0.4224  0.0892 -0.0745
 4986W        W20117  14.635   6.771   0.625 -0.1040  0.1186  0.1208
 4987W        W20118   9.973   9.897   3.700  0.0165 -0.2303  0.2509
 4988W        W20119   9.713   3.790   0.975  0.0144 -0.0366  0.1502
 4989W        W20120   6.156  15.199  14.240  0.2670  0.1324 -0.4005
 4990W        W20121   4.071   5.195  11.548 -0.1019 -0.0189  0.0940
 4991W        W20122  13.285  12.410  12.989  0.1982  0.2652  0.1593
 4992W        W20123  18.530  18.017  13.703  0.0863 -0.0841  0.0735
 4993W        W20124  13.790  12.085  15.155  0.4056 -0.0133 -0.1125
 4994W        W20125   9.921  13.288   0.668  0.1948 -0.3024 -0.2065
 4995W        W20126  17.407   5.301  13.192  0.2456  0.0365  0.0893
 4996W        W20127   3.950   9.308  12.484  0.1197 -0.3217  0.1080
 4997W        W20128   5.549  10.941  12.512 -0.0335  0.2060 -0.0155
 4998W        W20129  11.777   1.427  11.883 -0.0426 -0.0866 -0.3002
 4999W        W20130   7.983   8.558   4.820  0.3467  0.0989 -0.0882
 5000W        W20131   8.631   1.643  14.481  0.0689  0.1903 -0.0903
 5001W        W20132  15.959  15.044  10.881 -0.0433  0.0955  0.0481
 5002W        W20133   6.719   1.974  12.901 -0.3275  0.0160 -0.0880
 5003W        W20134  17.188   4.778  13.453 -0.1996  0.1282 -0.1119
 5004W        W20135   6.915  18.245  15.092 -0.1110 -0.2137 -0.0608
 5005W        W20136   5.773  15.156   2.969 -0.2909  0.0948 -0.1759
 5006W        W20137   2.911   8.586   0.349  0.1054  0.2855 -0.1539
 5007W        W20138  11.015   0.990  13.927 -0.0586 -0.0027  0.0342
 5008W        W20139   3.788  15.741   2.641  0.2827 -0.0246 -0.0284
 5009W        W20140  15.577   6.016   5.541 -0.0192  0.2408  0.1751
 5010W        W20141  14.230  13.621  10.851  0.1908  0.1774  0.0980
 5011W        W20142   2.593   2.050   5.000 -0.0186  0.1655 -0.2297
 5012W        W20143  16.321   1.085  10.771  0.2066  0.1414  0.2477
 5013W        W20144   6.539   7.743   4.798 -0.0978  0.2218 -0.2134
 5014W        W20145   3.322  17.478  12.029 -0.1606  0.0734  0.2053
 5015W        W20146   8.498  15.078   3.277  0.1013  0.0761  0.2534
 5016W        W20147  17.739   8.701  12.189 -0.0980 -0.0102  0.0622
 5017W        W20148  16.136  11.921  13.767  0.0525 -0.2237 -0.2962
 5018W        W20149   6.603   0.272  14.289 -0.3705  0.1087  0.2129
 5019W        W20150   1.746   5.226   9.819 -0.2710 -0.0061  0.2232
 5020W        W20151  18.012   5.922   3.769  0.0437 -0.0517  0.0138
 5021W        W20152   9.679  16.871  12.450  0.3006  0.0721  0.0917
 5022W        W20153  15.598  14.432  14.956  0.0409 -0.0935  0.1151
 5023W        W20154   8.452  14.497   0.661 -0.2174 -0.1061 -0.1625
 5024W        W20155   0.202   9.852  12.203  0.0109 -0.2769 -0.1429
 5025W        W20156  18.289   8.982  13.793  0.2608  0.1591 -0.3151
 5026W        W20157  15.146   4.041  12.540 -0.0488 -0.1968  0.2927
 5027W        W20158   3.041   6.935   0.652  0.2574  0.2064 -0.0824
 5028W        W20159   3.541  13.301   4.851 -0.1161 -0.2884 -0.0199
 5029W        W20160   5.672   7.612   1.589 -0.5317  0.2679 -0.2446
 5030W        W20161  15.444  17.354  11.965 -0.0407  0.2612 -0.2428
 5031W        W20162  12.975   0.524   6.184 -0.3703 -0.2460 -0.1987
 5032W        W20163  18.620  12.183   2.333  0.0041  0.0724  0.2259
 5033W        W20164  18.532  13.455  13.619  0.0470  0.1871  0.0578
 5034W        W20165  17.721  15.576  11.735  0.4399  0.0693 -0.0036
 5035W        W20166  13.201   9.187  14.531 -0.1139  0.1966  0.2392
 5036W        W20167  15.261  14.511   5.742  0.2573  0.0040  0.1592
 5037W        W20168   0.018  14.168  11.494 -0.4052 -0.1068 -0.0996
 5038W        W20169  10.713   4.357   4.106  0.0745  0.0313 -0.3507
 5039W        W20170  12.126   4.081  15.179 -0.1847  0.2304 -0.2111
 5040W        W20171  16.101  15.509  13.199 -0.0033 -0.0634  0.1716
 5041W        W20172  13.295   6.301   2.828 -0.0104  0.1305 -0.0193
 5042W        W20173   7.616   7.390   4.088  0.4887 -0.2878  0.3434
 5043W        W20174   1.929  15.598  14.564 -0.1658 -0.2313 -0.3298
 5044W        W20175  17.107  12.721  11.687  0.1576 -0.2633  0.0744
 5045W        W20176  12.550  14.978  12.900  0.4369 -0.0113  0.0389
 5046W        W20177   5.396  13.962   5.636 -0.2570  0.1545 -0.0311
 5047W        W20178   3.104  13.545  12.950  0.1751  0.1254  0.2881
 5048W        W20179   6.987  16.626  15.203  0.1118  0.1544 -0.2093
 5049W        W20180   3.504  16.514  14.695 -0.2309  0.0473 -0.1438
 5050W        W20181   8.995  14.794  13.555 -0.6291  0.0233 -0.2600
 5051W        W20182   2.951   9.742   3.167 -0.1207 -0.0873  0.2691
 5052W        W20183  18.667  17.261   0.554 -0.0952 -0.2836  0.0412
 5053W        W20184  15.806  17.469  12.760 -0.3514 -0.0357  0.1111
 5054W        W20185   3.552  16.318   2.643  0.4725 -0.0281  0.2385
 5055W        W20186   1.490   3.562  13.661 -0.3074  0.2270  0.0262
 5056W        W20187  17.348  13.327   1.725  0.0574 -0.1923 -0.0384
 5057W        W20188   0.094   0.349  13.168  0.1508 -0.1756  0.1374
 5058W        W20189   6.486  11.654   1.116  0.0033  0.0486  0.0042
 5059W        W20190   8.723  17.356   3.056 -0.1992  0.0566 -0.0629
 5060W        W20191   5.043  10.913  12.566  0.0586  0.0276  0.0038
 5061W        W20192   3.141  14.803   4.012  0.2061  0.0402 -0.0769
 5062W        W20193   7.584   4.820  10.807  0.1006 -0.1160  0.0986
 5063W        W20194  10.379  15.778  12.881 -0.2490 -0.0846  0.0073
 5064W        W20195  10.523  17.246  14.158  0.2027  0.1187  0.0377
 5065W        W20196  14.928  13.977  14.018  0.0622 -0.1893  0.2083
 5066W        W20197   5.920   3.705  14.433 -0.0950  0.2377  0.2198
 5067W        W20198  15.609  11.664   0.278  0.1618  0.1252 -0.2903
 5068W        W20199   1.700  14.074   0.949 -0.4319  0.2248  0.3520
 5069W        W20200   0.814  17.538   3.718 -0.1153  0.0547 -0.0234
 5070W        W20201   5.689  13.657   2.895  0.2676 -0.1267 -0.1980
 5071W        W20202   6.142   8.859  14.661  0.1218 -0.2742 -0.4351
 5072W        W20203   3.104  15.129   3.684  0.0975  0.0787  0.1060
 5073W        W20204  11.280   9.916  14.710  0.2885 -0.0107 -0.0773
 5074W        W20205  17.109   7.471   1.605 -0.1552  0.3662 -0.0552
 5075W        W20206  12.482  14.145   3.825 -0.1706  0.1057 -0.2722
 5076W        W20207   4.490   2.596   0.827  0.2032 -0.2024 -0.0836
 5077W        W20208   1.727  14.583   0.797  0.0447  0.0827 -0.0663
 5078W        W20209   0.579   0.162  11.880  0.2302 -0.3665 -0.1112
 5079W        W20210   8.361  16.440  11.045 -0.0768  0.2542  0.0638
 5080W        W20211   0.773   8.771   2.189  0.1863  0.0207  0.0675
 5081W        W20212   5.160   8.878  11.874 -0.0941  0.0950  0.2222
 5082W        W20213  15.115  10.799  14.255 -0.1200 -0.1230 -0.2291
 5083W        W20214   2.321   4.457  11.005  0.2017  0.3661  0.1371
 5084W        W20215  17.468   0.288  11.852 -0.2393 -0.1649 -0.2664
 5085W        W20216  10.902  15.315   3.061 -0.1984 -0.0615  0.0830
 5086W        W20217   1.230   2.439   4.330  0.2155 -0.0747  0.0945
 5087W        W20218  10.085   2.418  13.150 -0.1317  0.0069  0.1930
 5088W        W20219  15.748   0.045  12.913  0.1457  0.2462  0.1204
 5089W        W20220   7.640  11.497  11.509  0.2289  0.2263 -0.1569
 5090W        W20221   7.531  10.878   0.316  0.1473 -0.0105 -0.1138
 5091W        W20222  14.472  14.537  14.573  0.0434  0.1808 -0.5296
 5092W        W20223   7.468   6.991  14.598 -0.0268  0.1680 -0.0065
 5093W        W20224   3.188   5.815  15.779 -0.1606 -0.1026 -0.1036
 5094W        W20225   1.201  14.523  14.437  0.0333  0.0773  0.3377
 5095W        W20226   0.629  16.034   3.147  0.1284  0.2141  0.2418
 5096W        W20227   1.300  12.054  14.859  0.1575  0.0112 -0.2817
 5097W        W20228  15.409  12.294  15.208 -0.1748 -0.2875  0.1212
 5098W        W20229   3.594  10.602  14.239  0.0380  0.1186 -0.0671
 5099W        W20230   6.690   8.006   1.746  0.1834 -0.0637  0.0481
 5100W        W20231   2.762   4.901  12.818  0.0506 -0.0324 -0.1574
 5101W        W20232  15.823  14.903   0.424 -0.0894 -0.2327 -0.0367
 5102W        W20233  12.942  10.273  10.104 -0.0232  0.1419 -0.1210
 5103W        W20234  12.480  11.630  10.707 -0.1541 -0.0912 -0.0673
 5104W        W20235  16.108   2.720   0.533 -0.1263  0.0620  0.2547
 5105W        W20236   6.597  18.421  10.719  0.1300 -0.0979 -0.3609
 5106W        W20237  10.913  14.100  15.714  0.0115 -0.1171 -0.0632
 5107W        W20238   9.644  10.507   4.004  0.0465 -0.0241 -0.2769
 5108W        W20239   4.478   8.224   3.729  0.0626  0.1061 -0.1353
 5109W        W20240   7.760   0.261  12.290  0.0598  0.0392 -0.0276
 5110W        W20241   6.134   8.103   3.912  0.2109  0.0044  0.1541
 5111W        W20242  12.774   8.129   0.495 -0.0469  0.1512  0.0631
 5112W        W20243  11.247   5.625   0.647  0.2575 -0.3125 -0.0458
 5113W        W20244   1.702  12.256  14.643  0.0716 -0.0631  0.1216
 5114W        W20245  11.658   5.645  13.848  0.1330 -0.0308  0.4428
 5115W        W20246   5.887   0.946  13.118  0.2619  0.2715  0.4103
 5116W        W20247  16.500  15.480   1.544  0.1792  0.2545 -0.1242
 5117W        W20248   4.257  13.466   1.312  0.2388 -0.1713 -0.2297
 5118W        W20249   4.943   2.604  12.055 -0.1986  0.0081 -0.0739
 5119W        W20250   1.661   7.666   2.622  0.0077  0.4144  0.1494
 5120W        W20251  16.220   2.158  10.834  0.4393  0.1996  0.0084
 5121W        W20252   7.961   2.664   1.707 -0.1924  0.0534  0.0912
 5122W        W20253   1.557  10.978  11.565  0.1639 -0.1020  0.0765
 5123W        W20254   6.596  14.703   4.298 -0.0262 -0.2148  0.0861
 5124W        W20255  14.438   1.377   3.247  0.0865  0.1613 -0.1946
 5125W        W20256  11.770  17.678  15.225  0.0035  0.3366  0.1339
 5126W        W20257  10.959  16.405   0.713  0.2297  0.0301 -0.1649
 5127W        W20258   8.817   9.997  13.695  0.0767  0.0512  0.1106
 5128W        W20259   2.445  16.441  11.100  0.2556 -0.1693  0.0153
 5129W        W20260  11.744  11.516   4.379 -0.1241  0.1262  0.1733
 5130W        W20261  18.667   6.738   3.901  0.2489 -0.0014  0.3207
 5131W        W20262  17.915   2.034   3.806  0.0037 -0.0441 -0.2755
 5132W        W20263   4.692   5.620   1.744  0.1240  0.0745  0.1934
 5133W        W20264  11.561   8.525  12.962  0.1425  0.1902 -0.3058
 5134W        W20265   4.171  10.780  15.399  0.0091 -0.0329  0.1056
 5135W        W20266  17.924   4.848   3.794 -0.1494 -0.1553  0.0084
 5136W        W20267   4.413  14.985   2.539  0.0878  0.0789 -0.0156
 5137W        W20268   3.305   9.463   4.882 -0.1695  0.1925 -0.0900
 5138W        W20269   5.303   9.073   6.026  0.4230 -0.1568  0.0124
 5139W        W20270  15.722   3.335  14.392  0.0231  0.1491  0.1335
 5140W        W20271   8.832   3.243   4.301 -0.2188  0.1995 -0.1303
 5141W        W20272   3.926   4.275  12.768  0.2811 -0.3932  0.2524
 5142W        W20273  15.620  11.913  14.377  0.1470  0.0654  0.1317
 5143W        W20274  11.006  11.190   2.476  0.0651  0.2322  0.3564
 5144W        W20275  12.493   8.742   5.026 -0.3544  0.4093 -0.1787
 5145W        W20276  10.627  13.824  14.247  0.2024 -0.3956 -0.2193
 5146W        W20277  16.905   7.724   2.860 -0.1851  0.0907  0.1881
 5147W        W20278   6.167  10.031  10.551 -0.4060 -0.0507 -0.1442
 5148W        W20279  16.455   6.044   3.633 -0.1474  0.1782 -0.0653
 5149W        W20280  16.191   7.086  14.275  0.0106  0.2855 -0.1330
 5150W        W20281  17.779  16.745   0.458 -0.1534 -0.0600 -0.1492
 5151W        W20282  14.191  17.596   4.509  0.0118  0.0338  0.1557
 5152W        W20283  15.381   8.970  15.165 -0.1890  0.1223 -0.2393
 5153W        W20284  17.893  13.624   2.463 -0.1467  0.0171  0.1179
 5154W        W20285   4.192   8.471   1.572 -0.0047 -0.0525 -0.2272
 5155W        W20286   0.754   1.144   1.155  0.2696  0.0518 -0.0128
 5156W        W20287  17.578   3.897   4.031  0.0959  0.1583 -0.1460
 5157W        W20288  14.813   7.097  11.885  0.0841 -0.1520  0.0613
 5158W        W20289   6.846  15.645   0.050  0.1892  0.3279 -0.2447
 5159W        W20290   4.464  10.588   4.673 -0.3345  0.2943 -0.1744
 5160W        W20291  12.415  13.916   3.415  0.3106  0.1029 -0.1651
 5161W        W20292   8.793   6.833   3.169 -0.1676  0.0303 -0.2500
 5162W        W20293   8.892  12.066   3.554 -0.0217  0.0576 -0.0637
 5163W        W20294   3.756   9.454  11.632 -0.0442 -0.1772 -0.1546
 5164W        W20295   4.995   8.786  11.307 -0.1974  0.1109  0.0498
 5165W        W20296   0.439   5.510   2.823  0.1996 -0.2072  0.0590
 5166W        W20297  10.606   0.863   5.021  0.0871 -0.1030 -0.3290
 5167W        W20298   1.214  12.330  14.471  0.1102 -0.0351 -0.1045
 5168W        W20299  14.392   1.800  14.717  0.1621 -0.2617 -0.4052
 5169W        W20300  12.012   5.150   9.827  0.1269  0.3726  0.3574
 5170W        W20301   2.340  16.108   3.419 -0.1774 -0.0262 -0.0308
 5171W        W20302   6.789   4.146  11.390 -0.0854 -0.0008  0.0856
 5172W        W20303  12.851   8.456   1.281  0.0255  0.3369 -0.2100
 5173W        W20304  18.611   1.989   0.302 -0.3505 -0.3692 -0.5923
 5174W        W20305   6.612   2.260  15.577  0.0537 -0.0777 -0.0981
 5175W        W20306   9.423   6.202   0.559  0.1287 -0.0141 -0.0284
 5176W        W20307   4.190   4.769   5.555 -0.1398 -0.2522  0.1968
 5177W        W20308   4.730  14.121  14.997  0.2206 -0.0005  0.1003
 5178W        W20309  11.452  12.161   2.576 -0.1656  0.1788 -0.0432
 5179W        W20310   6.836  12.440   4.915  0.4083 -0.0162  0.1305
 5180W        W20311   6.487  18.616   4.915  0.0396 -0.2774 -0.1657
 5181W        W20312   5.736  14.611   2.980 -0.1107  0.0049 -0.0643
 5182W        W20313  13.646  15.130  14.595  0.0766 -0.2571  0.0184
 5183W        W20314  18.137  17.767   2.341 -0.0729  0.4324  0.1827
 5184W        W20315  15.920   0.072   4.893 -0.1535 -0.0658  0.1280
 5185W        W20316   0.172  18.120   5.834  0.2737 -0.0156  0.2552
 5186W        W20317   2.783  13.659   0.299 -0.1532 -0.3495  0.2789
 5187W        W20318   8.987   5.397   0.585 -0.2990 -0.0683 -0.1287
 5188W        W20319  13.684   4.661   2.074 -0.0772 -0.0796  0.1001
 5189W        W20320   4.142   8.739  10.271  0.1400 -0.0699  0.4683
 5190W        W20321  17.876  12.550  15.618 -0.2008  0.0026 -0.2211
 5191W        W20322   8.355  17.221   3.933  0.1886 -0.1020  0.1334
 5192W        W20323   5.474  10.300  15.465  0.3924 -0.1490  0.0103
 5193W        W20324  14.581   3.807   1.653 -0.1245 -0.2382 -0.2830
 5194W        W20325  15.906  18.485   1.140  0.2927  0.1149  0.2802
 5195W        W20326  14.460  12.219  12.020  0.0946 -0.0151  0.0942
 5196W        W20327  13.388  16.950  12.035 -0.0647 -0.0909 -0.0976
 5197W        W20328  15.176   6.459  13.151 -0.1734  0.0138 -0.1422
 5198W        W20329  10.292  17.459   2.110  0.1121  0.3810 -0.1734
 5199W        W20330   0.750   6.801   0.149  0.3854 -0.1967 -0.1364
 5200W        W20331   7.711   6.274  15.782  0.0511  0.1105 -0.3335
 5201W        W20332  16.814   6.207   1.365  0.0322  0.0597  0.0736
 5202W        W20333  10.205  10.008   5.518  0.1364 -0.2029  0.1227
 5203W        W20334   0.615  14.573   1.336 -0.2806 -0.3861 -0.0019
 5204W        W20335   0.440   1.685  13.526  0.6545  0.3006  0.0806
 5205W        W20336   2.849  13.986   5.137  0.0674  0.3021  0.1964
 5206W        W20337   5.417  12.431   2.002  0.1212 -0.0408  0.1177
 5207W        W20338  15.913   2.210   4.472  0.3155  0.0141  0.1827
 5208W        W20339  14.503   9.787   0.080 -0.3080 -0.0452 -0.1797
 5209W        W20340   8.433   2.435   4.048 -0.1848 -0.4716 -0.2139
 5210W        W20341  10.118  15.670  11.309  0.0495  0.0676 -0.3739
 5211W        W20342   1.324   7.975  12.689  0.0645  0.0131  0.1572
 5212W        W20343   9.619  13.213  12.888 -0.1748 -0.2652 -0.4159
 5213W        W20344   7.665  11.803   4.234  0.1087  0.0576  0.1569
 5214W        W20345   6.939   8.666  14.216  0.1418  0.2004 -0.1176
 5215W        W20346   8.719   7.756  15.168  0.0108  0.2413  0.0038
 5216W        W20347   2.901   6.886  15.726  0.0393  0.0266 -0.3882
 5217W        W20348   0.397   3.757   1.341  0.2736 -0.0078  0.1338
 5218W        W20349   0.089   5.403  10.886 -0.2436 -0.0668 -0.1073
 5219W        W20350   9.492   2.056   2.164  0.1457  0.0537  0.0628
 5220W        W20351  16.152   5.084   3.230 -0.1267 -0.2347  0.0311
 5221W        W20352  14.863   4.342   1.028  0.0884  0.1118  0.5551
 5222W        W20353   4.009   0.280   1.257 -0.1204 -0.0723 -0.1148
 5223W        W20354  15.016  13.534   3.995  0.1671 -0.3002 -0.1160
 5224W        W20355   3.408  12.586   1.796  0.2529 -0.2778 -0.0594
 5225W        W20356  12.031   8.443  12.158 -0.2268 -0.1791 -0.1744
 5226W        W20357   7.413  10.046   4.099 -0.0628  0.3387  0.0234
 5227W        W20358  10.229   3.815  13.868  0.0787  0.1784 -0.1606
 5228W        W20359   4.182  17.938  11.747 -0.2171 -0.1518 -0.0929
 5229W        W20360   4.639   2.599  10.474 -0.1492  0.1768 -0.0106
 5230W        W20361   6.549  13.108   0.341  0.3306  0.0319 -0.1473
 5231W        W20362   1.755   9.526  14.981 -0.1117  0.2687  0.0999
 5232W        W20363  15.840   3.539  13.704  0.1274  0.0728 -0.1887
 5233W        W20364   0.048  15.729   5.433 -0.1745  0.0250 -0.0522
 5234W        W20365  15.430  10.745   4.037 -0.0416 -0.4441  0.2816
 5235W        W20366  17.466  10.706   0.854 -0.0203  0.0238  0.1269
 5236W        W20367   9.051   3.896  14.657  0.0979 -0.1756  0.4172
 5237W        W20368   3.617   2.565   0.323 -0.0541 -0.0574  0.0205
 5238W        W20369   5.541   7.268  14.917 -0.0539  0.3022  0.0780
 5239W        W20370  11.340   6.031  12.197 -0.1138 -0.1711 -0.2910
 5240W        W20371   1.126  17.723  13.071  0.2154  0.1528 -0.0205
 5241W        W20372   8.667   2.338   1.915 -0.0149 -0.2524  0.1198
 5242W        W20373  17.587   0.637   3.126 -0.2880  0.3395 -0.0383
 5243W        W20374  13.754   0.408   3.328 -0.1139  0.3218  0.1387
 5244W        W20375   9.983  15.195   0.612  0.0731  0.0157  0.1732
 5245W        W20376  16.845  17.380  15.410 -0.2247  0.3235  0.1478
 5246W        W20377  13.494   0.823   4.839 -0.0190  0.0176 -0.1925
 5247W        W20378   2.824   6.625   3.678 -0.0677 -0.0305  0.4759
 5248W        W20379   0.636   2.421  13.932 -0.0791 -0.1117  0.2152
 5249W        W20380  16.872  13.469   3.909 -0.3583  0.2121  0.0379
 5250W        W20381  17.952  13.442   5.525 -0.2923  0.0099  0.0432
 5251W        W20382  10.701  14.049   0.894 -0.0385 -0.1132 -0.1816
 5252W        W20383  14.225   8.663  12.465  0.3094  0.2653  0.2011
 5253W        W20384  17.149   3.083   4.866 -0.1175  0.1175  0.3708
 5254W        W20385   7.320   7.783  11.412  0.4270  0.2026 -0.1813
 5255W        W20386   6.994  13.507  14.053 -0.1666 -0.0093  0.1152
 5256W        W20387  16.145   2.769   1.176  0.0932  0.0630 -0.0664
 5257W        W20388   5.618   9.003  13.939 -0.0088  0.0753  0.0476
 5258W        W20389  11.324  15.908   1.700 -0.2747 -0.0029  0.2548
 5259W        W20390  11.113   8.520  11.770  0.1581 -0.0776 -0.5986
 5260W        W20391   0.195  18.251  13.558  0.3603  0.1315 -0.0771
 5261W        W20392  12.488   9.807  15.451  0.3833  0.4148  0.2502
 5262W        W20393  13.822   1.598  11.324  0.0010 -0.2402 -0.1323
 5263W        W20394  11.858   4.400   0.639  0.3953  0.3464  0.3055
 5264W        W20395   3.396  14.600  13.653  0.0731 -0.0055  0.1143
 5265W        W20396   8.974   5.924  11.570  0.2098 -0.1382 -0.0541
 5266W        W20397  11.548  11.582   9.169  0.0831 -0.0106 -0.0662
 5267W        W20398  11.481   9.821   5.657 -0.1311 -0.0454  0.2900
 5268W        W20399  14.236   6.298  11.371  0.0891 -0.1063  0.1170
 5269W        W20400  15.901  12.547   0.403  0.1161  0.0905 -0.2273
 5270W        W20401  11.998  16.415   2.177  0.0992 -0.0562 -0.1277
 5271W        W20402   5.244  11.318  12.281 -0.0407  0.0806 -0.0042
 5272W        W20403   4.213   9.040  13.231  0.2049 -0.1818  0.1952
 5273W        W20404   9.410  10.725   3.622  0.0904 -0.3844  0.3128
 5274W        W20405   2.314  16.056   1.818 -0.0958 -0.3675  0.2399
 5275W        W20406  13.429   2.610   2.300 -0.0967  0.0249  0.2177
 5276W        W20407  16.578   0.175   1.869 -0.1798  0.0104  0.0078
 5277W        W20408  11.615   8.590   1.804  0.1328  0.2021 -0.0109
 5278W        W20409   6.630   0.440  10.635  0.2980  0.0558  0.0177
 5279W        W20410  17.304  18.057  11.855  0.1483 -0.0310 -0.0914
 5280W        W20411   7.606  17.935   3.511  0.2748  0.0328  0.0820
 5281W        W20412   7.096  12.283  14.314 -0.0902 -0.0630 -0.2359
 5282W        W20413   0.042   7.295   1.940  0.0828 -0.1164  0.2294
 5283W        W20414  13.484  17.372  12.897 -0.0508 -0.0148  0.1484
 5284W        W20415   3.726   8.252  13.353  0.0241  0.2570 -0.0546
 5285W        W20416   6.345   0.690   4.106  0.3098 -0.1962  0.1590
 5286W        W20417  14.835   7.552   5.847 -0.1022  0.1396  0.0073
 5287W        W20418   6.611   9.622   3.690  0.0056 -0.3340 -0.1663
 5288W        W20419  11.920  13.171   0.066 -0.2030 -0.3250 -0.1648
 5289W        W20420   8.460  12.498   3.940 -0.2744  0.2607 -0.3721
 5290W        W20421   5.360   2.905  13.735  0.1731 -0.3666 -0.1293
 5291W        W20422   0.243   0.150   3.738  0.2584  0.4806  0.2066
 5292W        W20423   2.057   9.607  13.753 -0.3171  0.0370  0.0188
 5293W        W20424   3.461  10.967  11.275 -0.1298  0.2253 -0.0460
 5294W        W20425  16.177   1.278   3.844  0.1044 -0.3825 -0.0227
 5295W        W20426   3.695   9.815   2.787  0.5700 -0.1802 -0.2441
 5296W        W20427   2.292  16.923  10.856 -0.3882 -0.0360 -0.0436
 5297W        W20428  12.962  16.398   0.762 -0.0627 -0.0554  0.1877
 5298W        W20429  13.196  15.145   4.894  0.2372  0.1778  0.2288
 5299W        W20430  12.424   2.966   2.370  0.0855  0.3386 -0.2210
 5300W        W20431  12.469   5.543  14.958 -0.2300  0.0262  0.1023
 5301W        W20432  16.846  16.987  15.043 -0.0850 -0.0747  0.2256
 5302W        W20433   2.999  12.208  15.564  0.0122  0.1549  0.1854
 5303W        W20434   7.823  16.945  14.648 -0.2895 -0.0826 -0.0743
 5304W        W20435   5.106  13.342   4.924  0.2454  0.0617 -0.0244
 5305W        W20436  18.213   2.202  13.927  0.1784 -0.1826  0.1989
 5306W        W20437  17.561  12.733   1.914  0.0051 -0.4001 -0.1002
 5307W        W20438   8.552   0.495   2.380  0.0374  0.2650 -0.4549
 5308W        W20439  11.152  15.246   0.984 -0.0793  0.3685 -0.4267
 5309W        W20440   0.041   7.655  11.773 -0.1455 -0.2130  0.2961
 5310W        W20441   1.231  17.878   2.428 -0.0657  0.2628  0.3946
 5311W        W20442   0.678  10.354   9.663 -0.2365  0.0225  0.1959
 5312W        W20443   8.847   9.421   0.101 -0.3544 -0.2190 -0.0972
 5313W        W20444  10.900   0.801   3.958 -0.4177  0.1037  0.0988
 5314W        W20445   6.451  12.288   2.116 -0.2674 -0.0027  0.0203
 5315W        W20446  12.547  16.836   3.686 -0.0820  0.1030  0.0707
 5316W        W20447   3.252   5.623   1.812 -0.2628  0.2325  0.0302
 5317W        W20448   6.612  12.658  13.231  0.0440  0.0046 -0.3502
 5318W        W20449  18.530  14.223  14.213  0.3165 -0.0803 -0.0055
 5319W        W20450   9.452  14.639   4.014  0.0759 -0.1931  0.0496
 5320W        W20451   2.709  13.902  13.048 -0.1375  0.1531  0.0998
 5321W        W20452  10.193   4.550   1.306 -0.3540  0.0195 -0.0923
 5322W        W20453  10.075   8.896  14.912  0.0574 -0.2143 -0.0625
 5323W        W20454   7.952  14.563  11.064 -0.2438  0.2452  0.0988
 5324W        W20455   9.872  11.069  15.409  0.3236 -0.0375  0.1673
 5325W        W20456   0.500  10.941  15.126 -0.1722  0.1476 -0.4012
 5326W        W20457  16.520   5.460  13.732 -0.0582  0.3173  0.0306
 5327W        W20458   7.836  12.539  14.076 -0.0405  0.1443 -0.1744
 5328W        W20459   6.189  15.668   3.155 -0.0708  0.1528  0.3372
 5329W        W20460   3.629  17.591  11.052 -0.0093 -0.0469  0.4312
 5330W        W20461  10.701  17.364   3.043  0.5397 -0.0544  0.1060
 5331W        W20462   1.793   8.402   4.040 -0.0397 -0.2170  0.0304
 5332W        W20463   2.144  18.187   0.716 -0.2054 -0.1609  0.1101
 5333W        W20464   9.112   5.938  15.468 -0.1666  0.0167  0.1662
 5334W        W20465   5.946  15.256   1.661  0.1722 -0.2223 -0.2678
 5335W        W20466  12.986   8.028   2.092  0.0088 -0.0115  0.2323
 5336W        W20467  12.084   3.391   0.712  0.0957  0.0690  0.0383
 5337W        W20468  12.614   5.724  13.834 -0.0569  0.3324 -0.3541
 5338W        W20469   5.522  13.482  13.800  0.0869 -0.2427  0.1853
 5339W        W20470   4.440   1.743   4.637  0.2869  0.1215 -0.0919
 5340W        W20471  12.103  11.147   4.522 -0.3291 -0.0960  0.0161
 5341W        W20472  16.725   8.658  14.364  0.0391 -0.2830 -0.1986
 5342W        W20473   0.003  10.216   1.667 -0.0815  0.1869  0.1128
 5343W        W20474  15.806   3.022   0.879 -0.4742 -0.3183 -0.0172
 5344W        W20475   3.504  12.198   1.415 -0.0103 -0.2744  0.1456
 5345W        W20476   9.319  12.889   0.354 -0.1143 -0.0057 -0.4366
 5346W        W20477  11.873   9.512   1.064  0.0618  0.4244  0.0977
 5347W        W20478   8.684  15.364  12.810 -0.1658 -0.0761 -0.0967
 5348W        W20479  11.718  16.077   1.996  0.1860  0.1045  0.0993
 5349W        W20480   6.372   1.481   2.573 -0.4091  0.0386  0.0602
 5350W        W20481   7.515  16.311  13.089  0.0351  0.0087  0.1605
 5351W        W20482   8.439  13.957  14.190 -0.4136  0.2214  0.1413
 5352W        W20483  14.939   6.586   4.111 -0.2181  0.1123 -0.4989
 5353W        W20484   5.785   9.995  11.522  0.1599  0.2027  0.0256
 5354W        W20485  14.930  15.820   0.733  0.0548  0.1722 -0.2227
 5355W        W20486   2.426   7.948  14.623 -0.5026 -0.1750 -0.2108
 5356W        W20487  11.574   5.542   4.300  0.1407  0.3536  0.3347
 5357W        W20488  12.518   0.728   1.153  0.0206  0.0252  0.2350
 5358W        W20489  17.645   9.426  15.040 -0.2121 -0.3415  0.0346
 5359W        W20490   1.176  15.049   4.549 -0.1268 -0.0197 -0.0739
 5360W        W20491   1.316   6.279  11.412 -0.2922 -0.1933 -0.0932
 5361W        W20492  17.962   1.628   4.763  0.0035  0.0382 -0.1558
 5362W        W20493   7.188  11.177   4.820  0.0841  0.1361  0.1779
 5363W        W20494   3.674   6.847   9.663 -0.1541  0.3502  0.3655
 5364W        W20495  15.376  10.143   0.181 -0.1267 -0.1182  0.2107
 5365W        W20496   2.557  17.598   2.530  0.0738  0.1303 -0.0390
 5366W        W20497  13.985   9.494  11.916 -0.3171 -0.2447  0.2610
 5367W        W20498  10.437  10.841   3.511  0.0358  0.0542  0.0278
 5368W        W20499  13.425   1.925  11.381 -0.2819  0.1483 -0.1664
 5369W        W20500   7.805  10.333   2.289 -0.2501 -0.0656  0.0022
 5370W        W20501   1.857  15.854   1.682  0.3559  0.1431 -0.0424
 5371W        W20502   0.664   3.220  13.189 -0.2449 -0.1940  0.3385
 5372W        W20503   9.232  16.756   4.461  0.3207  0.0537  0.0653
 5373W        W20504  12.582   5.338   0.866  0.3208 -0.4077  0.2623
 5374W        W20505   0.641  10.586  14.708 -0.0542  0.0414  0.0040
 5375W        W20506   4.599  11.954  13.155 -0.0719 -0.2597 -0.1058
 5376W        W20507  11.611   4.914  15.656 -0.1268  0.3382  0.0122
 5377W        W20508  13.570   8.735   0.499 -0.0912  0.0976  0.2013
 5378W        W20509   2.910  16.624  11.507 -0.2262  0.1089 -0.0411
 5379W        W20510  10.608  17.540   3.513  0.2295  0.3516  0.0258
 5380W        W20511  12.869   6.940   1.259  0.0553  0.0048 -0.4150
 5381W        W20512  14.300  11.859   5.467  0.0662 -0.0113 -0.3422
 5382W        W20513   3.543   7.944  14.071 -0.0575  0.2133 -0.1576
 5383W        W20514  18.185  14.818  11.461  0.0418  0.0766  0.0203
 5384W        W20515   8.348  17.019  12.038 -0.0449 -0.0628  0.0334
 5385W        W20516  15.357  13.269   2.103  0.0355  0.0887 -0.2341
 5386W        W20517   6.836  11.675   1.876  0.2028  0.1243  0.0800
 5387W        W20518   6.382   8.095   0.408 -0.2493  0.2473  0.0478
 5388W        W20519   2.903   6.012  14.422  0.0358 -0.0558 -0.2493
 5389W        W20520   1.263  11.157   2.805  0.1708 -0.1590  0.2003
 5390W        W20521   1.410   1.522  12.975 -0.2377  0.2001 -0.0100
 5391W        W20522   7.873  18.175  13.708 -0.1010 -0.1861 -0.0116
 5392W        W20523   7.418   9.983   2.315 -0.2133  0.3254 -0.0727
 5393W        W20524  11.286  16.461   9.637  0.1476 -0.2038 -0.1557
 5394W        W20525  13.832   9.850  14.646 -0.2879 -0.1351  0.0121
 5395W        W20526   6.061  14.742   5.422  0.4077  0.2162  0.0778
 5396W        W20527   7.188   1.851   5.237 -0.5247 -0.0385  0.0472
 5397W        W20528   0.263   3.462   4.186 -0.0909  0.0587  0.1497
 5398W        W20529   6.392  14.228  14.652  0.0079  0.0769  0.1585
 5399W        W20530   9.765  16.058  11.439  0.3531  0.1017 -0.1818
 5400W        W20531  10.426  12.847   1.423  0.0705  0.0130  0.0157
 5401W        W20532  17.705  18.117  11.376  0.3576 -0.2186  0.1158
 5402W        W20533   6.556   4.062   0.030 -0.1455  0.1693  0.0395
 5403W        W20534  17.755   7.556  14.904  0.0023 -0.0480  0.0583
 5404W        W20535   6.416  12.514  14.088  0.0568 -0.1818  0.1741
 5405W        W20536  11.788  10.678   0.244 -0.0611  0.0476  0.3150
 5406W        W20537   3.944   9.758   3.414  0.1429  0.2082  0.1350
 5407W        W20538  10.438   8.259   2.327 -0.2751 -0.2269  0.3264
 5408W        W20539  18.078   7.209   5.885  0.6293 -0.0132 -0.2596
 5409W        W20540  16.091   2.427   2.576  0.4441  0.0185  0.1579
 5410W        W20541  15.985  13.311   3.260 -0.0249 -0.0649 -0.1131
 5411W        W20542  15.783  10.272  15.666 -0.0462  0.2143  0.1666
 5412W        W20543   9.880  15.893  10.933  0.4502  0.0918 -0.0326
 5413W        W20544   9.675   5.324  10.266  0.2113 -0.2286  0.3005
 5414W        W20545  17.504   0.728  15.447  0.3813  0.1743 -0.2613
 5415W        W20546  14.771   2.179  15.738  0.2357 -0.0159 -0.1409
 5416W        W20547  10.145  13.212   4.701  0.1737  0.0319  0.1263
 5417W        W20548   1.962  17.090   1.392  0.1151 -0.0243  0.1842
 5418W        W20549   3.333   2.117  14.665 -0.0669 -0.0202  0.1020
 5419W        W20550  14.575   5.667   5.160 -0.1233 -0.1124 -0.0327
 5420W        W20551   6.382  10.722  14.127  0.1575 -0.1577  0.2260
 5421W        W20552  11.366   3.293   4.424 -0.1972 -0.3657  0.1315
 5422W        W20553   5.304   0.790  14.422  0.2540 -0.3371  0.1782
 5423W        W20554  18.589   7.226  11.693  0.0343  0.4363 -0.0647
 5424W        W20555  13.760  15.848   0.995  0.0736  0.0948 -0.1489
 5425W        W20556   8.633  13.246   5.517 -0.1181  0.0183 -0.0851
 5426W        W20557   5.130   9.606  14.066  0.1635  0.0958  0.0491
 5427W        W20558  17.001   3.843   0.259 -0.0310  0.0089 -0.0782
 5428W        W20559  15.397  12.815  13.565  0.1976 -0.2941  0.0249
 5429W        W20560   2.222  18.634   5.394 -0.2481  0.0274 -0.0479
 5430W        W20561  15.531   4.167   0.111 -0.1941  0.0710  0.1932
 5431W        W20562   7.467   0.952   3.451 -0.3683 -0.1540  0.0997
 5432W        W20563   6.432   5.982   3.790 -0.2885 -0.0411 -0.3775
 5433W        W20564   4.644  17.960   2.414  0.0241 -0.3682 -0.2494
 5434W        W20565   7.978   6.384  12.980  0.1282  0.0009 -0.0613
 5435W        W20566  17.474  10.370   2.995  0.5172  0.1850  0.2733
 5436W        W20567  12.813  11.909   0.309 -0.0413  0.0878 -0.0243
 5437W        W20568  10.158  14.731   2.381  0.0911  0.2175  0.4049
 5438W        W20569   1.173  17.873  11.460 -0.1372 -0.1031  0.0866
 5439W        W20570   6.531   9.529   1.838 -0.2883 -0.3910 -0.2591
 5440W        W20571  11.104   9.689   2.768  0.2159 -0.1908  0.0534
 5441W        W20572  15.095   7.091   1.511 -0.3032 -0.0045 -0.3272
 5442W        W20573  18.425   8.790   1.349 -0.0502 -0.1416  0.1224
 5443W        W20574  16.433   2.376  12.346 -0.4795 -0.1512  0.1594
 5444W        W20575  10.096  13.741  14.074 -0.0142 -0.0371  0.3599
 5445W        W20576   5.946  17.264  15.534  0.1953  0.1173 -0.0576
 5446W        W20577  16.522   6.014   5.636 -0.0603 -0.3664  0.4695
 5447W        W20578   5.714   9.377   1.844  0.0978 -0.0564 -0.2891
 5448W        W20579   0.763   8.780   3.605 -0.2255  0.2381  0.0074
 5449W        W20580  12.769   8.225  11.354  0.3475 -0.1189 -0.2092
 5450W        W20581   5.484   7.383   0.655 -0.2972 -0.2249  0.2432
 5451W        W20582   5.145   2.498   0.774 -0.1677 -0.2861  0.2390
 5452W        W20583   8.610   7.065   6.013  0.0104  0.1302  0.1945
 5453W        W20584   0.283   6.072   4.792  0.1459 -0.2746  0.1263
 5454W        W20585   2.609   3.102   0.313  0.1997 -0.0152 -0.0869
 5455W        W20586  17.616   3.405   4.709  0.0969 -0.0047 -0.0294
 5456W        W20587   4.363  16.107   1.491  0.0931 -0.0680  0.2855
 5457W        W20588  11.294   3.829  13.039 -0.2398  0.0074  0.2970
 5458W        W20589   0.084   2.633  11.697  0.0606  0.1133 -0.0049
 5459W        W20590   9.915  11.620   1.753 -0.3566  0.4167  0.0451
 5460W        W20591  16.312  10.626   1.581  0.3432 -0.2424  0.1570
 5461W        W20592   4.095  17.484   3.654  0.3218  0.0753  0.0574
 5462W        W20593  12.131  16.169  10.485  0.0288 -0.1820  0.0043
 5463W        W20594  16.554   2.531   5.636 -0.1402  0.2052  0.0967
 5464W        W20595   1.737   6.216  11.641  0.3407  0.2343  0.1684
 5465W        W20596   5.203  16.299   1.035  0.1321 -0.0389  0.2576
 5466W        W20597   2.873  18.659   5.724  0.1106 -0.3263 -0.1015
 5467W        W20598  12.166   5.615  14.516 -0.0646 -0.3824 -0.2789
 5468W        W20599  15.800  13.515  14.898  0.0823 -0.0390  0.0925
 5469W        W20600  13.443   0.170   0.698  0.1222  0.3431 -0.2291
 5470W        W20601  16.618  13.736   2.066  0.1916  0.1756 -0.0640
 5471W        W20602  12.700  17.307   3.589 -0.3442  0.0750 -0.0113
 5472W        W20603  16.008  10.274   3.703  0.0761 -0.0415  0.1470
 5473W        W20604  16.348  10.199  14.816  0.0073 -0.1688 -0.3889
 5474W        W20605   3.594  16.365  12.180 -0.2480  0.0956 -0.0402
 5475W        W20606  15.573   0.257   0.969 -0.0401  0.0723  0.1137
 5476W        W20607   8.760  14.242   0.293  0.0395  0.3756 -0.0238
 5477W        W20608  17.023   8.719  12.178  0.1291  0.1917  0.1383
 5478W        W20609   3.053   0.164  11.598 -0.2122 -0.0141  0.0127
 5479W        W20610   1.089  12.098   1.430  0.0096 -0.1514  0.2573
 5480W        W20611  13.700  12.970   4.501 -0.0953  0.2419  0.1695
 5481W        W20612   2.587  15.787  12.028 -0.2759  0.1155  0.2908
 5482W        W20613  14.237  18.260   5.021 -0.0769  0.3149 -0.3490
 5483W        W20614  17.572   8.781   5.188  0.0843  0.4603  0.2631
 5484W        W20615  11.576  18.567  12.638 -0.2308  0.3140 -0.2266
 5485W        W20616   5.365   5.495   3.710 -0.3432  0.0236  0.2485
 5486W        W20617   9.887   7.517  10.185  0.0807  0.2476 -0.0536
 5487W        W20618   3.604  18.349  15.346  0.0509 -0.0084 -0.1026
 5488W        W20619  11.024  12.564   3.720  0.0470  0.2319  0.2079
 5489W        W20620  17.960   8.371   3.564 -0.2183  0.2018 -0.0478
 5490W        W20621  13.446   3.840   0.010 -0.1699  0.1403 -0.2410
 5491W        W20622  12.174   3.389  15.018 -0.0916  0.2643 -0.0876
 5492W        W20623   8.859  17.130  12.622  0.1146 -0.1982 -0.3150
 5493W        W20624  14.073   7.570   4.810 -0.1074 -0.1422  0.0418
 5494W        W20625  15.662   7.621   1.898 -0.3097  0.0182 -0.0482
 5495W        W20626   6.333   9.297   4.611  0.0285 -0.2497  0.1205
 5496W        W20627   7.221   3.135   2.214 -0.0082 -0.0194 -0.0589
 5497W        W20628   9.045  13.675  14.942 -0.2255 -0.0516 -0.0871
 5498W        W20629   0.351  10.489  15.618  0.0487  0.0638 -0.0260
 5499W        W20630   9.626   3.687  15.169 -0.3758  0.1925  0.2592
 5500W        W20631   2.200   1.297   2.332 -0.2044 -0.1629  0.0438
 5501W        W20632  14.388  11.515  14.137 -0.0652  0.1202 -0.0973
 5502W        W20633   8.516   6.030  10.947 -0.0786  0.3231 -0.3544
 5503W        W20634   0.949   6.902  14.306 -0.3234  0.3180 -0.0689
 5504W        W20635  14.941  17.310  11.454  0.1035  0.0671  0.1287
 5505W        W20636   7.689   9.629   0.378  0.3752 -0.0666 -0.1960
 5506W        W20637  12.156   8.297  14.144 -0.1199  0.1075  0.1266
 5507W        W20638   2.031   9.884  10.685 -0.0844 -0.0234 -0.3913
 5508W        W20639   6.450  12.815   3.324 -0.0932  0.2168  0.0912
 5509W        W20640  13.379   0.041   2.432 -0.3176 -0.1956 -0.1304
 5510W        W20641  16.825   6.603  13.108 -0.2416  0.0236 -0.0934
 5511W        W20642  15.848  14.163   0.308  0.1683  0.3284  0.1491
 5512W        W20643  13.650  10.256  15.499  0.3033  0.2165 -0.1922
 5513W        W20644   8.315   7.795  13.147 -0.1351 -0.1642 -0.1694
 5514W        W20645   4.030   3.390   4.886 -0.2278  0.3871  0.2295
 5515W        W20646  11.387   7.520   9.618 -0.0427  0.0132  0.1798
 5516W        W20647  11.786  12.968   4.376 -0.2912  0.0324  0.0798
 5517W        W20648   4.567  13.945   3.631  0.1591  0.1958  0.0445
 5518W        W20649   2.432   8.666  12.865  0.0112 -0.0626  0.2136
 5519W        W20650   6.935  15.986   2.200  0.2168 -0.1550 -0.0192
 5520W        W20651  18.225   6.596   3.154 -0.0638  0.4218  0.2527
 5521W        W20652   7.080   6.642  12.832  0.0888 -0.1294  0.1186
 5522W        W20653  10.042  16.797  10.864 -0.3902  0.1534  0.1252
 5523W        W20654   4.406   9.155   1.232  0.1755  0.1190 -0.0851
 5524W        W20655  11.261   2.881  15.162 -0.0744 -0.2283 -0.0667
 5525W        W20656  10.367   9.810   4.991  0.2196 -0.0741  0.4255
 5526W        W20657  13.389   6.999  14.016  0.0976 -0.2065 -0.1296
 5527W        W20658   3.684   2.994   0.917 -0.2180  0.0531  0.1046
 5528W        W20659   8.931  16.686   5.285 -0.1042 -0.1165  0.0450
 5529W        W20660   0.372   5.577  14.493  0.4865  0.0739 -0.1272
 5530W        W20661   2.323   5.522   1.623 -0.1961  0.0541 -0.0419
 5531W        W20662  18.508  13.414  14.189 -0.0110 -0.3050  0.2606
 5532W        W20663   6.107   2.477   0.753  0.2291  0.0741  0.0124
 5533W        W20664   0.502  11.047   2.129  0.1116  0.1371 -0.2345
 5534W        W20665  14.081   6.020  12.650 -0.1456  0.1086  0.1126
 5535W        W20666  12.633  14.422  14.398  0.2405 -0.4112 -0.3334
 5536W        W20667   2.334   4.534  12.679  0.1108 -0.0285  0.0625
 5537W        W20668   2.222  11.642   0.094 -0.2364 -0.0686 -0.2098
 5538W        W20669  12.972   6.590   1.664  0.0939  0.2333  0.0229
 5539W        W20670  12.533   4.247  10.713  0.1911  0.0082 -0.1613
 5540W        W20671   1.725  18.360  15.124 -0.1295  0.3150  0.1904
 5541W        W20672   6.210  11.740   4.889  0.3985 -0.2980 -0.2751
 5542W        W20673  10.545  11.775  10.604  0.1324  0.1535 -0.0174
 5543W        W20674   9.292   0.319   2.691  0.0988  0.2197  0.2827
 5544W        W20675  10.767  17.573   0.197  0.2869  0.1452 -0.2061
 5545W        W20676  18.041  10.289  14.823  0.0224 -0.0941 -0.0731
 5546W        W20677   7.631  13.422  14.295  0.0407  0.1365  0.1570
 5547W        W20678   0.588   0.323  14.225  0.2640  0.0598  0.1275
 5548W        W20679  10.304  17.275  11.601 -0.4080 -0.0526 -0.0445
 5549W        W20680  11.705  10.724   2.162  0.2211  0.1679 -0.0764
 5550W        W20681  15.733  13.422   3.680  0.6494  0.0191  0.1224
 5551W        W20682   8.042   8.133  12.871  0.3812  0.0848 -0.1025
 5552W        W20683  18.145   1.831   0.456  0.0877 -0.1271  0.0046
 5553W        W20684   1.080   5.252  13.282  0.2285  0.2841  0.1468
 5554W        W20685  12.982   8.735  15.127 -0.0840 -0.3140 -0.1131
 5555W        W20686   2.488   2.814  14.195  0.0228  0.0794 -0.1105
 5556W        W20687  14.048   4.011  12.722  0.0098 -0.1568 -0.2312
 5557W        W20688  12.867   3.509  14.609 -0.2832 -0.0168 -0.1106
 5558W        W20689  18.012  10.274  10.715 -0.2776  0.2415  0.3812
 5559W        W20690   9.293  16.961   3.985 -0.1767 -0.0191 -0.0349
 5560W        W20691  11.486  15.179   3.502  0.0031  0.0641  0.1516
 5561W        W20692   6.482  18.496  14.297  0.3940  0.1407  0.1942
 5562W        W20693   9.447  14.499  14.685 -0.0896  0.1904  0.2217
 5563W        W20694  11.855   2.860  14.574 -0.0722  0.0884  0.0343
 5564W        W20695  10.399  18.715  11.105 -0.1117  0.2265  0.3799
 5565W        W20696  12.096   4.075  12.484  0.0880 -0.1400  0.1828
 5566W        W20697   2.054  12.302  12.220  0.2602  0.0732 -0.1545
 5567W        W20698  14.472   5.375  15.226 -0.0577  0.3601 -0.0971
 5568W        W20699   8.889   5.337  11.269 -0.1458  0.3621 -0.0755
 5569W        W20700  16.765  12.119  15.535  0.0578  0.2339  0.3491
 5570W        W20701   4.490   9.498  13.771  0.0212  0.0402 -0.0492
 5571W        W20702   6.936   1.614   4.832 -0.2031  0.0538 -0.0574
 5572W        W20703   0.234  17.881  11.080  0.2538 -0.1016  0.0444
 5573W        W20704  15.333  12.179   3.035  0.2989 -0.0322 -0.1262
 5574W        W20705   2.049   2.402   0.420 -0.0106  0.0820  0.0356
 5575W        W20706   8.990  11.443   1.683 -0.1156 -0.1190  0.4557
 5576W        W20707  12.318  14.801   1.771 -0.2995 -0.0894  0.0115
 5577W        W20708   6.223   5.051  12.638  0.2098 -0.0988  0.1348
 5578W        W20709   7.402   8.412   2.804  0.0693 -0.1761  0.3550
 5579W        W20710   3.350  13.670  13.414  0.2598  0.0960 -0.0703
 5580W        W20711   5.554  15.955   3.465 -0.0100 -0.0027 -0.0746
 5581W        W20712  15.760   0.303  13.328  0.2392 -0.2913 -0.0642
 5582W        W20713   7.061  11.726  15.801 -0.2991 -0.0639 -0.1524
 5583W        W20714  16.031   6.491  14.805 -0.1111  0.0266 -0.0586
 5584W        W20715   5.260  15.124  13.165 -0.2959  0.0979  0.1055
 5585W        W20716  13.145  15.269  10.693  0.1447  0.0369 -0.3489
 5586W        W20717   6.460   9.728  14.259 -0.1731  0.2991 -0.2500
 5587W        W20718  13.253  15.330   3.857  0.1097 -0.3207  0.3184
 5588W        W20719   8.944   8.018   4.433 -0.2464 -0.1217  0.0678
 5589W        W20720   4.667  15.188   0.045 -0.0713  0.4594 -0.3273
 5590W        W20721   8.171   1.015  11.375  0.1376 -0.1002 -0.2531
 5591W        W20722   1.269  18.268   1.873  0.1405  0.1562  0.1001
 5592W        W20723   0.692   6.487   4.981 -0.1603 -0.1022  0.2046
 5593W        W20724  14.398  10.992   4.524  0.0116 -0.2804  0.0157
 5594W        W20725  14.689   0.517  11.533 -0.1056  0.0533 -0.1601
 5595W        W20726  14.077  14.605   3.574  0.0264 -0.2591  0.0743
 5596W        W20727   3.808   1.155   1.168  0.2454 -0.0441 -0.2235
 5597W        W20728   0.898   3.931  11.487  0.2431  0.0067 -0.0540
 5598W        W20729  11.939  14.756   1.282 -0.2187  0.1729 -0.1760
 5599W        W20730  18.669  11.572   2.940  0.1701 -0.1081  0.2329
 5600W        W20731  14.093   8.055   0.839  0.0617  0.0495  0.0687
 5601W        W20732   3.642  10.623  10.765  0.0563 -0.1474  0.0932
 5602W        W20733   6.396   6.443   5.060  0.2016 -0.0309 -0.0410
 5603W        W20734  12.143  17.118  13.657  0.2397 -0.0640 -0.1470
 5604W        W20735  16.389   7.088   0.586 -0.1409  0.0283  0.0902
 5605W        W20736  10.261  13.442   2.085  0.0894 -0.4960 -0.0109
 5606W        W20737   5.484  18.347   4.759  0.1417 -0.2038 -0.0819
 5607W        W20738   2.600   0.243  13.362  0.0727  0.1589  0.1771
 5608W        W20739  11.351  14.193  14.127  0.1187  0.0150  0.2611
 5609W        W20740  12.009  17.835  14.181 -0.0314  0.1607  0.1279
 5610W        W20741  15.357   2.803   3.818  0.0228  0.0017  0.0807
 5611W        W20742   8.810  17.488   4.817  0.2721  0.2795 -0.0504
 5612W        W20743  11.391  15.010  10.551 -0.1023  0.1636 -0.3131
 5613W        W20744   9.828   6.860  13.495 -0.0946 -0.1876  0.1241
 5614W        W20745   2.914   1.751   4.748 -0.0830 -0.0100 -0.0438
 5615W        W20746   1.887   5.288  12.935 -0.0022 -0.2274 -0.2611
 5616W        W20747  11.295  17.056   4.069 -0.1733  0.3127 -0.0479
 5617W        W20748  17.290  10.325  13.169 -0.0348  0.2224  0.1593
 5618W        W20749   7.429   1.891  11.727 -0.0402  0.0858  0.2767
 5619W        W20750   8.008  10.118  11.645  0.0865  0.0007  0.0940
 5620W        W20751  16.780  15.361  13.987 -0.0055  0.0587 -0.0978
 5621W        W20752   8.317   3.555  11.084  0.0326  0.1243  0.0524
 5622W        W20753  17.357  12.372   0.501  0.0776 -0.1075  0.1724
 5623W        W20754   8.119   2.418   0.478  0.0180  0.0532  0.3903
 5624W        W20755   3.961  13.222  13.964  0.0078 -0.0496 -0.0728
 5625W        W20756  10.099   2.455  11.460  0.1123 -0.0845 -0.0371
 5626W        W20757  12.217   2.335  13.248 -0.2290  0.0146 -0.1274
 5627W        W20758  16.402   6.600  10.133  0.1664  0.2520 -0.1831
 5628W        W20759   3.039   3.250   0.035  0.1469  0.0301 -0.2487
 5629W        W20760  11.093  13.139  12.691  0.1120 -0.0524  0.2499
 5630W        W20761   6.886  12.023   3.042 -0.0371 -0.0321  0.1323
 5631W        W20762   6.584   5.598  13.334 -0.0786 -0.2291  0.1344
 5632W        W20763  11.322  13.000   0.583  0.1412  0.1829 -0.1011
 5633W        W20764  13.015  10.311   9.633  0.0744 -0.0538 -0.2190
 5634W        W20765  13.066  18.059  14.109 -0.0215  0.1929  0.0174
 5635W        W20766   0.952   5.262   1.099 -0.0980 -0.1510  0.0286
 5636W        W20767   9.384  11.461   4.248  0.2759 -0.1318 -0.2308
 5637W        W20768  11.454  18.364  13.503  0.1844 -0.0324 -0.0160
 5638W        W20769  12.888   1.580   3.534  0.2913  0.1282 -0.0154
 5639W        W20770  14.488   5.840  11.358  0.2380  0.2408  0.1140
 5640W        W20771   9.200   2.487   4.542  0.0805  0.0345  0.1361
 5641W        W20772  14.809  13.693  14.856 -0.1589 -0.6118 -0.2359
 5642W        W20773  13.956   8.838   2.026  0.0136  0.3708 -0.0753
 5643W        W20774   2.969  16.499  14.850 -0.1846  0.1526 -0.1536
 5644W        W20775   7.452   9.970  14.574  0.1450  0.6932 -0.0463
 5645W        W20776  18.550  10.393  12.508 -0.0329  0.2859  0.0749
 5646W        W20777   1.720   0.536  14.497 -0.0583  0.1094 -0.0910
 5647W        W20778   8.662   2.881  10.611 -0.2995  0.0352 -0.0175
 5648W        W20779   9.109  11.469  15.406  0.0764 -0.1438 -0.0995
 5649W        W20780   8.507  17.204   4.533 -0.2586 -0.0862  0.0398
 5650W        W20781   4.684   1.646   3.770 -0.5203  0.0131  0.0206
 5651W        W20782  11.698   4.297  14.436  0.0237 -0.0499  0.1927
 5652W        W20783   3.247   0.818  15.256  0.1215  0.1728 -0.1901
 5653W        W20784   1.936   7.123  14.844 -0.1678  0.0911 -0.2143
 5654W        W20785  11.141  10.506  13.989 -0.1172  0.0051  0.1131
 5655W        W20786  13.792  14.544  13.395  0.0668 -0.0281 -0.1882
 5656W        W20787  12.609   2.549   5.033 -0.0869 -0.0563 -0.1519
 5657W        W20788  10.402   8.443   1.867  0.3174  0.0855  0.1146
 5658W        W20789   0.639   4.460   0.820 -0.4283 -0.2913  0.0820
 5659W        W20790   5.017   9.944   4.492 -0.0626 -0.3096 -0.0220
 5660W        W20791   1.565   1.654  10.782 -0.1001  0.0512 -0.0118
 5661W        W20792   2.103   4.560   1.814 -0.3437 -0.0050 -0.0137
 5662W        W20793  12.825   9.903   5.260 -0.4293 -0.0170  0.2629
 5663W        W20794   8.871  18.677   4.235 -0.2501 -0.3897  0.4014
 5664W        W20795   6.803  10.505   5.359 -0.0970  0.2110  0.3718
 5665W        W20796  12.363  18.208  13.287  0.1509  0.0991 -0.1235
 5666W        W20797   8.206  13.415  14.211 -0.1389  0.0932 -0.1287
 5667W        W20798   6.981  14.339   2.345 -0.0778 -0.0396  0.2624
 5668W        W20799  10.687   2.345  13.805 -0.1084  0.1276  0.1305
 5669W        W20800  17.262   3.347  11.645 -0.1190 -0.0494 -0.1825
 5670W        W20801  13.428  17.190   0.128 -0.0392 -0.3712  0.3533
 5671W        W20802   6.015   9.310   5.313  0.4104 -0.1078  0.1855
 5672W        W20803   1.900   5.542  13.701  0.0416 -0.4319  0.0263
 5673W        W20804  18.331   0.244  15.031  0.0167 -0.4863 -0.0913
 5674W        W20805   6.771  11.137   3.933 -0.1242  0.0462  0.3165
 5675W        W20806   2.224   5.400   4.660  0.2344 -0.0848 -0.0828
 5676W        W20807   3.751   6.954  10.616  0.0770 -0.0759 -0.0844
 5677W        W20808   5.124  15.755   4.700 -0.1079 -0.0794  0.2967
 5678W        W20809  17.003   2.315  14.674 -0.1023  0.0848  0.0283
 5679W        W20810   1.618   4.111  15.579 -0.2970  0.3640  0.1066
 5680W        W20811  10.831  13.094   0.416  0.1526  0.2978 -0.2998
 5681W        W20812  10.331  15.204   2.188 -0.0481 -0.0423  0.2642
 5682W        W20813   9.790   8.903   3.140 -0.0533 -0.0863 -0.1666
 5683W        W20814   8.891  10.619  11.404 -0.1572  0.1280 -0.1161
 5684W        W20815  10.660  12.923   3.210 -0.0336  0.1402  0.1989
 5685W        W20816   9.398   9.173   4.990  0.0312  0.1846  0.0489
 5686W        W20817  15.511   8.817   2.050 -0.1527 -0.0069 -0.2346
 5687W        W20818  13.946  14.672   4.154  0.4052 -0.3418  0.0164
 5688W        W20819  17.714  10.509  13.418  0.0463 -0.2845 -0.2066
 5689W        W20820   3.866  10.347  13.168  0.1903 -0.0172 -0.2372
 5690W        W20821  18.227   1.627   2.296 -0.0388 -0.0470 -0.1760
 5691W        W20822   7.441   1.876  12.944 -0.0530  0.1920  0.2661
 5692W        W20823   2.642   2.378   3.095  0.2953 -0.0930  0.0307
 5693W        W20824   0.892  15.177  10.174 -0.0606 -0.0256  0.2276
 5694W        W20825   2.481  13.572   2.742  0.1783  0.0407 -0.1735
 5695W        W20826  16.176   7.348  14.829 -0.6512  0.1554 -0.0023
 5696W        W20827  16.084   6.684   4.960 -0.1382 -0.0348  0.1480
 5697W        W20828   4.099   6.020  15.047  0.2612 -0.0523  0.0844
 5698W        W20829  18.025   8.307  12.172 -0.0729 -0.1049 -0.0319
 5699W        W20830  13.161   5.877   3.108  0.0262  0.0367 -0.0439
 5700W        W20831   8.827  16.897   4.823 -0.1881 -0.0402  0.3080
 5701W        W20832  11.258   0.725   5.313  0.1168  0.3696 -0.2075
 5702W        W20833   8.990  16.082  13.089  0.2155  0.0564 -0.0877
 5703W        W20834  10.515  13.438  13.917  0.2626 -0.0942 -0.0547
 5704W        W20835   9.277   2.732   2.425  0.3702  0.0677 -0.2126
 5705W        W20836  14.940  13.897  12.789  0.0074  0.0889 -0.0391
 5706W        W20837   0.989   9.691   3.677 -0.2228  0.2998 -0.0309
 5707W        W20838   3.784   9.726   6.090 -0.1245 -0.2455 -0.4071
 5708W        W20839  10.201   2.777   0.817 -0.1424  0.2118 -0.3205
 5709W        W20840  14.778  13.352  13.226 -0.2611  0.1715 -0.0044
 5710W        W20841   4.737   6.493   3.956 -0.1768  0.0347  0.0595
 5711W        W20842   7.433  17.010  13.182  0.0020 -0.2014  0.1932
 5712W        W20843   1.440  17.343   4.540  0.2328 -0.1658 -0.1384
 5713W        W20844   2.248   3.631   4.212  0.1161 -0.2469  0.0861
 5714W        W20845  14.722  16.512  12.801 -0.0014  0.2538  0.1659
 5715W        W20846   3.417  13.343   2.416  0.0595 -0.4637 -0.0554
 5716W        W20847   2.199  17.131   2.245  0.0910 -0.0476  0.2697
 5717W        W20848   6.808   2.644   0.194  0.3716  0.1319  0.0275
 5718W        W20849   4.780  12.094  12.080 -0.0065 -0.0242  0.3038
 5719W        W20850   8.137  11.832   9.574  0.3071 -0.2646 -0.1133
 5720W        W20851   9.022   6.718   6.132  0.1488 -0.0339  0.0778
 5721W        W20852  16.770  14.040   0.131 -0.1800  0.2074  0.0646
 5722W        W20853  13.334   4.574   3.722 -0.1741 -0.1299  0.0229
 5723W        W20854  13.683   7.094   1.651  0.1497 -0.0444  0.0393
 5724W        W20855   5.483  18.054   5.529 -0.2029 -0.0776  0.1611
 5725W        W20856  12.366  16.080   2.150 -0.1386  0.0116  0.1139
 5726W        W20857   6.168   6.729   4.096 -0.0414 -0.1268  0.0868
 5727W        W20858  10.200  11.430  13.504 -0.2406  0.1218  0.1782
 5728W        W20859   7.281  14.659  11.783 -0.0429  0.0156 -0.0071
 5729W        W20860   5.221  12.635  13.363  0.1531  0.0923  0.1627
 5730W        W20861  17.355   7.608  15.144 -0.3138 -0.0503 -0.1665
 5731W        W20862  17.591  11.946   1.691  0.0270  0.0674  0.2885
 5732W        W20863  16.276   5.881  15.072  0.0388 -0.0797 -0.1064
 5733W        W20864   1.446  10.552  14.029  0.2642  0.1128 -0.1999
 5734W        W20865   5.620  11.494  12.618  0.3212 -0.5123 -0.2549
 5735W        W20866   1.121   7.275   0.174 -0.0770  0.2219  0.1589
 5736W        W20867   7.864  15.504  12.588  0.0214 -0.4256 -0.1434
 5737W        W20868  13.715   4.215  15.546  0.2240 -0.1995  0.1192
 5738W        W20869   2.860   2.461   0.505  0.0286  0.0172  0.2263
 5739W        W20870  14.189   4.726   4.258 -0.0980 -0.3233 -0.0626
 5740W        W20871   0.113  13.598  15.735 -0.2428  0.0637  0.0057
 5741W        W20872   6.798  10.579  15.327 -0.0629  0.1717  0.1227
 5742W        W20873   1.963   6.552   2.342 -0.0233  0.0069  0.1922
 5743W        W20874  10.577   7.982  15.058  0.1111 -0.0404 -0.2646
 5744W        W20875   3.230  12.947   4.108 -0.2627  0.1419 -0.1183
 5745W        W20876   6.096   8.327  11.299  0.4096  0.1063 -0.4375
 5746W        W20877   1.899   9.826  12.907 -0.1363 -0.2011  0.0515
 5747W        W20878  15.846   9.901   3.986  0.3199 -0.5617  0.0432
 5748W        W20879   2.179  17.999   3.513  0.0642  0.1385  0.5436
 5749W        W20880   4.275  12.514  15.782  0.1155  0.0994 -0.0359
 5750W        W20881  14.039  18.167   2.405  0.3556  0.0729 -0.2555
 5751W        W20882   7.951  13.344  14.712 -0.2955 -0.3424 -0.2929
 5752W        W20883  15.354   6.543   2.631 -0.0430  0.1027 -0.0662
 5753W        W20884   3.154   2.210  15.498  0.1530 -0.0493 -0.0730
 5754W        W20885  12.826  12.595  14.131  0.0381  0.0852 -0.0889
 5755W        W20886   8.156   6.374  15.483 -0.4598  0.2914 -0.1881
 5756W        W20887  15.873  14.275   4.239 -0.3415 -0.1770  0.2626
 5757W        W20888   0.493  16.128   5.482  0.0793  0.1105  0.0168
 5758W        W20889  14.573  17.392  15.431  0.3612 -0.2727  0.0886
 5759W        W20890   3.785  17.116  11.820  0.0770 -0.2769 -0.2081
 5760W        W20891  14.592   8.573  15.053  0.1056 -0.1736 -0.6205
 5761W        W20892  17.056  12.477   1.367 -0.1541 -0.1344 -0.1488
 5762W        W20893   2.257  14.636   2.995  0.1236  0.0541  0.1453
 5763W        W20894  14.174   6.305   2.846 -0.0605  0.0694 -0.0021
 5764W        W20895  15.822  14.126  13.770 -0.1616 -0.0697 -0.2096
 5765W        W20896  18.313   3.528  14.998 -0.3160 -0.0853 -0.1853
 5766W        W20897  12.793  15.111   2.180  0.1064 -0.4055 -0.0562
 5767W        W20898  15.801   4.868   2.440  0.0481  0.2800  0.0496
 5768W        W20899  14.164   7.280   1.695 -0.0026  0.0028  0.5341
 5769W        W20900   1.726   2.861  14.770  0.1284 -0.2602 -0.1299
 5770W        W20901  15.343  12.328  13.820  0.0539 -0.0595  0.3299
 5771W        W20902   7.978  18.299   5.681  0.0005 -0.1515  0.0146
 5772W        W20903   2.283  13.455   9.951 -0.3558 -0.0100  0.0277
 5773W        W20904   3.218  12.888   2.202 -0.3640  0.0132 -0.1311
 5774W        W20905  11.048  11.378   0.997 -0.2128  0.1504 -0.1562
 5775W        W20906  11.073   1.997  13.638  0.2304  0.3947  0.0166
 5776W        W20907   5.581   4.610   0.257  0.1104  0.0707 -0.2515
 5777W        W20908   0.340  10.047   1.962 -0.2051 -0.0966 -0.1087
 5778W        W20909   6.723  18.425  12.597  0.2382 -0.2039  0.1102
 5779W        W20910  14.651  11.753   2.606 -0.4216  0.0511 -0.2197
 5780W        W20911  14.530   3.725  11.888  0.1276 -0.2448 -0.1460
 5781W        W20912   6.736   2.193   1.547 -0.0534 -0.0684 -0.4125
 5782W        W20913  18.663   2.071   6.048  0.4620 -0.2740  0.1883
 5783W        W20914  15.494   0.508  10.661 -0.2931  0.1431 -0.1686
 5784W        W20915  15.075  12.195  14.372  0.1893  0.1167 -0.2665
 5785W        W20916   6.366   8.621  10.492 -0.2365 -0.0122 -0.0277
 5786W        W20917  12.554  13.359  14.330  0.2423 -0.0719  0.1395
 5787W        W20918   2.054   8.670  13.792  0.0406  0.0543 -0.2189
 5788W        W20919  16.077   5.004  10.761 -0.0088  0.0631  0.2161
 5789W        W20920  14.992  11.051   2.563  0.2162  0.0018  0.0180
 5790W        W20921  10.483  16.234  12.055 -0.2429 -0.2804  0.1671
 5791W        W20922   6.593  15.900  13.567 -0.0391  0.1450  0.0438
 5792W        W20923   6.818   0.070  11.923 -0.0941  0.3351  0.1661
 5793W        W20924   6.925   9.961  10.926 -0.1047  0.0558 -0.0784
 5794W        W20925   8.558  13.492  11.167  0.0626  0.1468 -0.2265
 5795W        W20926   2.426  18.621  10.558 -0.4408  0.0820 -0.0338
 5796W        W20927   5.389  15.371   1.855  0.0045  0.2664  0.1416
 5797W        W20928   4.427  18.623  15.170  0.1611 -0.1978  0.2060
 5798W        W20929   6.245   4.864  14.616  0.4892 -0.1888  0.0241
 5799W        W20930   7.378   7.788  10.382  0.1437 -0.2521  0.0321
 5800W        W20931   3.356   8.157   3.939 -0.5476  0.0491  0.1773
 5801W        W20932   6.637   8.813  14.652 -0.3972 -0.1119  0.0449
 5802W        W20933  17.665   4.235   1.183 -0.0020  0.1460 -0.0270
 5803W        W20934   3.982   5.516  13.139 -0.0119  0.0081  0.2367
 5804W        W20935   4.086  18.708   2.095  0.1902  0.0491  0.3772
 5805W        W20936   7.999   8.750  15.567  0.3445  0.2110  0.0811
 5806W        W20937  13.620   9.381   0.544 -0.0165  0.2092  0.0111
 5807W        W20938  16.147   8.463  14.993 -0.2977  0.1427 -0.0120
 5808W        W20939   6.475   7.066   4.286 -0.2977  0.0670  0.1231
 5809W        W20940  10.263  16.690   0.082  0.1243 -0.1826 -0.4021
 5810W        W20941   2.537  18.172  13.842  0.2558  0.2269  0.1697
 5811W        W20942   9.278  15.517  14.440  0.1913 -0.2084  0.2939
 5812W        W20943   3.937  16.602   0.914 -0.3143  0.0070  0.6460
 5813W        W20944   6.969  12.518   2.146 -0.2934 -0.1099 -0.0897
 5814W        W20945  12.532   1.431   4.642  0.0520  0.2285 -0.2582
 5815W        W20946   8.040   1.214  13.228  0.2272 -0.2463  0.2473
 5816W        W20947  18.690   1.301   4.136  0.0336  0.1657 -0.0957
 5817W        W20948   9.040  12.604  15.182  0.3999 -0.1069 -0.3696
 5818W        W20949  13.695   7.991   3.800 -0.0772 -0.0896  0.0886
 5819W        W20950   7.863  17.278  11.924  0.2165 -0.1702  0.0049
 5820W        W20951   0.015  12.761   0.775 -0.0743  0.2601 -0.1768
 5821W        W20952   8.644  16.163   1.138 -0.1095  0.1928 -0.1690
 5822W        W20953   3.559   3.483  14.492  0.1597 -0.0390 -0.2749
 5823W        W20954  14.394  17.567   1.254 -0.1250 -0.1776  0.1567
 5824W        W20955   7.697  16.636  13.473 -0.2126  0.5767  0.2320
 5825W        W20956   2.164  15.148  11.237  0.2208 -0.1575 -0.3487
 5826W        W20957   7.719   6.101   2.434  0.1503  0.0690  0.0043
 5827W        W20958  17.014  11.122  12.121 -0.2842  0.0207  0.3384
 5828W        W20959  17.994   2.552  12.236 -0.2888  0.0207  0.0258
 5829W        W20960   7.063  15.621   3.538 -0.1697 -0.1795 -0.0312
 5830W        W20961   9.934   7.992   5.683  0.1157 -0.0812 -0.2388
 5831W        W20962   8.333   6.567   9.948  0.0541 -0.1075 -0.1693
 5832W        W20963   5.259   0.221   2.572 -0.2008  0.4207  0.1349
 5833W        W20964   4.681  13.835  13.098  0.0106 -0.2948  0.0752
 5834W        W20965   1.966   0.335   5.147  0.1218  0.2851  0.4282
 5835W        W20966   8.672  15.037   2.535 -0.0280  0.1599 -0.0553
 5836W        W20967   6.380   5.445   5.120  0.4530 -0.0564  0.0658
 5837W        W20968  14.509   8.701  14.141 -0.3408  0.0120 -0.1749
 5838W        W20969   5.643   2.334   3.129  0.2199 -0.1602 -0.0770
 5839W        W20970   4.288   3.907   0.743 -0.0705  0.0656  0.1351
 5840W        W20971   6.447   9.041   3.854  0.0488  0.0760  0.0923
 5841W        W20972   9.738  14.842  14.957 -0.4034  0.1013 -0.2409
 5842W        W20973  10.096  17.851  12.911  0.3371  0.2661  0.1556
 5843W        W20974  15.151   1.050   1.938 -0.1172  0.5917  0.1020
 5844W        W20975   3.473   4.866   2.949  0.1085  0.1897 -0.2328
 5845W        W20976  12.566   6.057  10.831 -0.5569 -0.2224 -0.2498
 5846W        W20977   8.312  15.947  15.484  0.1027  0.0966  0.0843
 5847W        W20978   4.349   7.208  11.871  0.0418 -0.1626  0.0896
 5848W        W20979   3.949  15.074   0.992 -0.1154  0.2480 -0.0030
 5849W        W20980   9.913   4.286   1.663  0.4646  0.1668  0.0604
 5850W        W20981   7.546   1.196   0.828  0.2272  0.1236 -0.3954
 5851W        W20982   4.815   0.869   4.938 -0.2044 -0.2033 -0.2565
 5852W        W20983  10.048  17.699  11.962  0.0648 -0.4298  0.4141
 5853W        W20984   3.659   9.932  14.861 -0.0927 -0.0745  0.2463
 5854W        W20985   0.485   0.788  13.977  0.0376 -0.1267  0.2531
 5855W        W20986   0.863   7.769   5.856 -0.3694 -0.3908  0.1587
 5856W        W20987   5.678  10.813  10.999 -0.2472 -0.2479  0.2476
 5857W        W20988   1.327  17.629   4.973 -0.0511  0.0834 -0.1016
 5858W        W20989   2.684  16.002   3.086  0.2938 -0.0925  0.2521
 5859W        W20990  13.225   4.366   4.159  0.1122  0.1848 -0.4624
 5860W        W20991   1.222   8.964   3.711  0.0490 -0.2279  0.0746
 5861W        W20992   6.256   2.139   1.489 -0.0801 -0.3136 -0.1524
 5862W        W20993   5.651   4.195   0.633 -0.0474 -0.0223  0.0933
 5863W        W20994  13.269  12.946  12.063  0.0979  0.0667  0.0429
 5864W        W20995  11.281   8.074  13.906  0.1093  0.0601 -0.0309
 5865W        W20996   9.001   9.830  14.817 -0.1398  0.0242 -0.0480
 5866W        W20997   8.538  13.639   1.645  0.1079 -0.1505 -0.0020
 5867W        W20998  18.325   7.040  11.338 -0.0027 -0.1623  0.1284
 5868W        W20999  17.607   3.630  11.372 -0.1523 -0.1138 -0.3133
 5869W        W21000   0.868   7.812  13.722 -0.0113 -0.3957 -0.2788
 5870W        W21001   5.725   7.026  14.375  0.0260 -0.0637  0.1859
 5871W        W21002  13.757  14.117   0.049  0.0267  0.0357 -0.1041
 5872W        W21003   6.888   6.847   0.957 -0.3025 -0.2235 -0.3276
 5873W        W21004  13.458  16.236   3.079 -0.0077  0.1420  0.1149
 5874W        W21005   8.772  17.351   3.565  0.1030 -0.1379 -0.1984
 5875W        W21006   2.336   2.577  10.471  0.0531  0.0466  0.0804
 5876W        W21007  17.530  11.110  15.502  0.2849  0.1006  0.1008
 5877W        W21008  11.141  13.213   0.037  0.1244 -0.2087  0.1548
 5878W        W21009  15.411  12.062   4.053 -0.1903  0.1572  0.0056
 5879W        W21010   8.083  12.670  10.730  0.0881  0.4950 -0.1323
 5880W        W21011   4.535   9.055   3.405 -0.0446  0.0587 -0.2568
 5881W        W21012   8.909   0.558  13.807 -0.1943  0.0319  0.0936
 5882W        W21013  10.322  10.964  11.403 -0.1381  0.0982  0.0019
 5883W        W21014   0.005   4.096  12.625  0.2175 -0.3071  0.2068
 5884W        W21015   8.251   5.036  12.330  0.1048 -0.3117  0.0638
 5885W        W21016   4.719   4.720  12.688 -0.0051  0.5031  0.3275
 5886W        W21017   0.600   4.908   5.740 -0.0638 -0.1150  0.0216
 5887W        W21018  15.490   9.724   1.469  0.0728 -0.0315 -0.2105
 5888W        W21019   2.283  14.114   2.991  0.1629  0.1194 -0.1924
 5889W        W21020   7.939   4.107   3.462  0.1366 -0.2498 -0.0185
 5890W        W21021   5.891   7.859   4.939  0.3701 -0.0768  0.1143
 5891W        W21022   5.070  13.907   1.513 -0.2246  0.1262 -0.2352
 5892W        W21023  18.209   2.720  13.630 -0.1890 -0.1978  0.1634
 5893W        W21024  13.038   4.282   1.738  0.2328  0.2501 -0.2046
 5894W        W21025  15.139  15.840  11.337 -0.1246  0.1394  0.0423
 5895W        W21026  11.968  11.535   4.852 -0.5937 -0.0668  0.0381
 5896W        W21027   1.490   2.149  14.141 -0.2197  0.2463 -0.0623
 5897W        W21028  13.335  12.110   0.238 -0.4052  0.3427  0.1584
 5898W        W21029   3.351   6.872   4.005 -0.0518  0.1368 -0.1459
 5899W        W21030  17.057  15.043   4.100 -0.2276  0.4604 -0.3135
 5900W        W21031   5.803   0.412  13.264 -0.2727  0.2020 -0.2284
 5901W        W21032  11.699   4.971  11.306 -0.4959 -0.0918 -0.1292
 5902W        W21033   3.735  10.293   1.940  0.0270 -0.1926 -0.0497
 5903W        W21034  13.010  11.058  13.198 -0.3303  0.2669  0.1427
 5904W        W21035  12.044  18.142  12.935  0.0679 -0.2976  0.0271
 5905W        W21036   7.527  10.510  11.071 -0.0995  0.2038 -0.1381
 5906W        W21037  12.115  11.746   0.253 -0.0972  0.0164 -0.0011
 5907W        W21038  11.767  18.271   3.898 -0.0733 -0.0032 -0.2515
 5908W        W21039  17.419   6.623  15.441 -0.0520  0.1684  0.1218
 5909W        W21040  13.795   0.289  13.922 -0.4939 -0.3805 -0.1765
 5910W        W21041   8.944   0.189  13.185  0.1395  0.1859  0.1171
 5911W        W21042  18.336  12.956  15.475 -0.1800  0.2319  0.1984
 5912W        W21043   8.843   8.135   5.281  0.0600 -0.2099 -0.0287
 5913W        W21044   8.178  12.450   0.244  0.1676  0.2329  0.2547
 5914W        W21045  15.730   2.119   2.302 -0.0680 -0.0143  0.0195
 5915W        W21046   6.165  15.997   3.559 -0.4592  0.0320 -0.0952
 5916W        W21047  18.314   1.521   1.807 -0.3792  0.0025 -0.1384
 5917W        W21048   4.168  12.655  11.577 -0.1923  0.0254  0.2090
 5918W        W21049   8.678   3.247  13.631  0.1707 -0.0526 -0.2424
 5919W        W21050  10.836   9.068  10.599 -0.1494 -0.0183 -0.0453
 5920W        W21051   7.679   8.457  15.276  0.0448 -0.1142  0.0635
 5921W        W21052   5.316   0.361  12.462  0.1931 -0.0781 -0.1223
 5922W        W21053   9.302  10.246   3.214  0.1026 -0.0504  0.1824
 5923W        W21054   7.559  13.758  12.519 -0.2351 -0.1027  0.0815
 5924W        W21055  18.434  14.536   1.502 -0.1467 -0.0604 -0.3956
 5925W        W21056  18.576   4.156   4.325 -0.4163 -0.1197  0.0041
 5926W        W21057  17.262  17.644  12.444 -0.0045 -0.0440 -0.0923
 5927W        W21058  11.716  14.022  14.952  0.1058  0.2308  0.1941
 5928W        W21059   6.787   8.872   4.839 -0.1610  0.4453  0.0359
 5929W        W21060  17.082  13.927   1.514  0.1792 -0.1538  0.1574
 5930W        W21061  16.424  17.920  14.848 -0.0929  0.4876 -0.0196
 5931W        W21062  13.904  16.180  10.201 -0.1406 -0.2362 -0.2271
 5932W        W21063   9.113  10.330  14.454  0.3117  0.2020 -0.0005
 5933W        W21064   3.571   0.253  14.993 -0.1852  0.0362  0.0198
 5934W        W21065  18.695   1.593   2.584 -0.3705 -0.0518 -0.1082
 5935W        W21066   3.959  16.502  15.510 -0.2770  0.1968  0.0588
 5936W        W21067  16.518   6.999   1.017 -0.5075 -0.0921 -0.1895
 5937W        W21068  14.512   3.263   4.195 -0.0576 -0.1196 -0.0481
 5938W        W21069  12.580  16.961  10.612 -0.2275  0.3026  0.0842
 5939W        W21070  18.237  18.303   2.293 -0.2690 -0.1227  0.0074
 5940W        W21071   0.353  17.859   4.919 -0.0172  0.1252 -0.0537
 5941W        W21072   5.121   4.153  15.348  0.0833 -0.2251  0.0437
 5942W        W21073   5.912  11.775  10.946  0.2914  0.0779  0.1610
 5943W        W21074   2.522  14.729   4.553  0.2890  0.0484 -0.0631
 5944W        W21075  14.385   3.248   3.650  0.0816 -0.0962 -0.2016
 5945W        W21076  12.064   6.886  15.095  0.1069  0.0836  0.3015
 5946W        W21077  15.493   5.720   4.299  0.1316  0.1017 -0.0383
 5947W        W21078   2.695  11.783   4.903 -0.2239  0.1457  0.0730
 5948W        W21079  15.885   4.951  15.306  0.0729 -0.3490 -0.3209
 5949W        W21080   2.386  17.356   5.006 -0.1398  0.3836 -0.0771
 5950W        W21081  16.820   9.433  11.363  0.0378  0.2085 -0.2105
 5951W        W21082  12.615  13.993  10.825  0.1380 -0.0747 -0.1507
 5952W        W21083   6.458  13.742   4.467 -0.0507  0.1096  0.3782
 5953W        W21084   1.448   0.109   1.787 -0.0903 -0.1407  0.0229
 5954W        W21085   4.966   6.201   1.654 -0.2586  0.1462 -0.1222
 5955W        W21086   5.764  18.018  12.039 -0.2012  0.0403  0.0467
 5956W        W21087   1.086   8.210   0.634 -0.0018 -0.0148  0.1852
 5957W        W21088  17.449   4.338  12.621  0.1809 -0.1058  0.2020
 5958W        W21089   2.181  15.770   2.210 -0.3794 -0.0568 -0.1123
 5959W        W21090   9.591   4.193   1.246 -0.0896 -0.1110 -0.1313
 5960W        W21091   8.914   5.110   1.987  0.0203  0.1158 -0.1521
 5961W        W21092   8.543   6.493  10.798 -0.0817 -0.0623 -0.0326
 5962W        W21093  10.219   6.443  13.551 -0.2298 -0.0473 -0.2418
 5963W        W21094   9.858  10.968  14.689 -0.2108  0.2152  0.1220
 5964W        W21095  17.104   6.016   1.012 -0.0287 -0.3075 -0.1155
 5965W        W21096  13.346  10.979   1.895  0.1080 -0.0673  0.1150
 5966W        W21097   9.401  17.529  10.968 -0.1303  0.2643 -0.0739
 5967W        W21098   2.428   4.468   5.175  0.3197  0.2469 -0.0043
 5968W        W21099   5.844  16.393  13.481  0.1789 -0.1714  0.1058
 5969W        W21100  10.912  10.506  12.750  0.1623  0.1022  0.0637
 5970W        W21101   6.302  14.144  10.326 -0.5006 -0.1528  0.0189
 5971W        W21102  14.035  14.267  14.645 -0.0072  0.1907 -0.1977
 5972W        W21103  17.728  18.394   3.077 -0.3935 -0.4490  0.2032
 5973W        W21104  17.504   5.907  11.817  0.3276  0.1793  0.1028
 5974W        W21105  17.346   7.119  11.184  0.0638 -0.1487 -0.0161
 5975W        W21106   8.316   6.893  10.435 -0.2050 -0.1778  0.0734
 5976W        W21107  10.042   7.337  12.880 -0.2410 -0.0068 -0.1081
 5977W        W21108  17.760   1.804   1.150 -0.2603  0.2962  0.1389
 5978W        W21109  10.151  17.263   4.726  0.0171  0.1585 -0.0217
 5979W        W21110   6.695  10.167   0.843  0.0273  0.1977  0.1310
 5980W        W21111  16.834   1.020   0.530 -0.2292 -0.1040  0.2108
 5981W        W21112   2.164   2.125  15.750 -0.2932  0.1115 -0.0284
 5982W        W21113   3.178  18.532   3.108 -0.3711  0.1147  0.3282
 5983W        W21114  16.508   3.455   1.660  0.4384  0.0970 -0.0951
 5984W        W21115   1.700  14.591  14.479  0.3213  0.0553 -0.2819
 5985W        W21116   3.366   5.831   4.919 -0.0954  0.0506  0.1885
 5986W        W21117  14.648  16.386  12.315  0.1851 -0.1040 -0.1125
 5987W        W21118   4.837   5.956  10.789 -0.2021 -0.2794  0.1497
 5988W        W21119  14.224   9.761   5.002  0.2502  0.1608  0.2196
 5989W        W21120   5.563   7.656  12.592  0.2358 -0.3631  0.0792
 5990W        W21121   7.065  17.028   4.475  0.1524 -0.4903 -0.0909
 5991W        W21122   3.175   6.199  13.896  0.1456  0.0817  0.0261
 5992W        W21123  17.225   4.241   1.445 -0.0503  0.1096  0.0771
 5993W        W21124  12.419   3.737  13.333  0.0704  0.0850 -0.2570
 5994W        W21125  11.350   3.918   4.064  0.1583  0.0192  0.0171
 5995W        W21126  10.633   1.019   2.032  0.0435 -0.1351 -0.0620
 5996W        W21127   1.984  10.859   2.246 -0.3946  0.1227  0.3821
 5997W        W21128  18.435   0.848   0.104 -0.1488 -0.3269 -0.1172
 5998W        W21129   5.309   6.283   2.521 -0.0499 -0.1308 -0.0007
 5999W        W21130   1.893  11.896  11.263  0.1401  0.2354 -0.1581
 6000W        W21131  14.136  15.228  11.053 -0.2774  0.0549 -0.0291
 6001W        W21132  17.586   5.050  12.007 -0.0427  0.0681 -0.1371
 6002W        W21133  14.137   5.955  11.707 -0.0854  0.0428  0.2887
 6003W        W21134   7.871   2.139  11.825  0.0969 -0.1163 -0.1971
 6004W        W21135  11.161   4.267  12.890  0.2728 -0.1179 -0.2648
 6005W        W21136   7.361  17.295  14.661 -0.1017  0.0874 -0.3760
 6006W        W21137  15.318   9.935  14.014 -0.2050  0.0607 -0.2535
 6007W        W21138   9.585   6.312   5.151 -0.1205  0.2488  0.1172
 6008W        W21139  18.279  12.930   3.840 -0.1653  0.3009  0.4722
 6009W        W21140  15.360   5.031  10.651 -0.1163 -0.4848  0.1033
 6010W        W21141   2.468  17.745  12.408  0.0015  0.3570 -0.2900
 6011W        W21142  12.754   4.501  12.209  0.1121 -0.0362  0.3522
 6012W        W21143  11.281   1.736   2.590  0.1304  0.1674  0.0257
 6013W        W21144  15.817  15.038  13.079 -0.0210 -0.0450 -0.0867
 6014W        W21145  18.181   5.862   5.355  0.2305  0.0457 -0.1143
 6015W        W21146   9.031   2.695   5.012  0.1588  0.0945  0.0052
 6016W        W21147  17.376   0.028  12.350 -0.1313  0.1297 -0.0900
 6017W        W21148   9.896  12.049   5.482  0.2176 -0.0790  0.2562
 6018W        W21149  17.165  17.400   4.694 -0.1347  0.0498 -0.0686
 6019W        W21150   7.451  10.312   1.932 -0.1450 -0.0408 -0.1568
 6020W        W21151  13.785  10.101  10.619 -0.0320 -0.1869  0.0868
 6021W        W21152   3.745  12.059  10.901 -0.3042 -0.3510  0.1491
 6022W        W21153   7.755  17.174   0.331  0.0253 -0.1994  0.0753
 6023W        W21154   4.353  10.515  15.763 -0.1036  0.0345  0.2155
 6024W        W21155  10.522  12.663   2.217 -0.3322  0.2111  0.0295
 6025W        W21156  10.701   0.287  15.021 -0.1425  0.1824  0.2478
 6026W        W21157  12.156  18.589  15.220 -0.1314 -0.0802 -0.0583
 6027W        W21158  15.989   9.429   5.628  0.1452  0.2743 -0.2041
 6028W        W21159  14.497   9.286  13.407 -0.1946  0.0531  0.2545
 6029W        W21160   2.384   4.330  13.307 -0.2405 -0.1048 -0.0049
 6030W        W21161   8.205  15.076  11.246  0.2323  0.2423  0.1689
 6031W        W21162   9.935   3.876  13.262 -0.1765  0.0968  0.0971
 6032W        W21163  18.059   6.613   1.849 -0.0179  0.1021  0.0052
 6033W        W21164   5.454  16.096   1.467 -0.1085 -0.0455 -0.1745
 6034W        W21165  13.777  15.478  13.137  0.1894  0.1906 -0.3216
 6035W        W21166   1.967   0.135   0.001 -0.0531 -0.2225  0.1883
 6036W        W21167   6.768   2.673  11.923  0.1661 -0.0370 -0.0356
 6037W        W21168  14.305   5.805   2.848  0.1183  0.0705 -0.1626
 6038W        W21169  10.026  14.705   4.309 -0.0678 -0.4240 -0.0465
 6039W        W21170   2.017  11.112  15.218 -0.2275 -0.5095 -0.0220
 6040W        W21171   8.533  14.675  11.292 -0.1702 -0.0507 -0.1100
 6041W        W21172   5.341   8.659  15.182  0.1603  0.1775  0.2821
 6042W        W21173   4.532   5.880  14.939 -0.0509  0.1838 -0.0351
 6043W        W21174  10.952  14.083  13.367  0.1658 -0.3882 -0.4446
 6044W        W21175   2.952  14.134   0.486 -0.3495  0.0430  0.0244
 6045W        W21176   3.594   3.655  11.136 -0.0039 -0.2047 -0.1790
 6046W        W21177   6.829  17.322  15.580  0.0526 -0.0762 -0.1758
 6047W        W21178  17.140  16.329  15.616 -0.0860  0.4286 -0.0272
 6048W        W21179  10.384  18.353   0.585 -0.0866  0.1080  0.2692
 6049W        W21180   1.293   0.855  14.704  0.3712 -0.2444 -0.2490
 6050W        W21181   2.446  11.213   2.606 -0.3223 -0.2290 -0.2386
 6051W        W21182   0.865   7.765   3.993  0.0408 -0.1928  0.2938
 6052W        W21183   4.182  16.788  12.438  0.3278  0.1579 -0.0216
 6053W        W21184  16.366  15.247  10.977 -0.1755 -0.1107  0.0528
 6054W        W21185   2.144  16.550  14.836  0.2045  0.2356 -0.0500
 6055W        W21186   5.955  12.123  11.348 -0.0876  0.2416  0.1037
 6056W        W21187  11.633   4.249  11.662 -0.4480  0.1867  0.3197
 6057W        W21188   6.834   0.671   4.021 -0.0877 -0.3082 -0.3289
 6058W        W21189  13.403   5.283  15.754  0.2774  0.0358 -0.1530
 6059W        W21190  11.910  12.252  10.933 -0.0771 -0.0423  0.0070
 6060W        W21191   6.280   6.518  12.704  0.0528 -0.0414 -0.0483
 6061W        W21192   1.037  13.442   4.008 -0.0382  0.1617  0.1352
 6062W        W21193   0.031  12.395   6.325  0.5159 -0.1612  0.1120
 6063W        W21194  15.966  13.967   0.842 -0.2054  0.0668  0.2062
 6064W        W21195  10.808  13.605  13.518 -0.0115 -0.2903 -0.1019
 6065W        W21196   3.729  13.728   2.532 -0.0172  0.0210  0.1211
 6066W        W21197   3.126   3.232  13.740  0.3123 -0.1751  0.1108
 6067W        W21198  11.592   8.009  12.937  0.2495 -0.1543  0.0655
 6068W        W21199   2.926   9.809  12.650 -0.2670 -0.1060  0.0419
 6069W        W21200   2.017  15.159  13.523 -0.1064  0.1266 -0.1068
 6070W        W21201  15.901   3.373  12.161  0.3411 -0.0824  0.0153
 6071W        W21202  18.531  17.117  13.392  0.0992  0.3258  0.2048
 6072W        W21203  13.986  16.070  11.707  0.2230 -0.1354 -0.2918
 6073W        W21204  15.324  15.872   1.853  0.1640 -0.0030  0.4123
 6074W        W21205  15.102   7.713   0.704  0.0090  0.3821 -0.0131
 6075W        W21206   3.711   5.686   5.361 -0.3263  0.2704 -0.1314
 6076W        W21207  17.008   8.409  13.960 -0.0632 -0.0773 -0.0542
 6077W        W21208  13.678   5.145   1.218 -0.2571  0.2747  0.2558
 6078W        W21209  11.725  12.447  13.705  0.1498  0.1037  0.2701
 6079W        W21210   1.167  12.796   2.767 -0.2005 -0.3576  0.3059
 6080W        W21211   0.938  14.929   4.979 -0.1213  0.3053  0.1155
 6081W        W21212  15.111   7.880   3.596  0.0404 -0.0526  0.0633
 6082W        W21213   9.668  10.714   2.974 -0.1497 -0.0160  0.0331
 6083W        W21214   0.363   3.977  15.710  0.0272 -0.1852 -0.1686
 6084W        W21215  18.289  13.335   0.028 -0.0260  0.0138  0.1566
 6085W        W21216   2.022   1.314   5.389 -0.2421  0.0041 -0.1124
 6086W        W21217   7.912  16.127   3.348  0.2891  0.0058  0.1038
 6087W        W21218  15.337   5.172   2.567 -0.0502  0.0888 -0.0084
 6088W        W21219  18.712   3.792  14.737 -0.1004 -0.0892  0.1918
 6089W        W21220  12.679   7.574  12.792 -0.1710  0.1850 -0.1725
 6090W        W21221   1.751   0.228   1.315 -0.0373 -0.1279  0.0572
 6091W        W21222  18.084   6.425   5.149 -0.1566  0.0751 -0.0925
 6092W        W21223   6.356   2.348   5.303 -0.1700  0.2104  0.1971
 6093W        W21224   3.389  16.147  12.671 -0.1827 -0.3050  0.3708
 6094W        W21225  16.017   0.375  13.777  0.0307  0.0078  0.0615
 6095W        W21226   8.802  16.441   1.662 -0.0800  0.0765  0.0263
 6096W        W21227   4.929   4.776   4.518  0.2644  0.0680 -0.0179
 6097W        W21228   3.874  15.135   2.732  0.2463 -0.1660  0.3618
 6098W        W21229  13.251   6.559   4.995  0.0001  0.0561 -0.0106
 6099W        W21230   7.162   6.668  11.824  0.5485 -0.1357 -0.0337
 6100W        W21231  17.467  15.007   0.958  0.1997  0.2587  0.2179
 6101W        W21232   0.359  13.768   4.150 -0.1160 -0.5199 -0.1018
 6102W        W21233  13.157   2.601  14.899 -0.3042  0.1450  0.0333
 6103W        W21234   8.126   9.090  11.255 -0.0977 -0.1388 -0.2793
 6104W        W21235   5.801   1.262   6.136  0.1436  0.1608  0.1889
 6105W        W21236   0.497   1.686   2.291  0.3990 -0.1074 -0.0476
 6106W        W21237   5.027  13.735  13.548 -0.1321 -0.0252 -0.1302
 6107W        W21238  12.234   5.728  12.528 -0.0924  0.2467  0.0909
 6108W        W21239  15.855   3.884   5.264  0.1690  0.2300 -0.3723
 6109W        W21240  10.908   6.890  10.370 -0.0562 -0.2264  0.1631
 6110W        W21241   5.765  10.278   4.923  0.0814  0.2432 -0.0321
 6111W        W21242   6.337  17.547  13.277 -0.1239  0.0209  0.2076
 6112W        W21243   2.827  14.644  15.509  0.2343 -0.1863 -0.1531
 6113W        W21244   6.794  14.101  11.033  0.2138 -0.2433  0.0580
 6114W        W21245   2.236  17.181   0.866 -0.1408  0.1090  0.1936
 6115W        W21246  11.336   4.576   0.585  0.0153 -0.0525 -0.3001
 6116W        W21247  13.334  13.214   4.225 -0.0450  0.0081 -0.3185
 6117W        W21248  18.029   3.841   0.606  0.1431 -0.0168  0.2616
 6118W        W21249  13.995   0.574  15.722 -0.1985  0.0738 -0.0310
 6119W        W21250   1.441  12.441  15.494 -0.0428 -0.0539  0.1673
 6120W        W21251  17.715  11.300  10.856 -0.1133  0.2193  0.0679
 6121W        W21252   7.951  11.101  11.635  0.2490  0.0424 -0.1738
 6122W        W21253   3.463   3.361   4.313 -0.0448 -0.0850 -0.0086
 6123W        W21254   0.569   1.765   1.828  0.0444 -0.1491 -0.0333
 6124W        W21255  11.290  11.825   1.733 -0.0439 -0.0586  0.0154
 6125W        W21256   7.829   6.963   0.221 -0.3437  0.1301 -0.0380
 6126W        W21257   6.520  18.226  11.223  0.1675 -0.0410  0.2929
 6127W        W21258  14.048   5.263   2.831  0.0139 -0.0511 -0.2360
 6128W        W21259  11.677  18.266  11.668  0.0524  0.0946  0.1274
 6129W        W21260  11.701  17.213  10.947 -0.0906  0.3994  0.1758
 6130W        W21261  14.690  10.268   0.790 -0.0531  0.1500  0.0153
 6131W        W21262  11.598   9.071  12.978 -0.0046 -0.1756 -0.3523
 6132W        W21263  16.421  15.325   3.118  0.1902 -0.0523  0.3665
 6133W        W21264   3.567   5.521  15.507 -0.2507  0.5180 -0.2367
 6134W        W21265  15.651   0.363   3.525  0.0291 -0.0512  0.3206
 6135W        W21266   1.469  11.262   0.350 -0.4463  0.1189  0.1547
 6136W        W21267  11.706  16.953  13.724  0.0063  0.0452 -0.2119
 6137W        W21268   6.434  10.681  12.455 -0.2940  0.1085  0.1766
 6138W        W21269  16.600   1.880  13.922 -0.2601  0.2835 -0.0632
 6139W        W21270   3.216  14.917  15.352 -0.0618  0.4090  0.0536
 6140W        W21271   6.146  15.286  12.208 -0.2117  0.2074  0.0146
 6141W        W21272  11.892   1.834  13.373  0.1843  0.1164 -0.0568
 6142W        W21273  10.133  11.525  15.200 -0.0832 -0.0932 -0.2440
 6143W        W21274   8.360   3.817   2.734 -0.0586 -0.1921 -0.0618
 6144W        W21275  17.456   3.438   1.821  0.0477 -0.2892  0.2240
 6145W        W21276  12.752   2.714   0.901  0.0714  0.1701  0.0408
 6146W        W21277   5.827   2.776  13.918  0.1737  0.0368  0.1642
 6147W        W21278  13.106   1.511   4.443 -0.0764  0.0580  0.0220
 6148W        W21279   9.163  14.197  14.293  0.0024 -0.3339 -0.0835
 6149W        W21280  11.884  18.009  14.600  0.1062 -0.0737  0.2547
 6150W        W21281  17.779   3.299  11.868 -0.0520  0.2042  0.2671
 6151W        W21282  15.129   9.188  14.724 -0.0630  0.1978 -0.5574
 6152W        W21283   6.993  15.379  11.437 -0.0771  0.0999  0.1220
 6153W        W21284   7.711   6.520   4.510 -0.2164 -0.0416 -0.2486
 6154W        W21285  13.561   2.953  15.457 -0.1243 -0.3256  0.1043
 6155W        W21286   3.733  15.788  11.420  0.4338  0.0201  0.0541
 6156W        W21287   4.398   0.609   1.528  0.0937 -0.3531 -0.0228
 6157W        W21288   7.997   3.674   4.051  0.1970  0.2906 -0.0277
 6158W        W21289  12.384   4.864   5.236  0.2123  0.2902  0.1895
 6159W        W21290  15.009  16.894  14.047 -0.3469 -0.0408 -0.5501
 6160W        W21291  15.077   0.321  12.387 -0.2807  0.2450  0.0889
 6161W        W21292   4.397  17.913   3.214 -0.2352  0.3271 -0.2017
 6162W        W21293  12.957  18.656   3.737  0.3266 -0.1493  0.0238
 6163W        W21294   9.785   2.904   2.303 -0.1650 -0.0179 -0.1252
 6164W        W21295   2.951   9.745  15.307 -0.2347  0.0492  0.2596
 6165W        W21296  12.046   4.238   0.187  0.1132  0.0005 -0.1247
 6166W        W21297   4.822   6.305   9.839 -0.3987 -0.1642  0.1104
 6167W        W21298   8.713   3.943   3.086 -0.1299  0.0147 -0.1423
 6168W        W21299   5.947  13.692  15.353  0.0082 -0.1897  0.0240
 6169W        W21300   7.530  11.549   4.835  0.1532  0.1890  0.2639
 6170W        W21301   6.170   5.033   3.983  0.2499  0.2079  0.0724
 6171W        W21302   4.703   8.194  11.674  0.0169  0.0590  0.1561
 6172W        W21303  13.537   5.302   1.814 -0.1338 -0.0273  0.0055
 6173W        W21304   4.638   0.482  14.272 -0.1693  0.1071  0.0279
 6174W        W21305   6.846  14.779   4.716 -0.0297  0.0671 -0.0038
 6175W        W21306   7.546  12.792  10.929  0.0513  0.3091 -0.0130
 6176W        W21307  10.633   3.705  13.623 -0.0137  0.1397  0.1532
 6177W        W21308  13.373   8.447   4.108 -0.0872 -0.1223 -0.3370
 6178W        W21309  15.317  11.228   3.812 -0.1122 -0.1200  0.1487
 6179W        W21310  16.990   0.174   2.507  0.2027  0.1117  0.0861
 6180W        W21311  17.790  17.632   0.742 -0.1657 -0.2401 -0.4119
 6181W        W21312   3.063   7.112   9.989  0.0200 -0.0855 -0.1542
 6182W        W21313  16.448  10.200  12.665 -0.1106 -0.1815 -0.0383
 6183W        W21314   6.699   0.283   1.531 -0.3648  0.0762 -0.1078
 6184W        W21315   3.630  15.551   1.047 -0.0030  0.0133 -0.0545
 6185W        W21316   0.958  14.672  12.417 -0.0698 -0.3077  0.1669
 6186W        W21317  15.895  10.619  14.026 -0.0132 -0.3694 -0.1697
 6187W        W21318   0.780   8.640   4.112 -0.0491  0.0015 -0.1282
 6188W        W21319   4.916  12.373   4.073  0.0752 -0.1348  0.2170
 6189W        W21320   8.129   7.851   2.688 -0.2239  0.3163 -0.0257
 6190W        W21321   4.360   5.199  11.957 -0.0630 -0.1062  0.0294
 6191W        W21322   7.977  12.573   5.154  0.0162  0.0199 -0.2677
 6192W        W21323  11.801   1.091  12.214  0.1888 -0.1062 -0.2398
 6193W        W21324  18.328   8.099  13.061 -0.2139 -0.0802  0.1110
 6194W        W21325  17.185   6.661   5.144 -0.1827 -0.1489 -0.0636
 6195W        W21326   0.927   7.737  11.741 -0.1475  0.3120 -0.0602
 6196W        W21327   6.257   6.339   2.779  0.3332  0.1140 -0.2959
 6197W        W21328  16.126  11.965  12.247 -0.0540 -0.0549  0.6237
 6198W        W21329   5.991  16.909   4.626 -0.0690 -0.0869  0.2074
 6199W        W21330   3.030  17.725   2.645  0.0030  0.3335  0.1210
 6200W        W21331   7.178   8.564   9.835 -0.1934 -0.1049 -0.2148
 6201W        W21332   0.581   3.181  13.671 -0.1442  0.3033  0.3819
 6202W        W21333   3.256   1.236  15.596 -0.1949 -0.0542 -0.0231
 6203W        W21334  10.763  13.308   9.763 -0.1075 -0.1458 -0.1815
 6204W        W21335  10.312   8.694  14.258 -0.3219  0.0118 -0.0317
 6205W        W21336  15.755  10.551   0.349 -0.1624 -0.1418  0.0021
 6206W        W21337  17.082  16.384  11.306 -0.2622 -0.0686 -0.0635
 6207W        W21338  10.626   7.150   2.013  0.4166  0.2135  0.4842
 6208W        W21339   0.213  18.695   4.290 -0.1943 -0.2741  0.3712
 6209W        W21340   1.025   8.351  15.681  0.0830 -0.3882 -0.2347
 6210W        W21341   8.107  15.772   0.158 -0.2363  0.3444  0.0853
 6211W        W21342  15.221   7.230   4.137  0.0514 -0.0911  0.1039
 6212W        W21343  13.081   8.157  13.046  0.1545  0.1992  0.1126
 6213W        W21344  13.242  12.701  11.130  0.1848 -0.0824 -0.0582
 6214W        W21345  18.466   9.801  11.653  0.0776  0.2578  0.0888
 6215W        W21346  15.264  18.086   4.542  0.1026  0.1388 -0.0384
 6216W        W21347  16.608   9.070   3.081  0.0217 -0.0949 -0.1197
 6217W        W21348  13.440   2.734   3.546  0.1074 -0.1473 -0.1672
 6218W        W21349   5.837   2.692   1.134  0.1489 -0.1734 -0.3255
 6219W        W21350   4.168   2.450   4.628 -0.2314 -0.2709 -0.0066
 6220W        W21351   1.373  14.053   2.732  0.0442 -0.1531  0.1942
 6221W        W21352  18.305   7.340  10.880 -0.1322  0.1757  0.0529
 6222W        W21353  14.935   4.965   1.870 -0.1921 -0.0627  0.1066
 6223W        W21354   9.583  13.810   0.395  0.0460  0.0497  0.0970
 6224W        W21355   0.864  11.476  14.384 -0.0451  0.2134 -0.1869
 6225W        W21356  13.959   0.459  12.212 -0.0656 -0.0961 -0.0723
 6226W        W21357   0.574   6.166  12.706  0.0190  0.0445 -0.0346
 6227W        W21358  17.304   8.843  13.702 -0.1380 -0.0752  0.1679
 6228W        W21359  16.451   5.818  14.152 -0.2258 -0.0090 -0.1718
 6229W        W21360   9.256  11.242  14.625  0.0526 -0.2513 -0.1621
 6230W        W21361  13.192  11.924   2.143 -0.0072 -0.1134  0.3821
 6231W        W21362   3.478  18.672   5.201 -0.1659 -0.0697  0.0655
 6232W        W21363   6.656   0.625  13.796 -0.2519  0.0371 -0.1359
 6233W        W21364  11.680  18.294  15.136 -0.3875 -0.1025 -0.0621
 6234W        W21365  16.195   3.364   5.064  0.4039 -0.0530  0.2853
 6235W        W21366  14.002   8.508   1.134  0.2220 -0.0081  0.2879
 6236W        W21367  11.896   7.195   1.176  0.1690 -0.0399  0.1490
 6237W        W21368   6.942  17.364   1.022  0.0378  0.1515 -0.3771
 6238W        W21369  14.998   8.895   1.240  0.0071  0.0202 -0.1282
 6239W        W21370   7.805  16.565   3.478  0.0165 -0.1864  0.2380
 6240W        W21371   2.425   3.731  11.677  0.3352 -0.2003 -0.0639
 6241W        W21372  17.563  13.027  11.910  0.1902  0.2229  0.1255
 6242W        W21373  17.818   2.597   3.760  0.2012 -0.2404  0.0167
 6243W        W21374   4.610  16.558  12.221  0.1797  0.0401 -0.1363
 6244W        W21375  12.977   8.574  11.049  0.3602 -0.2694 -0.0678
 6245W        W21376   7.129   0.580   4.528 -0.1450 -0.2851  0.0874
 6246W        W21377  15.049   7.104  10.062  0.4065  0.1035 -0.1216
 6247W        W21378  15.836   7.471   0.842  0.0462 -0.1773 -0.1849
 6248W        W21379   7.945   1.604   2.924  0.4769 -0.0269  0.1969
 6249W        W21380   0.334  15.649  14.434  0.2005  0.0059 -0.1875
 6250W        W21381   2.710   6.007   3.032 -0.0011 -0.0215 -0.1766
 6251W        W21382  12.473   7.035  11.865 -0.1400  0.0981 -0.1190
 6252W        W21383   8.419   3.581  10.080  0.0996 -0.3827 -0.3141
 6253W        W21384   9.875  13.883  12.440  0.0927  0.0687 -0.0831
 6254W        W21385  10.029  10.583   1.539 -0.2430 -0.0726 -0.0149
 6255W        W21386   6.746   5.618  14.483 -0.2557 -0.0473 -0.1114
 6256W        W21387  13.365   3.979  13.216  0.1499 -0.0351 -0.2687
 6257W        W21388   7.033  15.266  12.589  0.0444  0.1936 -0.0459
 6258W        W21389  13.498   6.787  12.583  0.2460 -0.2880 -0.0266
 6259W        W21390  14.614   3.112  12.159  0.0877  0.3049  0.3258
 6260W        W21391   9.263   1.986  13.089 -0.2808  0.1382 -0.0758
 6261W        W21392  10.730  14.525   0.417  0.1275  0.1008 -0.0021
 6262W        W21393  14.614   5.476  12.230  0.1620  0.2015 -0.0963
 6263W        W21394  13.244  16.723  12.958 -0.1497 -0.0091 -0.0191
 6264W        W21395   9.019  13.622   1.722 -0.0085 -0.1725 -0.2501
 6265W        W21396   4.896  11.716  10.719  0.1516  0.1841  0.0141
 6266W        W21397  12.650   2.751  15.292  0.1306 -0.1243 -0.3555
 6267W        W21398   8.275  10.460  13.244 -0.0576 -0.0105  0.2188
 6268W        W21399  17.450  10.989   1.775 -0.0450 -0.0870  0.4728
 6269W        W21400  10.184  13.732  12.050  0.1625 -0.0131  0.2274
 6270W        W21401  18.671   6.458  12.636 -0.0204  0.0340 -0.0049
 6271W        W21402   9.375  14.647   3.161  0.1783  0.4286 -0.1499
 6272W        W21403   6.853  14.582   0.973  0.0908 -0.1999  0.1253
 6273W        W21404  11.656  12.929  14.541 -0.0808 -0.1838 -0.0234
 6274W        W21405   6.233  14.575  14.920  0.0451 -0.2198 -0.1272
 6275W        W21406  17.601   4.270  15.023  0.0874  0.3182 -0.3017
 6276W        W21407   2.283  13.305   3.410  0.1915 -0.0046 -0.0019
 6277W        W21408   1.217  10.306   2.383 -0.2651  0.2512 -0.0287
 6278W        W21409  10.705  14.701  13.158 -0.1482  0.2111 -0.0147
 6279W        W21410  10.675   2.854  15.725  0.0805 -0.2625  0.4391
 6280W        W21411  11.753  16.618   9.293 -0.0726 -0.1422  0.1511
 6281W        W21412   1.484   2.716  14.179 -0.2426  0.1387 -0.0685
 6282W        W21413   8.052  14.708  13.510 -0.1557  0.1258 -0.1538
 6283W        W21414   0.646   8.264   4.717  0.0848 -0.0105 -0.1041
 6284W        W21415  15.613   9.205   5.154 -0.0177  0.2138  0.1986
 6285W        W21416   4.529   3.376   2.281  0.0521  0.1177  0.1522
 6286W        W21417  15.224   3.916  13.838 -0.0709 -0.0084  0.3858
 6287W        W21418  10.194   1.767  13.301  0.0638  0.2081 -0.1260
 6288W        W21419   7.655   6.952   4.255 -0.5488 -0.3758 -0.0409
 6289W        W21420  11.486   8.651   4.152  0.0885  0.0521 -0.0894
 6290W        W21421  12.863   3.249   5.715 -0.2006 -0.1072  0.2094
 6291W        W21422   4.535   8.846   1.622  0.4214  0.3124  0.2267
 6292W        W21423   3.954   2.714   4.989 -0.1179 -0.0112  0.1924
 6293W        W21424  13.092  15.964   3.484  0.1544 -0.1989 -0.2331
 6294W        W21425   3.713   2.752   3.035  0.1060 -0.1911 -0.0246
 6295W        W21426  14.194   8.882   3.939  0.0622 -0.0670 -0.2332
 6296W        W21427   3.810  12.544  15.195  0.0276  0.3505  0.0105
 6297W        W21428  11.798  13.443  14.815  0.3828  0.0226  0.5485
 6298W        W21429  16.857   1.357  13.805 -0.0152 -0.2525  0.0199
 6299W        W21430  17.228  12.313  15.253 -0.2495  0.0099 -0.1665
 6300W        W21431   7.915   9.713   2.341  0.0944  0.2907  0.0412
 6301W        W21432  15.021  17.195   2.910 -0.4882 -0.2886  0.0563
 6302W        W21433  14.236   6.726  10.557 -0.1279  0.1838  0.1659
 6303W        W21434   7.030  12.271  13.345  0.0863 -0.0533 -0.3312
 6304W        W21435  12.943  16.835  12.238  0.1237 -0.0712  0.0809
 6305W        W21436  13.372   8.800   0.951 -0.0658 -0.0184 -0.2158
 6306W        W21437   0.761  18.483  13.030 -0.0610  0.1595  0.0254
 6307W        W21438  11.405   3.114   0.360  0.1189  0.1083  0.0548
 6308W        W21439  10.024   8.298   2.623 -0.0189 -0.3384 -0.2301
 6309W        W21440   0.372  14.538   0.889 -0.1387 -0.0013  0.4127
 6310W        W21441  16.563   5.138  11.990 -0.0608 -0.2080  0.0366
 6311W        W21442   4.596   8.364   0.127  0.2701  0.1580 -0.1397
 6312W        W21443  11.249   6.374  11.296 -0.0362  0.1708 -0.2580
 6313W        W21444  16.652  15.008  13.650  0.3631 -0.4116  0.0067
 6314W        W21445   8.367  12.729  13.027 -0.1633  0.1528 -0.4402
 6315W        W21446   1.424   8.469  12.170 -0.1138  0.1141  0.1818
 6316W        W21447  12.544  13.753  13.533 -0.0432 -0.2400  0.0018
 6317W        W21448   6.132  10.251   5.588 -0.0449  0.0380 -0.0529
 6318W        W21449  11.905   1.952   4.146  0.2764  0.1869 -0.1275
 6319W        W21450  12.855   0.710   2.061  0.0362 -0.1351 -0.1104
 6320W        W21451  16.445  12.821   2.511  0.1493  0.0441  0.2280
 6321W        W21452   4.412  17.061  11.432 -0.0532 -0.0025 -0.1529
 6322W        W21453   2.894   8.343   4.354  0.1182 -0.1788 -0.2034
 6323W        W21454  17.404   4.784   4.052  0.1379 -0.2293 -0.1351
 6324W        W21455   1.349  15.908   2.506  0.3323  0.0373  0.1376
 6325W        W21456   1.374  13.158  12.936 -0.3807 -0.0689 -0.0681
 6326W        W21457   9.744  18.146  10.376 -0.1518 -0.1301  0.1632
 6327W        W21458  12.894  13.886   4.057  0.0281  0.1867 -0.2167
 6328W        W21459  15.578  11.703   5.376  0.2430  0.1974 -0.2430
 6329W        W21460  15.129   9.052   5.196  0.1262 -0.3247  0.0625
 6330W        W21461   6.343   9.189   0.297  0.0305 -0.1891  0.0510
 6331W        W21462  16.774   6.466  11.316  0.0701  0.2849 -0.2059
 6332W        W21463  13.761   7.377   4.479 -0.0736  0.4707  0.0829
 6333W        W21464  15.311   6.466   2.094  0.1738  0.1656  0.1366
 6334W        W21465  12.468   6.719   1.624 -0.0274 -0.1679 -0.0552
 6335W        W21466   4.765   6.201   3.428 -0.0320 -0.1365 -0.0823
 6336W        W21467   9.249  10.571   4.584 -0.1445  0.2756 -0.0358
 6337W        W21468   9.837  17.209  13.737 -0.2843  0.3168 -0.2710
 6338W        W21469  17.504  11.130   0.244  0.1665 -0.4663 -0.0461
 6339W        W21470  16.970  12.214   0.289  0.0172  0.1862 -0.2960
 6340W        W21471  11.615   5.682   2.172  0.2465  0.2864  0.4738
 6341W        W21472  12.904   8.709  12.004  0.4923 -0.0711  0.0776
 6342W        W21473   4.718  11.576  15.732  0.0498  0.0758 -0.0066
 6343W        W21474  18.043  12.864  12.559 -0.2042  0.4008  0.1056
 6344W        W21475   7.491  16.521   2.608 -0.2018  0.0095 -0.0249
 6345W        W21476  15.551  12.630   0.032  0.1624  0.2132  0.2757
 6346W        W21477   3.196   8.615  14.963  0.0015 -0.3555  0.0525
 6347W        W21478  18.027  15.541   2.455  0.1236 -0.0147  0.0014
 6348W        W21479   1.282   3.676  15.098 -0.0619  0.2616 -0.0809
 6349W        W21480   2.878   9.424   4.534 -0.0070  0.1349  0.1613
 6350W        W21481  17.082  10.322  10.684 -0.3247 -0.0930  0.5172
 6351W        W21482  15.441  15.003  10.956 -0.1642  0.1838  0.3314
 6352W        W21483  16.477   2.782  11.973 -0.2395 -0.3503 -0.0158
 6353W        W21484   7.430  16.256  11.322 -0.2141  0.1881 -0.0884
 6354W        W21485  10.548   8.508  12.509  0.3080  0.3477  0.0171
 6355W        W21486   1.235   5.839  13.279 -0.0748  0.1071  0.0797
 6356W        W21487  15.479   0.086  10.270  0.0296  0.0895 -0.2917
 6357W        W21488  17.633   2.779  15.266 -0.1153  0.0132 -0.1370
 6358W        W21489  18.665   5.069   0.696  0.2676 -0.1189  0.1745
 6359W        W21490  14.978  16.293  13.329  0.2429  0.2238  0.3945
 6360W        W21491  13.953   2.772   2.142  0.3151  0.0714  0.0628
 6361W        W21492   7.483  18.118  11.801 -0.0026 -0.0380 -0.5440
 6362W        W21493  10.689   8.737   0.767 -0.2068  0.1780 -0.2749
 6363W        W21494  16.863  17.693   2.388  0.3047 -0.1904 -0.1535
 6364W        W21495  17.310  15.503  15.422 -0.4494 -0.0186 -0.0239
 6365W        W21496  17.151   3.530   4.673  0.1397  0.2293 -0.2032
 6366W        W21497  13.581  15.598   2.242 -0.1093 -0.2233  0.0407
 6367W        W21498  15.767   2.485   1.005 -0.1647 -0.1136  0.2079
 6368W        W21499  17.064  16.118   1.559  0.1713 -0.3034  0.0417
 6369W        W21500  14.352   3.544  11.239  0.0735  0.2824  0.0741
 6370W        W21501  11.541   8.095   0.897 -0.1400 -0.3180 -0.3028
 6371W        W21502   7.286  12.730  15.087 -0.1635  0.1380 -0.0456
 6372W        W21503  10.714   0.324  12.850 -0.1748  0.0464  0.0631
 6373W        W21504  11.314  12.433   5.066 -0.0299  0.1071  0.3024
 6374W        W21505   5.216   9.781   4.033 -0.0055  0.1510  0.3015
 6375W        W21506  16.953  17.105  12.015  0.0830 -0.2757  0.0039
 6376W        W21507   1.754  18.623   5.239  0.1284  0.0025 -0.2457
 6377W        W21508  14.900  17.655  13.902  0.1589  0.0022 -0.3127
 6378W        W21509  17.591  10.450   2.228 -0.2056 -0.1716 -0.0124
 6379W        W21510  14.527  16.160  10.684 -0.3091 -0.1685 -0.3906
 6380W        W21511   5.036   6.838  11.755  0.0957  0.0225  0.3616
 6381W        W21512   6.142   1.068   1.575 -0.1576  0.1256  0.3596
 6382W        W21513  14.419   5.051   5.048  0.0715  0.0354  0.0936
 6383W        W21514   6.187  11.910  12.247  0.0852 -0.2388 -0.2939
 6384W        W21515   7.642   4.230  15.230  0.1007  0.2647 -0.0232
 6385W        W21516   4.282  18.102   1.096 -0.1104  0.2952  0.1763
 6386W        W21517   5.300  10.343   2.611  0.1053 -0.0419  0.1815
 6387W        W21518   2.113  11.147  11.598  0.2763  0.0115  0.2363
 6388W        W21519   3.969   5.676  11.525 -0.2141 -0.2397  0.0995
 6389W        W21520  11.324   9.102  11.548 -0.3342  0.2288  0.1648
 6390W        W21521   0.426   1.364  14.633 -0.2160 -0.0660 -0.3476
 6391W        W21522   6.475   9.766   9.872 -0.1127 -0.1209  0.1123
 6392W        W21523   8.616  18.328   3.493 -0.0829  0.2922 -0.0696
 6393W        W21524   1.552   7.181  15.346  0.0360  0.1066  0.1397
 6394W        W21525   3.080   2.538  11.809  0.0785  0.0447 -0.1920
 6395W        W21526  15.611   9.158  14.697 -0.0571  0.1961  0.1430
 6396W        W21527  18.465   0.836  12.093 -0.1271 -0.1063  0.0875
 6397W        W21528   5.205  11.649   2.511  0.1591 -0.3504  0.2112
 6398W        W21529  11.561   1.806   0.384  0.0220 -0.0109  0.0801
 6399W        W21530   8.426  10.912  11.445 -0.1846  0.1752 -0.1289
 6400W        W21531  15.439   3.985   2.317 -0.1770 -0.0540  0.1767
 6401W        W21532   8.795   7.846   3.929 -0.3845 -0.1786  0.1477
 6402W        W21533  12.684   5.797   3.954 -0.0043  0.0103  0.0626
 6403W        W21534   5.931  17.938   0.271  0.0784  0.1756  0.1634
 6404W        W21535   9.647   4.311  13.355 -0.0749  0.1016  0.0323
 6405W        W21536   0.219   4.361  13.221 -0.1424 -0.0877  0.2640
 6406W        W21537   0.647   4.090  10.884 -0.0140 -0.1575  0.0850
 6407W        W21538   9.453  16.061  12.915  0.1016  0.3104  0.0143
 6408W        W21539  16.539  15.807  13.978 -0.2366  0.0859 -0.0115
 6409W        W21540   8.247  12.766   3.555 -0.0094 -0.0384 -0.0823
 6410W        W21541  16.693  16.438   0.657 -0.3309 -0.2853 -0.2369
 6411W        W21542  18.616  10.316  13.924  0.3480  0.0240 -0.3590
 6412W        W21543  12.253   0.157   2.787 -0.3262 -0.3146 -0.0776
 6413W        W21544   6.223   1.859  13.859 -0.1935  0.2000 -0.0844
 6414W        W21545  17.634   6.753  14.778 -0.0098 -0.0972 -0.3463
 6415W        W21546   2.735   2.431  15.449  0.1307 -0.2762 -0.0387
 6416W        W21547   7.552   2.584   0.479  0.0018  0.2571 -0.1294
 6417W        W21548   9.657   3.852  13.750 -0.1728  0.1045 -0.0670
 6418W        W21549  14.621  10.619   4.828 -0.1739  0.2601 -0.1614
 6419W        W21550  16.080   6.245   0.870  0.1888  0.3354  0.3376
 6420W        W21551  18.215  17.552  11.818 -0.0407 -0.2157 -0.2196
 6421W        W21552   5.585   0.472  11.941  0.1046 -0.0934  0.3951
 6422W        W21553  15.790  10.443  12.460 -0.1759  0.5408 -0.1302
 6423W        W21554   0.531  16.685  10.060  0.0280  0.2476 -0.0428
 6424W        W21555   9.038  18.527  14.386 -0.1136  0.1999  0.0275
 6425W        W21556   2.330   5.644  13.946 -0.0506  0.0273 -0.0955
 6426W        W21557   1.176  13.652   1.272 -0.3206  0.0969 -0.0837
 6427W        W21558  15.179  13.402  11.735  0.0916  0.0669 -0.0594
 6428W        W21559  13.404   8.498  12.033  0.3716 -0.0800 -0.0301
 6429W        W21560   5.503   0.680   2.501  0.1575  0.1102 -0.1312
 6430W        W21561   4.283  16.224  13.736 -0.0467  0.0928  0.1119
 6431W        W21562  14.977   4.549  12.540 -0.1774 -0.1537  0.2425
 6432W        W21563   0.552   5.477   4.932  0.0849  0.1683 -0.3079
 6433W        W21564   0.567   5.428   4.285 -0.0231 -0.2375  0.0031
 6434W        W21565  14.922   8.792  14.470  0.1432  0.1480  0.0120
 6435W        W21566   6.746  14.657   0.232 -0.1902 -0.1089  0.1270
 6436W        W21567   3.674   2.666   3.619  0.0107 -0.1476  0.1184
 6437W        W21568   1.704   3.805  10.935  0.1966 -0.2102 -0.2185
 6438W        W21569   8.275  15.302  12.314  0.2547 -0.1633  0.0250
 6439W        W21570   2.529   3.488   2.146  0.0627 -0.2673 -0.0213
 6440W        W21571  17.694  14.181   5.316 -0.3419 -0.1382  0.1248
 6441W        W21572   9.642   1.219   3.272 -0.0164  0.2920  0.1907
 6442W        W21573   0.005   5.983   1.551  0.1700  0.3151 -0.1674
 6443W        W21574   5.898   3.904   1.687  0.0944  0.0232 -0.6161
 6444W        W21575   3.164   5.139  11.384 -0.5395 -0.0655 -0.0262
 6445W        W21576  12.298  10.815   3.249  0.1084 -0.0931  0.0517
 6446W        W21577   7.097  11.381  12.062 -0.0528  0.1362  0.2065
 6447W        W21578  10.289  12.951  12.433  0.0282  0.1179 -0.1057
 6448W        W21579   7.376   3.370   1.443  0.2381  0.0156  0.0449
 6449W        W21580  16.648  14.580   2.088  0.1464 -0.2838 -0.2035
 6450W        W21581   2.380  10.014  12.690  0.0412 -0.1810  0.0049
 6451W        W21582  12.699  10.082  12.717 -0.0838  0.0356  0.3800
 6452W        W21583   0.695   9.218   0.104  0.0153  0.2558  0.1151
 6453W        W21584  17.805  18.653   5.129 -0.2515 -0.1191  0.4654
 6454W        W21585   6.806   2.623  14.741 -0.1567  0.0934 -0.1001
 6455W        W21586  15.941  12.826  10.992 -0.0177 -0.2465  0.0405
 6456W        W21587  11.368  13.806   4.783 -0.0354  0.2369  0.0387
 6457W        W21588  10.774   3.404  12.671 -0.1071 -0.0327 -0.0141
 6458W        W21589  16.139  12.004   2.815 -0.0908  0.0259  0.1227
 6459W        W21590   5.429   3.732   5.885  0.0462 -0.0474 -0.0557
 6460W        W21591  12.825  13.202  13.290  0.1066 -0.0735  0.0784
 6461W        W21592  16.378  16.952  14.133 -0.2225  0.1606 -0.5511
 6462W        W21593  17.259  17.357   5.258  0.1181 -0.1473 -0.4391
 6463W        W21594   7.019  17.828  11.816 -0.0540 -0.0672  0.1350
 6464W        W21595   8.044  14.780   3.306 -0.1621  0.1100  0.1686
 6465W        W21596  17.556   5.006   2.875 -0.1419  0.0893 -0.2580
 6466W        W21597   4.256   9.134   5.793 -0.3278  0.1072  0.1069
 6467W        W21598  10.249  15.537   1.347  0.2689  0.3476  0.2513
 6468W        W21599  11.163   8.197  14.406  0.0637  0.3973 -0.1847
 6469W        W21600   0.123  17.924   5.354  0.3247 -0.1114  0.2580
 6470W        W21601   4.086  12.029   3.651 -0.3493  0.0594  0.3252
 6471W        W21602  11.842  17.764  10.871  0.0792 -0.1642  0.1532
 6472W        W21603   8.459  17.108   5.052  0.1246 -0.0913 -0.0457
 6473W        W21604   6.817   5.810   1.631  0.0940  0.2595  0.0849
 6474W        W21605   6.579   0.343   5.299  0.2031 -0.1642  0.2149
 6475W        W21606   3.910  16.317  12.562 -0.3300 -0.0239  0.1700
 6476W        W21607   3.024  13.042   5.634  0.0718 -0.0264  0.1871
 6477W        W21608  17.724  12.294   2.149  0.3724 -0.4913  0.1269
 6478W        W21609  16.359  15.001   2.217  0.1749 -0.0075  0.0681
 6479W        W21610  10.098   0.770  11.760 -0.1991  0.1498  0.0392
 6480W        W21611  13.643   9.794  15.288  0.1328  0.2759 -0.2586
 6481W        W21612   0.861   3.183   1.605 -0.0005  0.2108 -0.1062
 6482W        W21613  12.896  15.720   4.528  0.1765  0.1636 -0.2007
 6483W        W21614  12.800   5.012   3.445 -0.0937  0.1734 -0.0478
 6484W        W21615   5.967  11.936   4.462  0.0116 -0.0590  0.3303
 6485W        W21616   6.574   7.632   0.534  0.1830  0.0034  0.2015
 6486W        W21617  10.580  15.149   1.005 -0.1244 -0.0063 -0.2028
 6487W        W21618  10.897  17.168  13.759  0.0869 -0.3039  0.1610
 6488W        W21619   9.794  10.285  11.507  0.1171  0.3197  0.0923
 6489W        W21620   2.701  16.956   3.670  0.0384  0.2889  0.3414
 6490W        W21621  17.752  12.918   2.834  0.1041  0.3559  0.0451
 6491W        W21622   1.341   5.350   2.456 -0.2651  0.0577  0.2322
 6492W        W21623   3.561  14.024  11.891 -0.3108 -0.1041 -0.1397
 6493W        W21624   4.658  12.298   3.092  0.3136  0.0295  0.0137
 6494W        W21625   0.346  11.463  10.851 -0.3232 -0.1123  0.3204
 6495W        W21626  11.052  16.952   2.229  0.2145  0.2269 -0.4390
 6496W        W21627  16.507  13.039  12.453 -0.1690  0.0053  0.2206
 6497W        W21628   3.881   3.407   2.339  0.4848  0.2027  0.1773
 6498W        W21629  10.221  12.617  10.582  0.3789  0.3292  0.0815
 6499W        W21630  14.864   8.243   5.219  0.0917 -0.3252 -0.1715
 6500W        W21631  16.733  16.272  14.135 -0.0044  0.0374 -0.0995
 6501W        W21632   1.792   6.934   0.876  0.1696  0.2197  0.1260
 6502W        W21633  10.133   1.011   3.988 -0.0455  0.2137 -0.2171
 6503W        W21634  10.413   7.901   0.255 -0.1575  0.0365  0.2458
 6504W        W21635   1.563  15.858  13.769  0.2344 -0.0928  0.2735
 6505W        W21636   5.614   1.739  14.785  0.1753 -0.3306  0.0735
 6506W        W21637  10.381   3.092   2.665 -0.3879  0.1281  0.0856
 6507W        W21638  13.351  13.480   1.911 -0.0630 -0.2973 -0.1705
 6508W        W21639  14.825   3.809   0.749  0.2818  0.0477 -0.1850
 6509W        W21640  10.418   5.458  14.339  0.2717 -0.5094  0.0824
 6510W        W21641   7.648  12.701   4.326 -0.2463 -0.3127  0.1686
 6511W        W21642  12.296   4.331  12.127 -0.0486  0.3024 -0.1196
 6512W        W21643   0.879  17.063   3.370 -0.0546  0.1631 -0.0393
 6513W        W21644   8.002  18.148  12.678  0.1021 -0.0475  0.2284
 6514W        W21645  11.904   3.051  12.655 -0.1218  0.2352  0.1888
 6515W        W21646  10.434   8.956  15.229  0.2597 -0.2369  0.2080
 6516W        W21647  13.154   9.286   4.439 -0.1928 -0.0133  0.2921
 6517W        W21648   3.278   4.825  12.399  0.2567 -0.0496  0.2519
 6518W        W21649   8.314  11.374   3.565 -0.5084  0.2944  0.1477
 6519W        W21650   3.217  18.695  15.365  0.3064  0.1245  0.3333
 6520W        W21651  11.119   2.029   3.878  0.0380 -0.3105 -0.0791
 6521W        W21652   1.446   4.882   2.611  0.0537 -0.0437 -0.3057
 6522W        W21653   1.320  13.502   0.329 -0.1450 -0.4143  0.1525
 6523W        W21654   5.288   8.623  12.614  0.1966  0.2300  0.1128
 6524W        W21655   0.420   5.296   1.246  0.0671  0.0764  0.0469
 6525W        W21656  11.736   9.792  11.256  0.0134  0.2709 -0.1528
 6526W        W21657   9.746   7.226  15.195 -0.0894  0.3374  0.1832
 6527W        W21658  10.055   5.519  15.685 -0.0661  0.2299 -0.0977
 6528W        W21659   8.170   8.538   1.863  0.1982 -0.0809  0.1405
 6529W        W21660   8.231   4.306  11.667  0.0241 -0.2607 -0.0856
 6530W        W21661  14.192   3.430  15.474 -0.1171 -0.0416  0.2297
 6531W        W21662   9.465  17.899   5.446 -0.1126 -0.0140 -0.1749
 6532W        W21663   8.242  10.822   1.554 -0.1077 -0.6960 -0.0120
 6533W        W21664  16.228   4.308  13.180 -0.0203  0.0588  0.1247
 6534W        W21665  12.946   4.680   1.468 -0.1500  0.0605  0.3847
 6535W        W21666  16.267   5.012  15.740  0.0603 -0.1196 -0.3525
 6536W        W21667   7.547   7.372   0.154 -0.1992  0.1466 -0.1570
 6537W        W21668   3.976  18.019   5.444 -0.2478  0.0351  0.2799
 6538W        W21669   2.256   5.915   3.716 -0.0581  0.2284  0.2215
 6539W        W21670   1.842   3.952   4.167  0.1752  0.0334 -0.0045
 6540W        W21671  16.986  18.451   2.712 -0.0150 -0.0540 -0.0958
 6541W        W21672   0.058   0.759  13.673  0.1859  0.1443 -0.3612
 6542W        W21673  15.070   4.775   1.389  0.1992  0.4318 -0.2187
 6543W        W21674   4.364   0.481   3.871  0.2185  0.1864 -0.1453
 6544W        W21675  13.756   0.018  14.569  0.1998  0.0334  0.0878
 6545W        W21676  15.234   2.517   4.279 -0.1982 -0.0410 -0.0486
 6546W        W21677  10.883   4.188  13.358  0.2122 -0.0623 -0.1040
 6547W        W21678   1.149   3.031  12.516 -0.2628 -0.0761 -0.2734
 6548W        W21679  15.032   7.971  14.254 -0.2896  0.2111  0.3041
 6549W        W21680  16.870  18.398   3.815 -0.1507 -0.0710  0.3078
 6550W        W21681   3.500   7.472  12.746  0.0774  0.0022  0.2560
 6551W        W21682  14.890   8.430  11.968  0.0961  0.1951 -0.0655
 6552W        W21683   6.157   7.041  12.614  0.2290 -0.0666 -0.0192
 6553W        W21684   4.765   5.252   3.586 -0.2720 -0.2159 -0.1105
 6554W        W21685   7.473  11.190   5.260 -0.0873  0.1541 -0.1765
 6555W        W21686   8.285  16.765   6.000 -0.0026 -0.1086 -0.0686
 6556W        W21687   5.925   1.752   4.779  0.0046 -0.2579  0.2178
 6557W        W21688  18.697   3.020  10.485 -0.3786 -0.0440  0.2198
 6558W        W21689  12.548  14.182   0.995  0.2847  0.1813 -0.4023
 6559W        W21690   8.730  10.749   1.571 -0.0426 -0.1024  0.0591
 6560W        W21691  15.528   8.921  12.993  0.2771  0.0309 -0.0614
 6561W        W21692   7.735   3.249   3.710 -0.0451  0.1664  0.1748
 6562W        W21693  11.425   3.893   1.856 -0.1263  0.4122 -0.1101
 6563W        W21694  17.687  14.654  12.552  0.2548  0.0896 -0.0129
 6564W        W21695   0.983   5.858  11.271  0.0009  0.0311  0.0590
 6565W        W21696  10.861  15.514  12.650 -0.3684 -0.0287 -0.1202
 6566W        W21697   4.487  13.164   4.165  0.1801 -0.0003 -0.1065
 6567W        W21698  13.636   6.049   3.071  0.0175  0.0668  0.1032
 6568W        W21699  17.185  15.960   0.088 -0.2767 -0.1917  0.0684
 6569W        W21700  10.562  17.045   3.856 -0.0278 -0.1410 -0.2769
 6570W        W21701   7.180   6.731   5.161 -0.0565  0.2156  0.0025
 6571W        W21702  10.579   7.459  14.755  0.0563 -0.0197  0.0185
 6572W        W21703   1.884   3.376  15.523 -0.3931  0.2717 -0.2347
 6573W        W21704   3.112   7.221   5.836  0.1058 -0.0823  0.3852
 6574W        W21705   7.856  10.687   2.695 -0.0298 -0.3125 -0.1530
 6575W        W21706   4.462   6.685  14.447 -0.0021 -0.2298 -0.0413
 6576W        W21707   7.691   3.425  14.613  0.1688  0.0648 -0.0744
 6577W        W21708   2.037  17.685  11.944 -0.0043  0.3033 -0.2830
 6578W        W21709  10.562  11.498  12.157 -0.0257 -0.0562  0.2130
 6579W        W21710   9.862   2.318  14.800 -0.0761  0.0332  0.2445
 6580W        W21711   6.764   9.392  12.109  0.0533  0.2967  0.2199
 6581W        W21712  17.713  10.346  12.016  0.0945 -0.0855  0.0925
 6582W        W21713  14.215  14.569   5.019  0.1145 -0.1689  0.0529
 6583W        W21714  13.411   2.292   3.848 -0.1451 -0.1688  0.2115
 6584W        W21715  12.468  14.644  15.003 -0.2675 -0.0777 -0.2523
 6585W        W21716   3.446   7.249   1.062 -0.1801 -0.2040  0.0893
 6586W        W21717  15.586   7.245  11.182  0.0497 -0.1957 -0.3062
 6587W        W21718   1.340   2.264  15.778  0.0176 -0.3228  0.1584
 6588W        W21719  10.699   6.599  13.756  0.0027 -0.2387  0.1199
 6589W        W21720   5.721   0.497   4.866  0.1969 -0.2501  0.0604
 6590W        W21721  11.842  15.889   4.319 -0.0820  0.0695  0.1974
 6591W        W21722   2.146  13.462  11.172  0.1480  0.3655  0.0714
 6592W        W21723   2.940   2.404  10.785 -0.1472 -0.3001 -0.2258
 6593W        W21724   9.080  12.950   2.066  0.2488  0.2318 -0.2024
 6594W        W21725   6.003  18.176   5.334  0.2375 -0.1284  0.2644
 6595W        W21726  12.331  10.263  15.701  0.3129  0.1302  0.1078
 6596W        W21727  14.564   3.517  14.083  0.0303  0.0087 -0.1490
 6597W        W21728  14.562   2.973  15.485  0.0159  0.1826  0.1260
 6598W        W21729   6.090   0.357  15.640 -0.2051 -0.0767 -0.1637
 6599W        W21730  18.035  14.129  14.181  0.0728 -0.3092  0.2351
 6600W        W21731  17.613   9.741   4.162  0.1455 -0.2676 -0.2390
 6601W        W21732  15.819  18.053  14.369 -0.0569 -0.0459  0.0659
 6602W        W21733   9.741   5.255  11.576 -0.2578  0.1141  0.3527
 6603W        W21734   1.381   0.119   2.711  0.2847  0.0033  0.1358
 6604W        W21735  11.416  18.285  14.614 -0.0711  0.1866 -0.0861
 6605W        W21736   3.775  17.139   0.708  0.1422  0.1679  0.1527
 6606W        W21737  12.157  15.512   3.451 -0.0272 -0.2584 -0.0399
 6607W        W21738   0.603  16.503  15.026 -0.2219 -0.0358  0.1896
 6608W        W21739   1.823   9.976  14.855 -0.0132 -0.0807 -0.2204
 6609W        W21740   5.550   7.506  14.512 -0.2458 -0.1562 -0.0828
 6610W        W21741   3.915   6.215   2.972  0.0797 -0.0368  0.0368
 6611W        W21742   6.890   4.017   1.971  0.3400 -0.4125 -0.0049
 6612W        W21743   2.600   6.283   0.832 -0.2468 -0.2634  0.1277
 6613W        W21744   1.513   9.946   4.197  0.0990  0.3494 -0.3499
 6614W        W21745  16.836  13.067   1.414 -0.3931 -0.2366  0.1335
 6615W        W21746   6.391  10.167  12.774  0.2031  0.2725  0.0727
 6616W        W21747   1.272   8.474   4.007  0.0334  0.0795  0.0180
 6617W        W21748   5.091   8.098  11.073 -0.1648 -0.0421 -0.3382
 6618W        W21749   1.853   0.814   5.434 -0.2071  0.5728 -0.0576
 6619W        W21750   0.773  17.612  10.093 -0.6391  0.2585 -0.3289
 6620W        W21751   2.637  15.199   2.597 -0.2032  0.0613 -0.0965
 6621W        W21752   9.777  15.744  15.119 -0.0856 -0.2259 -0.0646
 6622W        W21753   7.532  16.742   5.358  0.0408  0.1764  0.0504
 6623W        W21754   8.106   5.356  11.180  0.1368 -0.2254  0.2883
 6624W        W21755  16.397  15.595   4.198  0.3991  0.0842  0.0573
 6625W        W21756   5.013  18.569  14.832 -0.2468  0.1755  0.2612
 6626W        W21757   2.857   4.675   3.808  0.2402  0.0706 -0.3075
 6627W        W21758  12.927  17.753   9.731 -0.1352  0.2378 -0.3377
 6628W        W21759  16.649   2.823   3.229 -0.3708  0.3836 -0.0019
 6629W        W21760   6.729  12.320  12.876  0.4393 -0.1702 -0.1377
 6630W        W21761  10.871  16.486  14.391  0.0429 -0.1186  0.3477
 6631W        W21762   8.279  18.053  14.069 -0.0631 -0.1331  0.0375
 6632W        W21763  15.986  16.424  13.542  0.0685 -0.0069 -0.2049
 6633W        W21764   3.028  17.672   1.190 -0.1346  0.0102  0.4008
 6634W        W21765  18.153   8.001   0.261 -0.2756  0.3078  0.1994
 6635W        W21766   4.078   6.836  14.065 -0.2294 -0.2804 -0.2896
 6636W        W21767  17.770  11.036  11.333  0.2500  0.1561 -0.1919
 6637W        W21768  17.601   6.447  14.046 -0.2510 -0.0092 -0.2739
 6638W        W21769  11.653  10.988   4.460 -0.0908 -0.0477 -0.2199
 6639W        W21770   9.062  12.121  13.365  0.1317 -0.2392  0.3244
 6640W        W21771  15.127  14.190  12.116 -0.0711 -0.2362 -0.1886
 6641W        W21772   2.838   2.895  10.573  0.0967 -0.0589  0.2768
 6642W        W21773   9.177   6.604   0.680 -0.1732  0.2098 -0.0841
 6643W        W21774  18.544   0.395   4.511  0.3378  0.3284 -0.0527
 6644W        W21775   9.779  18.476  13.447 -0.1204  0.0861 -0.0898
 6645W        W21776  15.959  15.733   3.568  0.3863  0.0002  0.0494
 6646W        W21777  15.675  16.261   4.552 -0.0901 -0.0931  0.0809
 6647W        W21778   7.646   5.664   0.695  0.1078  0.1599 -0.0554
 6648W        W21779   8.211   8.832   2.294  0.0563  0.2473 -0.0394
 6649W        W21780   9.994  18.466  10.945  0.0688  0.1735  0.3383
 6650W        W21781   9.581  14.953   4.471 -0.0753  0.0034 -0.0811
 6651W        W21782  15.240   3.939   0.984  0.1553  0.0837 -0.1278
 6652W        W21783   4.935   9.915   1.043 -0.0756  0.2937 -0.0431
 6653W        W21784   0.727  12.500  14.318  0.0307  0.1101  0.3492
 6654W        W21785   9.018  16.524  13.438 -0.1152 -0.3536  0.0452
 6655W        W21786  16.793   0.243   0.340  0.1529 -0.0076  0.1276
 6656W        W21787  15.471  13.554  12.160 -0.3199 -0.0727 -0.0861
 6657W        W21788  12.619   8.931  14.666 -0.3672  0.3713  0.0071
 6658W        W21789  14.107  16.221   5.185  0.3368 -0.3730  0.1093
 6659W        W21790  12.104   0.566  15.766  0.2379  0.0211  0.0257
 6660W        W21791   1.169   1.758  13.392 -0.0875 -0.1940  0.1319
 6661W        W21792  16.318   7.438   0.002 -0.1195 -0.1797  0.2995
 6662W        W21793   9.176   8.614   5.037  0.2068 -0.0110  0.0241
 6663W        W21794  16.296  11.685   0.551  0.2168 -0.3085 -0.2431
 6664W        W21795  14.180   6.424   0.615 -0.2794 -0.0658 -0.1356
 6665W        W21796   0.536  16.231  10.797  0.1163  0.1489  0.5620
 6666W        W21797   9.904   2.963   1.759  0.1861  0.1310 -0.0244
 6667W        W21798  12.821  11.532  13.007  0.0781 -0.1680  0.1258
 6668W        W21799  12.102  17.926  11.309  0.0864 -0.2729 -0.0973
 6669W        W21800   4.225  11.817  13.850  0.1691 -0.1224 -0.1020
 6670W        W21801  17.623   8.448   0.058 -0.3605  0.1996 -0.0679
 6671W        W21802  12.036  16.180   4.707  0.2283  0.2482  0.0744
 6672W        W21803   3.820  15.508   3.090 -0.0612 -0.0068  0.0409
 6673W        W21804   7.979  10.301  13.715  0.0433 -0.0475 -0.5126
 6674W        W21805   9.918  14.460  12.458 -0.0243 -0.1051  0.0580
 6675W        W21806   3.578   2.263  13.453  0.2071 -0.1855 -0.1300
 6676W        W21807   0.193  16.888  11.745  0.1236  0.1639 -0.0013
 6677W        W21808   6.239  12.811  11.529 -0.1603  0.0750 -0.1997
 6678W        W21809  14.836  16.707   0.541 -0.0169 -0.0936  0.0343
 6679W        W21810   3.243  10.014   1.886 -0.1197 -0.2016  0.0295
 6680W        W21811  11.013  15.857  14.921  0.0486 -0.0025 -0.4154
 6681W        W21812  10.468   9.458  15.126  0.1278 -0.0272 -0.3939
 6682W        W21813  15.397   1.091  11.472  0.0059 -0.3328  0.3688
 6683W        W21814   9.037   8.104  12.850 -0.1013 -0.3177 -0.4186
 6684W        W21815  11.661  17.369   1.889  0.0351 -0.1382  0.1132
 6685W        W21816  16.052  10.711  15.463 -0.0427 -0.0209  0.2239
 6686W        W21817  10.274   5.559   4.418  0.1129  0.1009 -0.0428
 6687W        W21818   8.472   0.090  13.362 -0.1287 -0.2584 -0.2088
 6688W        W21819   8.554  14.303   4.363 -0.1159  0.3120  0.0789
 6689W        W21820   8.239  14.068   3.388  0.1682 -0.2665  0.3843
 6690W        W21821  13.036  16.863   2.335  0.0195  0.0969  0.2125
 6691W        W21822  13.640   2.626  13.221  0.1315  0.0993  0.0109
 6692W        W21823   3.196   2.784   3.380  0.3113 -0.0112 -0.2367
 6693W        W21824  12.384  11.369  14.533  0.0992 -0.1265  0.0025
 6694W        W21825  10.618  17.501  15.366 -0.1722 -0.1437 -0.0919
 6695W        W21826   0.244  12.119  14.823 -0.0435 -0.1386 -0.3807
 6696W        W21827  11.542   7.396   3.519 -0.0373  0.3705  0.0330
 6697W        W21828   7.018  16.194  11.012 -0.2878  0.2194  0.0205
 6698W        W21829   9.557   1.093  15.362 -0.0355 -0.1249  0.1297
 6699W        W21830  14.811  12.275   4.348  0.2023 -0.0506 -0.1846
 6700W        W21831  18.358  13.807  14.461 -0.2152 -0.0417  0.0602
 6701W        W21832   4.772  18.523   5.514 -0.0148  0.0039 -0.2202
 6702W        W21833   6.955   1.294   5.451  0.1474  0.1202 -0.1671
 6703W        W21834   7.535   6.025  11.479 -0.3871  0.4020  0.1944
 6704W        W21835   1.442  13.602   3.402 -0.1967 -0.0769  0.0243
 6705W        W21836   9.623   2.111  10.655 -0.0053 -0.1673  0.4189
 6706W        W21837  13.677  15.181   4.119 -0.3376 -0.2378 -0.1075
 6707W        W21838  14.373   6.823  11.544 -0.0932  0.2701 -0.0335
 6708W        W21839   2.660  11.417   4.180  0.0407 -0.1613  0.2195
 6709W        W21840  18.659  16.170   2.136 -0.0600  0.1390 -0.1922
 6710W        W21841  11.246  12.331   9.618  0.0323 -0.0569  0.0422
 6711W        W21842  17.108   6.570   0.306  0.0349 -0.0257  0.0969
 6712W        W21843  17.567   5.538  12.761 -0.0497 -0.0768  0.2298
 6713W        W21844   7.651   3.940   4.412 -0.2593 -0.0770 -0.0668
 6714W        W21845  14.185  16.474   3.895 -0.0833 -0.2322  0.0747
 6715W        W21846  13.132  10.623   5.893  0.1631 -0.1818 -0.2053
 6716W        W21847   6.593   1.185   3.351  0.0579  0.0734  0.2410
 6717W        W21848  10.451  16.589   0.567 -0.1585  0.2949 -0.2251
 6718W        W21849   4.513  17.786  11.403 -0.2944 -0.1765 -0.0232
 6719W        W21850  12.748   8.302   3.557 -0.0542 -0.1126  0.0715
 6720W        W21851   9.233   1.484  15.334  0.1985  0.1496  0.0283
 6721W        W21852   0.405  11.466   1.927 -0.1719 -0.0394 -0.0068
 6722W        W21853  12.281  14.922   4.229  0.1853 -0.0282 -0.0923
 6723W        W21854   1.297   5.863   2.260  0.3410  0.1416 -0.0352
 6724W        W21855  16.939   0.358  13.539 -0.0090 -0.2219  0.3431
 6725W        W21856   2.092  11.525  14.896 -0.0769  0.0708 -0.0067
 6726W        W21857  15.196   1.802  10.905 -0.1980 -0.0177  0.3982
 6727W        W21858  16.686  17.694  13.976  0.0069  0.1907  0.2890
 6728W        W21859   4.322  17.906   2.052 -0.0152 -0.0229 -0.1193
 6729W        W21860   4.124   9.706   3.913  0.0849  0.1492 -0.2665
 6730W        W21861   2.795  10.693   5.209  0.0558  0.2711  0.1914
 6731W        W21862  16.721  10.898  15.124 -0.0470  0.0264  0.0687
 6732W        W21863  12.070   9.659  11.699  0.1038 -0.1475 -0.0412
 6733W        W21864   3.224   4.761  13.368  0.0596  0.1433 -0.1445
 6734W        W21865  13.181   3.061  14.298  0.2414  0.0675  0.0611
 6735W        W21866  13.035  14.623  14.694  0.3631  0.0353 -0.1821
 6736W        W21867   7.317   4.412   5.846 -0.1763 -0.1270  0.2428
 6737W        W21868   0.465   4.826   3.187  0.2934  0.1090  0.0854
 6738W        W21869   0.393   2.216  13.549 -0.4438 -0.1800 -0.1607
 6739W        W21870  16.262   0.679   1.259  0.1504  0.1681 -0.0939
 6740W        W21871   8.493  16.989  14.909  0.0021  0.1161  0.1444
 6741W        W21872   0.663   3.576   1.825  0.0874 -0.1563 -0.2614
 6742W        W21873   9.489   7.511   4.658  0.1886 -0.1942  0.0616
 6743W        W21874  13.388  14.562   2.156  0.0563  0.1512 -0.2276
 6744W        W21875  17.685   8.157   0.496  0.1501 -0.0449  0.0930
 6745W        W21876  12.099   9.448  14.010 -0.1833  0.0486 -0.1818
 6746W        W21877  12.335   9.624   4.460 -0.2723  0.0158  0.1921
 6747W        W21878  18.403   4.791  13.951 -0.4296 -0.2752  0.1488
 6748W        W21879  16.195   9.336  11.230 -0.2592  0.0990 -0.2779
 6749W        W21880   4.327   9.448   3.578 -0.1034  0.0501 -0.0991
 6750W        W21881  13.643   6.376   1.594  0.3356  0.0798  0.1118
 6751W        W21882   2.792   4.849   4.677 -0.4394 -0.0198  0.3018
 6752W        W21883  17.319   9.409   5.907 -0.2335 -0.4425 -0.2153
 6753W        W21884   7.037   6.278  14.419  0.0335  0.1867 -0.0833
 6754W        W21885  10.164  10.752   2.044 -0.0269  0.1437  0.0597
 6755W        W21886   9.107  15.552   0.046  0.0074  0.1358 -0.3874
 6756W        W21887   0.530  12.959  15.093  0.0337  0.0760  0.0970
 6757W        W21888  13.861  11.156  12.266  0.0404 -0.1491 -0.0707
 6758W        W21889  15.686   0.820  15.278  0.1236 -0.1229  0.0759
 6759W        W21890  11.401  11.682   2.754  0.1721  0.0255  0.1810
 6760W        W21891  10.471   1.694  12.713 -0.0167 -0.2105 -0.2803
 6761W        W21892   3.085   0.928   5.327  0.1182  0.1284  0.2986
 6762W        W21893   5.702   2.226  11.445 -0.2058 -0.0572  0.0374
 6763W        W21894   6.618  18.315  12.056  0.2663  0.1840 -0.1923
 6764W        W21895   5.101   1.846  12.077 -0.1478  0.3687 -0.0847
 6765W        W21896  14.779  16.867  12.389 -0.1155  0.5640  0.3159
 6766W        W21897   6.650  10.871   2.833 -0.2964  0.0705 -0.1715
 6767W        W21898   9.436  17.045  15.326  0.1708  0.1889 -0.0030
 6768W        W21899   7.977  15.198   1.373  0.0737  0.0046  0.2751
 6769W        W21900   5.407   8.658   4.216 -0.2372  0.0286 -0.0126
 6770W        W21901   4.425  10.879   0.358  0.1027  0.1057 -0.0202
 6771W        W21902   1.300  16.114   5.359  0.0878 -0.0621 -0.2970
 6772W        W21903  11.900  13.353  15.290  0.2259  0.3204 -0.4230
 6773W        W21904   8.243  17.203  14.569  0.2224  0.0081  0.1522
 6774W        W21905   4.131   4.738  12.953 -0.0264 -0.0988  0.0194
 6775W        W21906  11.639  14.573  13.395  0.0927 -0.2332 -0.0204
 6776W        W21907   2.644   2.998  12.623 -0.1442 -0.1612 -0.0745
 6777W        W21908  18.154   0.134   4.800 -0.1053 -0.2205  0.1481
 6778W        W21909   3.268  15.991  15.327  0.0467 -0.1501 -0.0006
 6779W        W21910   2.741  13.905   2.996 -0.0000 -0.1494  0.0502
 6780W        W21911  12.002   3.199   1.603 -0.1147 -0.2852  0.2833
 6781W        W21912   4.107   5.151   4.881 -0.2896  0.0144 -0.1318
 6782W        W21913  11.822  16.205  10.948  0.1287 -0.1344 -0.0896
 6783W        W21914  15.285  12.259   3.560 -0.0634 -0.3650  0.2684
 6784W        W21915  10.750  11.469   4.729  0.2409  0.2167 -0.1368
 6785W        W21916  11.607   6.544   2.949  0.3794  0.1571 -0.1404
 6786W        W21917  13.721  14.924   3.492 -0.1757 -0.0906  0.5715
 6787W        W21918  10.782  15.973   4.490  0.0663  0.0821 -0.0227
 6788W        W21919   5.382   2.834  15.178 -0.0048  0.0083 -0.0617
 6789W        W21920  12.135   4.657   4.528  0.1744  0.0118 -0.0510
 6790W        W21921   6.225  14.665  12.972  0.1468 -0.1120 -0.0699
 6791W        W21922   1.884   7.827  15.535  0.1786 -0.1749 -0.0387
 6792W        W21923   1.147  16.671  14.939 -0.1524  0.0196 -0.2866
 6793W        W21924  17.053   9.797   4.401 -0.0580 -0.0964 -0.2642
 6794W        W21925  16.925  12.923  14.628  0.0601  0.0358 -0.2555
 6795W        W21926  18.722   7.174  15.599  0.0997 -0.1332 -0.4362
 6796W        W21927  11.404  16.361  13.008 -0.4522 -0.0668 -0.2305
 6797W        W21928  10.056  13.340  12.767 -0.0788  0.0993  0.3266
 6798W        W21929  15.290  14.935  13.884 -0.3049  0.2331 -0.0951
 6799W        W21930   6.760  17.729   2.703 -0.1491 -0.5055 -0.2700
 6800W        W21931  10.697   5.209   3.537  0.0512  0.1028 -0.2809
 6801W        W21932   5.156   6.179   3.002 -0.0218 -0.2036 -0.0642
 6802W        W21933  17.290   1.161  12.072  0.0637  0.0264 -0.0985
 6803W        W21934   3.356  14.168   5.262 -0.3323  0.7561 -0.1032
 6804W        W21935  11.010   2.772   1.785 -0.0392  0.2053  0.0418
 6805W        W21936  13.014  13.667  10.695  0.0056 -0.0640 -0.0366
 6806W        W21937   6.650   3.173  14.922 -0.0086  0.1149  0.2057
 6807W        W21938  12.804   9.582   4.241  0.1639 -0.3574  0.1631
 6808W        W21939   2.162   6.171   4.398  0.0188  0.3751  0.0039
 6809W        W21940  14.195   6.544  12.767  0.0187  0.0986  0.2094
 6810W        W21941   5.007  11.609   3.998  0.2658  0.2253  0.4088
 6811W        W21942  13.294  11.107  11.826  0.1326  0.3038 -0.0959
 6812W        W21943  18.077  12.277   2.671 -0.0125 -0.1263 -0.2661
 6813W        W21944   0.412  15.933   3.711  0.1750 -0.1603 -0.0407
 6814W        W21945  12.898  17.878  10.892  0.1545 -0.2288  0.0119
 6815W        W21946  13.078  13.103   3.703  0.3068  0.0601 -0.3330
 6816W        W21947  13.724   8.566   5.606 -0.1343 -0.0794 -0.1748
 6817W        W21948   1.046  15.227  14.974 -0.1199 -0.0428  0.1477
 6818W        W21949  12.967   6.253   3.978  0.3357  0.1093  0.1209
 6819W        W21950   7.119   2.573  12.313 -0.0887 -0.3194  0.2089
 6820W        W21951   5.623   9.251  10.942  0.0443 -0.0931  0.0965
 6821W        W21952  16.631   0.604   0.837  0.1494  0.3102 -0.1109
 6822W        W21953  18.095  13.358  12.680 -0.1548  0.0868 -0.0891
 6823W        W21954   4.392  10.150  14.250 -0.2062 -0.3271 -0.2245
 6824W        W21955   4.971   1.314   2.768  0.1452  0.3349 -0.0707
 6825W        W21956  16.416   6.937  12.918 -0.1894 -0.1823 -0.1802
 6826W        W21957  13.239   0.158  12.752  0.1468 -0.0539  0.3034
 6827W        W21958   4.915   6.716  13.636  0.0519  0.0513 -0.2104
 6828W        W21959   9.918   3.258  12.159  0.1203 -0.5116 -0.4902
 6829W        W21960   1.226   4.105  14.308 -0.0016 -0.1362 -0.1037
 6830W        W21961   9.142   7.335  12.932 -0.1319  0.2380  0.1105
 6831W        W21962  13.353  11.642   2.622 -0.1262  0.0582 -0.0115
 6832W        W21963  17.892  11.432  13.511 -0.0270  0.1837 -0.1322
 6833W        W21964   7.081  16.563   3.470 -0.1286 -0.1625  0.2515
 6834W        W21965   3.338   9.166  14.668 -0.2483 -0.2322 -0.2908
 6835W        W21966  12.355   8.008   3.437 -0.0281 -0.3338  0.3122
 6836W        W21967   1.240  18.003  10.923  0.1574  0.0519  0.1231
 6837W        W21968   4.486  16.810   3.084 -0.1527 -0.2193 -0.3115
 6838W        W21969  11.109   8.998  13.698  0.0711 -0.1163  0.2020
 6839W        W21970  14.405   0.142  15.127  0.0934  0.3586 -0.1057
 6840W        W21971   6.645   1.781  15.436  0.0383 -0.3467 -0.1682
 6841W        W21972  17.951  12.532  13.105 -0.1196 -0.2987 -0.2670
 6842W        W21973  14.743   2.430   4.203 -0.0090 -0.0673  0.4557
 6843W        W21974  15.956   6.216   3.490 -0.3703  0.2357 -0.1019
 6844W        W21975  14.703   7.976  12.428  0.0604 -0.2482 -0.3292
 6845W        W21976  16.341   9.823  12.123  0.0653  0.0720  0.2931
 6846W        W21977   3.171  16.963  12.333 -0.0936  0.1270  0.2355
 6847W        W21978  15.605  18.095   1.014  0.1926 -0.3375  0.0780
 6848W        W21979   5.310  16.634   3.478 -0.3168  0.1299  0.1249
 6849W        W21980  13.672  12.286   3.253  0.0729  0.2943  0.2436
 6850W        W21981   7.719  18.080   2.921 -0.0863 -0.0306 -0.4567
 6851W        W21982  15.768   5.964  13.586  0.0756 -0.2557  0.0145
 6852W        W21983   7.945   2.995   2.744  0.2043 -0.2703  0.1251
 6853W        W21984  17.439  14.522  12.034 -0.1262 -0.1946 -0.2442
 6854W        W21985   3.914  16.112   3.097 -0.1532  0.2474  0.1022
 6855W        W21986  16.832   8.251   2.163 -0.0059 -0.0688  0.1728
 6856W        W21987   7.859   5.247   0.709 -0.0150  0.0780  0.0801
 6857W        W21988   4.438  15.119  11.141 -0.3763  0.0884  0.2523
 6858W        W21989  17.704  12.356  11.468  0.1010 -0.0267 -0.1265
 6859W        W21990  11.486   6.470   4.859 -0.0942 -0.3409  0.0205
 6860W        W21991   2.365   8.127   0.465  0.1051  0.2316  0.0569
 6861W        W21992  17.300   1.465  12.502 -0.0511 -0.0417  0.0613
 6862W        W21993   1.822   6.953  11.016 -0.3334  0.0934  0.0512
 6863W        W21994  15.228  14.934  13.383 -0.0833  0.1351  0.2029
 6864W        W21995   1.465   0.634   1.540 -0.1226  0.2302 -0.3031
 6865W        W21996  13.023  11.591  10.301  0.4559  0.1238  0.3714
 6866W        W21997  16.591  16.387   2.480  0.4506 -0.0907 -0.2804
 6867W        W21998  15.814   7.065  13.554 -0.2663  0.0160  0.1161
 6868W        W21999   3.388   1.010  11.681  0.1480  0.0480  0.2477
 6869W        W22000  15.912   5.942   2.525 -0.2025 -0.0275 -0.0253
 6870W        W22001   9.137   3.922   1.018 -0.0931 -0.0054  0.2915
 6871W        W22002   3.968  18.195  13.816 -0.0166 -0.1674 -0.4131
 6872W        W22003   6.702  17.367  10.927 -0.0570  0.0017  0.2783
 6873W        W22004  15.547   3.984   9.870 -0.3005 -0.1832  0.0188
 6874W        W22005   4.009  15.467   0.645  0.0651 -0.0353  0.0805
 6875W        W22006   4.702   6.169  13.696  0.2139 -0.2038 -0.1439
 6876W        W22007  12.560  14.298   4.697  0.0172  0.0686 -0.0314
 6877W        W22008  17.862  17.034   2.232 -0.0335 -0.0047 -0.0844
 6878W        W22009  12.910  13.133   4.572  0.1697 -0.1876 -0.0469
 6879W        W22010   0.800  10.334   1.799  0.0298 -0.1235  0.1604
 6880W        W22011   4.626  13.979   2.253  0.2681  0.2718 -0.1371
 6881W        W22012   1.279  15.346   3.858 -0.0277 -0.1983  0.0268
 6882W        W22013   0.150   2.894  12.178 -0.0641  0.2907 -0.0492
 6883W        W22014  17.949   1.532  15.806 -0.1130  0.1759 -0.1453
 6884W        W22015   4.677  15.316  14.718 -0.1139  0.0083  0.2197
 6885W        W22016   9.395  13.674  12.619  0.1332 -0.0941 -0.1545
 6886W        W22017  17.841  12.578  11.042  0.1562 -0.0386 -0.0915
 6887W        W22018  16.019   5.729  11.136  0.0771  0.0242  0.1066
 6888W        W22019  10.703  12.935  14.596  0.0075 -0.0045 -0.1163
 6889W        W22020  17.369   6.452  14.519  0.2709  0.1486 -0.0551
 6890W        W22021  11.799  11.166   0.134  0.0685  0.0946 -0.0122
 6891W        W22022  11.716  13.452  14.295 -0.0678 -0.2022  0.0020
 6892W        W22023  14.782  10.691  15.745 -0.0317 -0.2828 -0.1448
 6893W        W22024   7.145  17.160  10.926  0.0100 -0.0994 -0.2436
 6894W        W22025   7.813  11.166  12.817  0.1540  0.0079  0.1640
 6895W        W22026   2.526   9.268  14.617  0.1102 -0.0087  0.1131
 6896W        W22027   7.789   5.040   4.676  0.1641  0.0549 -0.0928
 6897W        W22028   6.008  14.311   1.049  0.0050  0.0442 -0.3012
 6898W        W22029   4.751  14.466  14.376 -0.1002 -0.0898 -0.1266
 6899W        W22030  18.056   2.449   5.369 -0.2179  0.0045 -0.0572
 6900W        W22031   5.997   8.693   1.471 -0.2846  0.3138 -0.1574
 6901W        W22032   9.615   9.037  13.868  0.1661  0.1671 -0.1046
 6902W        W22033   2.689  16.066  14.507 -0.1764  0.4183  0.0603
 6903W        W22034   6.111   2.505   4.255 -0.0940  0.3369 -0.1518
 6904W        W22035   2.042   3.296  11.558 -0.0383  0.0852  0.0323
 6905W        W22036   1.083  13.844  13.283 -0.1964  0.0812  0.0882
 6906W        W22037  17.044   8.753   1.465 -0.0042 -0.0828 -0.2680
 6907W        W22038  16.728  13.160   4.967  0.1135 -0.1578 -0.0839
 6908W        W22039  18.184   3.491  11.532  0.3693 -0.0477 -0.1312
 6909W        W22040   7.764  11.525   3.525  0.1007  0.3493  0.0425
 6910W        W22041  10.988  10.797   1.644  0.1781  0.2215  0.1172
 6911W        W22042   3.438   6.779   1.577 -0.4854  0.0170 -0.1240
 6912W        W22043   4.787  16.931   2.599  0.0768  0.3048 -0.4230
 6913W        W22044   2.799  15.656  14.120  0.2466  0.1554 -0.1697
 6914W        W22045  13.136  14.410   3.514  0.0487 -0.4964  0.1351
 6915W        W22046  13.498   5.757   0.620 -0.1251 -0.0662  0.0871
 6916W        W22047   8.968   5.754   0.126  0.1617  0.1519 -0.3595
 6917W        W22048   0.731  14.330  13.834  0.1592  0.0151  0.2419
 6918W        W22049   4.561  10.454   6.078 -0.0999 -0.0816 -0.1276
 6919W        W22050   6.893   5.350   0.131 -0.1865  0.1008  0.1860
 6920W        W22051  14.830   5.696  13.510 -0.0613  0.1647  0.0535
 6921W        W22052  17.053  13.129  15.441 -0.1451 -0.0310 -0.3490
 6922W        W22053   3.551   3.131  11.118  0.0368  0.1118 -0.1598
 6923W        W22054   6.473   4.217   2.244  0.1836 -0.1748 -0.1119
 6924W        W22055  17.278   6.131  13.840 -0.1539  0.0929 -0.3779
 6925W        W22056  14.185   4.969   3.650  0.1707  0.3501 -0.4056
 6926W        W22057  15.754   4.615  14.456  0.0781  0.0590  0.1141
 6927W        W22058  15.758  11.921   5.873  0.1316 -0.2410 -0.0641
 6928W        W22059  16.148  18.107   2.377 -0.2479 -0.0013 -0.1348
 6929W        W22060  12.201  14.579   0.924 -0.2487 -0.1184 -0.2222
 6930W        W22061  16.534  12.689  11.919  0.0906 -0.0806 -0.2272
 6931W        W22062  15.000   6.807   1.941 -0.2623 -0.0234  0.1029
 6932W        W22063  11.822  13.392   0.894  0.2081 -0.4408 -0.3280
 6933W        W22064   5.437   1.223   5.681  0.2153  0.1019  0.0780
 6934W        W22065   6.316  18.147   3.463  0.0148 -0.1287 -0.0316
 6935W        W22066   1.976   0.575   3.813  0.1684  0.4078 -0.2542
 6936W        W22067  12.174   3.237   0.230 -0.0467  0.2869  0.1867
 6937W        W22068   5.247  10.149   2.137  0.0796 -0.1639 -0.1749
 6938W        W22069   1.442   5.048  11.121 -0.0241  0.1924 -0.1017
 6939W        W22070  17.598  12.127   2.628 -0.1119 -0.4245 -0.3581
 6940W        W22071  16.982   5.726  12.707 -0.1053 -0.1078  0.2042
 6941W        W22072   2.335   1.970  11.928 -0.0828  0.1110 -0.0505
 6942W        W22073  18.667  16.651  12.135  0.5457  0.1126 -0.0246
 6943W        W22074   7.580   2.934   4.701  0.1999 -0.1483 -0.0168
 6944W        W22075   4.543  18.528   1.928  0.0377 -0.0932  0.1837
 6945W        W22076   2.977   2.631  14.673  0.0108  0.0149  0.0921
 6946W        W22077  12.912  13.742   3.088  0.2992 -0.0724 -0.2185
 6947W        W22078   3.128   4.349  12.162 -0.4196  0.2041  0.1505
 6948W        W22079   5.722   7.874  15.553  0.1052 -0.2884  0.0580
 6949W        W22080  15.459   8.682  14.262 -0.0204 -0.5244  0.1563
 6950W        W22081  10.045   0.498   3.753  0.0014  0.2894 -0.1077
 6951W        W22082  12.489   4.402  12.612 -0.1202  0.3068  0.0749
 6952W        W22083  14.010   9.004   2.483 -0.0463  0.0252  0.0423
 6953W        W22084   1.611   9.969  13.886 -0.0401  0.1097  0.0463
 6954W        W22085  10.951   0.491   3.059  0.0996  0.1491  0.0347
 6955W        W22086  12.066   6.663   3.005 -0.3212  0.0300  0.0944
 6956W        W22087  15.153   7.985   1.156  0.0611 -0.1756 -0.1198
 6957W        W22088   5.545  10.381   1.834 -0.1266 -0.0082  0.0821
 6958W        W22089   1.338  16.826   3.558 -0.0635 -0.0686  0.1030
 6959W        W22090   6.494   5.214   5.764  0.0615 -0.1170  0.3304
 6960W        W22091   7.128   7.742   1.548 -0.0711  0.2329  0.1492
 6961W        W22092   4.475   7.297   0.115 -0.1760 -0.1403  0.1033
 6962W        W22093  18.625   3.141  11.758 -0.0266 -0.1118  0.1504
 6963W        W22094  11.543   1.186   0.296  0.0472 -0.0652  0.0183
 6964W        W22095   2.782   2.554  11.380 -0.1916  0.0776  0.1066
 6965W        W22096   3.801  16.469  11.669 -0.2382 -0.1596  0.0519
 6966W        W22097   8.725   7.529  10.692  0.0712 -0.0587 -0.0965
 6967W        W22098   7.950  16.131  13.598  0.1282 -0.0562 -0.2436
 6968W        W22099  14.665  14.583  15.299  0.0891  0.1197  0.0273
 6969W        W22100  11.870  16.199   0.062  0.0069  0.0800  0.0867
 6970W        W22101  10.084  16.877  11.337 -0.0296 -0.0352  0.0928
 6971W        W22102  13.244   4.480  15.634  0.0626 -0.1178 -0.3302
 6972W        W22103  14.693  14.462  11.011  0.0021 -0.2286 -0.2533
 6973W        W22104   7.465   0.201   4.505 -0.0399 -0.1397  0.1067
 6974W        W22105   8.892   3.876   4.012 -0.0495 -0.1017 -0.0916
 6975W        W22106   7.552   0.554   3.122  0.3032  0.1197  0.0223
 6976W        W22107   7.954  17.638  12.847  0.0416 -0.1613 -0.1500
 6977W        W22108   1.032   0.471   1.790  0.2470  0.0320 -0.1884
 6978W        W22109  12.163   7.409  14.065 -0.0531 -0.0143  0.1886
 6979W        W22110  16.141   0.362   1.707 -0.0253 -0.2338  0.2226
 6980W        W22111  16.693   3.194   2.010  0.1920 -0.1121 -0.0569
 6981W        W22112   7.208   1.030   4.608  0.1104 -0.0992  0.3144
 6982W        W22113  17.030   7.180  12.793 -0.7414  0.3830  0.1426
 6983W        W22114  12.054  12.831  14.884 -0.1342 -0.1430  0.0408
 6984W        W22115   0.828   0.763  14.516  0.4243  0.3175 -0.1284
 6985W        W22116   6.656  13.128  14.087 -0.1461 -0.0130  0.1757
 6986W        W22117  11.296  17.889  13.496  0.1828 -0.1642  0.1145
 6987W        W22118   9.932  15.931   1.273  0.4406  0.3945  0.1979
 6988W        W22119  15.281  14.813  12.849  0.1188  0.1517  0.1701
 6989W        W22120   4.455   2.626   5.027 -0.0036 -0.2495 -0.5984
 6990W        W22121   0.476   6.746  10.629 -0.0976 -0.2006 -0.1334
 6991W        W22122   5.321   7.020  15.281 -0.2074  0.1839  0.0417
 6992W        W22123   3.025  17.250   2.437  0.0854  0.0336 -0.1002
 6993W        W22124   3.995   5.179   4.365  0.2520 -0.2287 -0.0390
 6994W        W22125   4.952  12.983  13.027 -0.0211  0.3503  0.0655
 6995W        W22126  18.444   0.163  11.555 -0.1256  0.1326 -0.3112
 6996W        W22127  15.364   3.811  10.357 -0.4062  0.1305  0.0501
 6997W        W22128  13.704   9.273   2.757 -0.2689  0.1476 -0.3295
 6998W        W22129  13.912   9.953  14.022 -0.0420 -0.1285  0.0737
 6999W        W22130   4.565   3.852   3.989 -0.2741  0.2607  0.3667
 7000W        W22131  16.095   2.051  12.296  0.1013  0.2473 -0.3464
 7001W        W22132   6.332  18.040  12.454  0.0908 -0.2326 -0.1711
 7002W        W22133  16.942   6.157  12.400 -0.0477 -0.0446 -0.0333
 7003W        W22134   3.374  17.576   0.831  0.1213  0.0107  0.0933
 7004W        W22135   4.429   0.954   2.406 -0.1121  0.1134  0.0352
 7005W        W22136  14.245  11.482   2.151 -0.0260 -0.0740  0.0931
 7006W        W22137  14.625  11.357   1.730 -0.1762 -0.0327  0.2648
 7007W        W22138  10.276  11.652  14.144  0.1025  0.4006 -0.2415
 7008W        W22139  17.303   7.612   0.263  0.0694 -0.2365  0.1732
 7009W        W22140   7.834  11.126   4.896  0.0448  0.0824 -0.1691
 7010W        W22141  12.730   8.254   5.723  0.1473 -0.0022  0.0816
 7011W        W22142  11.809  15.483   3.819 -0.2208 -0.1516 -0.1441
 7012W        W22143  16.747   1.467  11.900  0.1996 -0.0589 -0.0855
 7013W        W22144   4.860   1.104  13.337  0.1993 -0.0233  0.2825
 7014W        W22145   7.218  14.369   0.599  0.2595 -0.1883 -0.1045
 7015W        W22146   5.446   7.695   4.701  0.1222 -0.1752  0.1847
 7016W        W22147   3.479  18.155   5.406  0.1372  0.2059  0.0557
 7017W        W22148  11.294   6.426   1.158 -0.1563 -0.0810 -0.0637
 7018W        W22149  10.154  12.761   3.249  0.1184 -0.0767 -0.0723
 7019W        W22150   2.896   7.950  13.127 -0.1913  0.1165 -0.1116
 7020W        W22151  17.264  15.645  14.581 -0.2274  0.1541  0.0959
 7021W        W22152  15.959   6.903   0.001 -0.0420  0.0384  0.0986
 7022W        W22153   9.358  18.289   0.528  0.2720  0.3976 -0.2282
 7023W        W22154   6.777   2.578   6.351  0.1809  0.0721 -0.1135
 7024W        W22155  12.869   4.676  12.845 -0.0010 -0.0531  0.0009
 7025W        W22156   7.447  14.383  12.199  0.2908  0.0172 -0.1944
 7026W        W22157   1.220  14.982  11.351  0.2962  0.1782  0.0505
 7027W        W22158   2.911   3.716   0.132 -0.1253  0.0507 -0.0104
 7028W        W22159   3.795  12.373   2.689  0.0583  0.0545  0.1256
 7029W        W22160  16.162  17.786  12.546 -0.1017  0.1250 -0.2282
 7030W        W22161  10.696   4.109   0.528 -0.2273 -0.1571  0.4009
 7031W        W22162  18.435  14.110   4.901  0.1369  0.2559  0.0835
 7032W        W22163  12.160  10.913  14.543 -0.1067  0.0249 -0.0128
 7033W        W22164  16.639  16.177  11.102 -0.3240 -0.2007 -0.0746
 7034W        W22165   8.782   2.476   2.939  0.2539 -0.1300 -0.1575
 7035W        W22166   2.708   3.180   0.799  0.1032  0.1084  0.3930
 7036W        W22167  16.476   5.869   4.255  0.1897  0.0719  0.1285
 7037W        W22168   8.910  10.015  15.595 -0.1990  0.3071 -0.1323
 7038W        W22169  12.746   0.372   2.815 -0.1700  0.0319  0.1406
 7039W        W22170  15.993  15.565  11.005  0.0437 -0.0128  0.1535
 7040W        W22171   2.309   8.822  11.196 -0.0999 -0.2519 -0.0371
 7041W        W22172   4.526   2.742  14.913  0.2694  0.0048 -0.0261
 7042W        W22173  13.708  16.020  12.144  0.1095 -0.3063 -0.0124
 7043W        W22174   8.389  18.475   5.540 -0.0416  0.3855 -0.1008
 7044W        W22175  11.833   3.260   4.648  0.1960 -0.1367  0.1725
 7045W        W22176  15.602  14.610   6.083  0.0489 -0.2375  0.0236
 7046W        W22177   0.234   7.983   4.692 -0.0027  0.0418  0.2068
 7047W        W22178  12.842  11.101  12.066 -0.0926 -0.0686  0.1799
 7048W        W22179   3.644   5.895   1.541 -0.0114 -0.0143  0.4573
 7049W        W22180   1.496   3.431   0.526 -0.0185 -0.1393  0.0976
 7050W        W22181  11.906   9.021  12.128 -0.3604  0.1604  0.3437
 7051W        W22182  15.336   5.590   0.506  0.1365  0.1368 -0.2662
 7052W        W22183  10.255   9.495   0.340 -0.2408  0.0759 -0.0023
 7053W        W22184   6.482   5.131  12.238 -0.0480  0.0168 -0.2126
 7054W        W22185   4.953   6.327  13.251 -0.1656  0.0372 -0.2378
 7055W        W22186   8.376   2.203  12.260 -0.1143  0.1785 -0.1213
 7056W        W22187   2.509   3.892  15.633 -0.2095 -0.0320 -0.1229
 7057W        W22188   0.173  16.189  12.298  0.0107 -0.4144 -0.1653
 7058W        W22189   3.629   9.137   0.808  0.1133  0.1040 -0.2045
 7059W        W22190   3.754  12.742  14.622  0.2637  0.3846 -0.0267
 7060W        W22191   7.140  11.038   3.199  0.2195 -0.0887  0.2242
 7061W        W22192  14.918  11.686  11.523 -0.0091 -0.3493 -0.2635
 7062W        W22193  11.534  11.465  11.846 -0.0186 -0.2494 -0.0633
 7063W        W22194   4.103   3.992  15.275  0.0298  0.0205 -0.0932
 7064W        W22195  14.921   1.009  14.961  0.0370 -0.3368  0.0890
 7065W        W22196   0.552  10.935   3.934  0.2653  0.3713  0.5737
 7066W        W22197   5.384   6.266  10.768 -0.0785  0.0771  0.0393
 7067W        W22198  17.047  15.610   1.653  0.0726 -0.1221  0.1380
 7068W        W22199  10.676  13.295  11.233  0.1084  0.0932 -0.3836
 7069W        W22200   9.893   3.319   2.659 -0.2531  0.1502  0.4309
 7070W        W22201   9.634  13.237   2.407 -0.2650  0.2090 -0.2240
 7071W        W22202   6.385  12.510   4.024  0.3639  0.3024 -0.0266
 7072W        W22203   5.657   3.523  15.723 -0.2689 -0.0494 -0.0035
 7073W        W22204   3.150   5.799   1.287  0.2747 -0.1302 -0.0934
 7074W        W22205  16.735   6.306   3.138 -0.0791 -0.0711  0.0339
 7075W        W22206   9.104   1.639  14.366 -0.3203  0.3956 -0.2617
 7076W        W22207   1.219   8.813  12.606  0.0589 -0.1536  0.3233
 7077W        W22208  11.369   7.817   3.956 -0.2929  0.0517  0.3566
 7078W        W22209  13.048   9.844  12.469 -0.2809 -0.0181  0.1978
 7079W        W22210  14.161   0.294  11.644 -0.0606  0.1037  0.0374
 7080W        W22211   0.655   8.824  15.311  0.1719  0.1550  0.0682
 7081W        W22212   2.048   7.321   0.520  0.1067 -0.0942  0.0345
 7082W        W22213  15.153  11.556  11.937  0.0040 -0.1756 -0.1767
 7083W        W22214  12.094  17.661   1.728 -0.1826 -0.2430  0.0081
 7084W        W22215   7.930   5.398  12.048  0.0934 -0.0955  0.2013
 7085W        W22216  14.570   7.745   0.751 -0.1280  0.1959 -0.1135
 7086W        W22217  18.201   9.208   1.526  0.0841 -0.0689 -0.0034
 7087W        W22218   3.801   9.385  14.820 -0.1914 -0.0343  0.2736
 7088W        W22219  11.071   4.998   0.748 -0.2398  0.3718  0.1507
 7089W        W22220  16.565   7.105  14.690 -0.0870 -0.3309 -0.1197
 7090W        W22221   5.486   4.097  14.056 -0.0240  0.0738 -0.0348
 7091W        W22222   4.337  16.972   5.387  0.0890  0.4002 -0.0952
 7092W        W22223   5.600  10.722   2.439 -0.2241  0.0596 -0.1648
 7093W        W22224   1.545  13.179   2.602 -0.2719  0.2233  0.0783
 7094W        W22225   0.247  18.398  15.243 -0.0951 -0.0127 -0.1987
 7095W        W22226  11.658   0.320  12.780 -0.0542 -0.1060 -0.3428
 7096W        W22227  15.726  10.005   5.158  0.2502 -0.1135  0.0604
 7097W        W22228   6.595   6.589  14.383  0.1370  0.3069 -0.2257
 7098W        W22229  11.659   7.202  13.457  0.0174 -0.2324 -0.1664
 7099W        W22230  17.179   0.805  14.151 -0.1018  0.0648  0.0184
 7100W        W22231   0.714   4.814   2.215 -0.0670  0.0414 -0.1021
 7101W        W22232   8.394   3.214  11.564 -0.4534 -0.3680  0.1610
 7102W        W22233   8.856  15.645   3.962 -0.2715  0.1327  0.0800
 7103W        W22234  10.314  16.783   4.884  0.0676 -0.2122  0.2177
 7104W        W22235   5.293  16.437   5.624  0.0252  0.0947  0.2244
 7105W        W22236  12.714   9.837  14.265 -0.1178 -0.4064  0.1793
 7106W        W22237   1.571   6.266   2.506  0.0025  0.2014 -0.0241
 7107W        W22238   6.530  10.193   2.740  0.2142 -0.1164 -0.1392
 7108W        W22239  15.195  18.354   0.707  0.1420  0.3699  0.0876
 7109W        W22240   9.774  15.656  13.081  0.1611  0.0869 -0.1715
 7110W        W22241  11.185   4.593   3.968 -0.2056 -0.0749  0.0952
 7111W        W22242  13.981  16.374  13.577  0.0892  0.0219  0.3340
 7112W        W22243   0.067   5.926  13.599  0.2462  0.1972  0.0786
 7113W        W22244   5.236   2.825   0.167  0.1400  0.2842 -0.1214
 7114W        W22245   2.031  11.198   1.871  0.0036 -0.3418 -0.0937
 7115W        W22246  15.771   3.239   3.077  0.2359  0.0735  0.2650
 7116W        W22247  17.345   8.086  11.657 -0.0580 -0.1994 -0.0501
 7117W        W22248  10.386   7.856  12.096 -0.0241 -0.0078  0.0921
 7118W        W22249  12.528   4.261  14.985 -0.1546  0.1176 -0.1835
 7119W        W22250  11.935  12.416   4.352 -0.0161 -0.0131 -0.0846
 7120W        W22251  12.540  14.073   1.725 -0.1235 -0.0577  0.0196
 7121W        W22252   4.186  18.585   3.647 -0.0873 -0.1963 -0.1736
 7122W        W22253   5.942   4.866   0.034  0.1041  0.0783  0.2072
 7123W        W22254  18.057   5.540   0.015 -0.0211 -0.2513 -0.0682
 7124W        W22255  13.439  13.640   3.018  0.3844 -0.1207  0.0155
 7125W        W22256  15.276  14.686   5.242  0.0472 -0.1094  0.0395
 7126W        W22257  17.702  15.817  14.283  0.1094 -0.2332  0.2771
 7127W        W22258  11.211  13.727   0.810  0.0240  0.0525 -0.1274
 7128W        W22259  13.730   4.522   4.429  0.1470 -0.3365  0.2320
 7129W        W22260  14.734  11.107  11.854  0.1303  0.4916  0.0120
 7130W        W22261  16.596   6.298   1.824  0.5000 -0.0785  0.1193
 7131W        W22262   2.113  12.558   4.516  0.0745  0.1168  0.2168
 7132W        W22263   2.734   2.904  15.628  0.0637 -0.1127 -0.1121
 7133W        W22264   5.376   0.083  13.579 -0.1009 -0.1911  0.2458
 7134W        W22265   2.566  10.916  14.323  0.2157 -0.1557  0.3515
 7135W        W22266   3.311  17.692  15.263 -0.0653 -0.2414 -0.0742
 7136W        W22267  12.916  11.326  12.555  0.2237  0.2623 -0.0358
 7137W        W22268  15.104   1.848  11.990 -0.0999 -0.0221 -0.2842
 7138W        W22269   5.774  16.376   3.638  0.0813  0.1182 -0.1689
 7139W        W22270   8.195  13.589   0.096 -0.0654 -0.2765 -0.0080
 7140W        W22271   3.578  11.485  15.220 -0.2220 -0.1099 -0.1423
 7141W        W22272   8.930   2.059  14.603  0.1556 -0.0303  0.0015
 7142W        W22273   1.698   8.693   2.489  0.2035 -0.4299 -0.0409
 7143W        W22274   3.526   1.706  14.871  0.0928  0.2929  0.4645
 7144W        W22275  12.833   1.747   1.961 -0.0254  0.3250 -0.1252
 7145W        W22276  13.298   1.504   1.845  0.0712  0.1142 -0.3142
 7146W        W22277  12.501  11.295  13.940 -0.0044 -0.0258  0.0756
 7147W        W22278   1.617   9.575   3.317 -0.1686  0.1342 -0.1674
 7148W        W22279   6.032  18.468   1.629  0.0447 -0.0055 -0.0221
 7149W        W22280  15.294  14.025   0.622  0.1120  0.0971 -0.1581
 7150W        W22281  13.083   3.486   3.980  0.1153  0.0648 -0.5571
 7151W        W22282   1.537   6.358   3.888  0.2101 -0.0597 -0.2899
 7152W        W22283   1.510   6.445  13.629  0.1368 -0.0406 -0.0120
 7153W        W22284   4.132  17.252  15.332 -0.3924  0.3065  0.1687
 7154W        W22285   6.814  17.827  13.862 -0.3511 -0.0899  0.1131
 7155W        W22286  17.989   4.074   5.096  0.0667 -0.0753 -0.2288
 7156W        W22287  16.671  12.614   0.618  0.2277  0.1140 -0.0989
 7157W        W22288   9.924  17.803   1.987 -0.0516  0.0888  0.2350
 7158W        W22289  11.146  17.006   3.149 -0.3392 -0.1151  0.3657
 7159W        W22290  12.545  15.892  13.233  0.2247  0.1154 -0.1225
 7160W        W22291  16.452  18.249   5.098 -0.2388 -0.2263  0.2251
 7161W        W22292   7.133  11.933   4.368 -0.1839 -0.1322 -0.2285
 7162W        W22293   2.474   1.787   2.672  0.2097  0.1234  0.3192
 7163W        W22294  10.197   8.579   3.947 -0.1500 -0.0073 -0.1168
 7164W        W22295   5.708  11.646  13.093  0.0535  0.0851  0.1481
 7165W        W22296   7.972   6.797   2.919 -0.1299  0.0305  0.3494
 7166W        W22297  14.016   6.988  11.832 -0.0705  0.0355  0.2671
 7167W        W22298  18.446  12.665  12.921 -0.1115  0.1109 -0.1387
 7168W        W22299  11.052  14.100   3.019 -0.2700  0.0082  0.0062
 7169W        W22300   9.545  17.126  13.186 -0.0336  0.2445  0.3534
 7170W        W22301  12.195  16.833   2.512 -0.1709 -0.2179  0.1923
 7171W        W22302  13.285  18.575   4.635  0.0708 -0.0187 -0.2156
 7172W        W22303  11.825   4.887   2.419  0.1568 -0.1987  0.1519
 7173W        W22304   1.873   9.660   4.479  0.3288 -0.5283  0.0220
 7174W        W22305   1.962  18.498   1.253  0.0682  0.2809  0.0131
 7175W        W22306  10.647  16.281  13.624 -0.1021  0.2170  0.1894
 7176W        W22307  10.984  17.111   0.294 -0.3635 -0.1675 -0.2564
 7177W        W22308   1.330   4.953   3.741 -0.2466 -0.1404  0.0331
 7178W        W22309  12.595   9.557   1.551  0.1366 -0.2498 -0.0518
 7179W        W22310   3.633   6.403  11.161  0.0199  0.0024 -0.1643
 7180W        W22311  14.328   0.751   2.719  0.1030  0.2356 -0.1736
 7181W        W22312   8.506  10.804  12.343 -0.0840 -0.0798 -0.0439
 7182W        W22313  11.908   3.057  13.485  0.1343 -0.0154  0.1432
 7183W        W22314   3.382   6.659  14.698  0.4059  0.2971 -0.3997
 7184W        W22315   5.330   1.194   2.373 -0.1326  0.1658  0.2845
 7185W        W22316  11.062   7.581  13.845 -0.0478 -0.2970 -0.1492
 7186W        W22317   4.283   9.568   2.114  0.0843 -0.1286 -0.1942
 7187W        W22318   8.604  17.435  15.172 -0.1710  0.0663 -0.2540
 7188W        W22319   7.407  10.653  14.569  0.3548 -0.2090  0.3388
 7189W        W22320  14.296  18.505  12.810  0.0014 -0.0299 -0.1335
 7190W        W22321   9.887  10.948  10.725  0.3506 -0.0330  0.1277
 7191W        W22322  15.354  15.087   0.192 -0.2203 -0.0511  0.2290
 7192W        W22323   4.034   9.187  11.342 -0.0503  0.2237  0.1456
 7193W        W22324  16.158   8.067  12.081  0.0134  0.2657 -0.1098
 7194W        W22325  13.290   4.898   0.291  0.0798  0.0598 -0.1433
 7195W        W22326   1.941   2.171   3.981 -0.1060 -0.2927 -0.1882
 7196W        W22327  10.064  12.838   3.803 -0.3910  0.2939  0.2588
 7197W        W22328  17.245  17.286   2.186  0.1668  0.0613  0.1487
 7198W        W22329   3.980   4.859  11.927 -0.0163 -0.0073  0.2537
 7199W        W22330  10.363   5.915   1.681  0.1515 -0.0360  0.2099
 7200W        W22331   9.215  16.162   0.062  0.2209  0.2058  0.3525
 7201W        W22332   0.454   1.545   1.243 -0.0802  0.3311 -0.1737
 7202W        W22333  18.403  11.221   3.210  0.0657  0.1341 -0.0492
 7203W        W22334   4.151  12.656   1.051  0.1860  0.1942 -0.3643
 7204W        W22335   9.525   5.231  10.752  0.1116  0.2681 -0.0242
 7205W        W22336   2.110   0.372  14.859 -0.3272 -0.1904 -0.1516
 7206W        W22337   6.172  10.498  13.079  0.0167  0.2820 -0.2858
 7207W        W22338   4.622  12.131   4.364 -0.1909  0.1269  0.3557
 7208W        W22339   6.398  15.814  10.594 -0.1593  0.0101 -0.1608
 7209W        W22340   8.148  10.398   0.971 -0.0751  0.0432  0.0388
 7210W        W22341   1.606  16.044   3.893 -0.1022  0.0529  0.0109
 7211W        W22342  11.001   6.325  11.935 -0.2537  0.1983 -0.0477
 7212W        W22343   9.654  12.300   2.913  0.2056  0.1394 -0.0085
 7213W        W22344  17.798   3.505   0.062  0.2862 -0.2485  0.1083
 7214W        W22345   1.452   4.648  11.413  0.0368  0.0204 -0.4848
 7215W        W22346  15.215   6.375  11.924  0.1857 -0.0481  0.1124
 7216W        W22347  17.176   4.773  12.650  0.1943 -0.2157 -0.0174
 7217W        W22348  16.389   8.999  14.158  0.2354  0.1679  0.2110
 7218W        W22349   3.178  17.827   4.403 -0.3744 -0.2334  0.0144
 7219W        W22350   9.007   4.640  15.255  0.0974  0.2948 -0.1180
 7220W        W22351   4.634  12.441   0.370  0.3292 -0.2262 -0.0169
 7221W        W22352   9.050  13.398   2.520  0.2057  0.1476  0.1727
 7222W        W22353  10.954   1.333   1.767 -0.1739 -0.3939 -0.6080
 7223W        W22354  12.759  15.063   1.455 -0.1157 -0.1990 -0.0764
 7224W        W22355   4.681  14.998   2.150 -0.2171  0.2054  0.0666
 7225W        W22356  13.782   9.679   3.760 -0.1252  0.0375  0.0806
 7226W        W22357   0.041  17.020   2.854 -0.1607  0.1055 -0.2580
 7227W        W22358   6.214  13.116  12.315  0.1647 -0.1506 -0.1415
 7228W        W22359   0.734   5.747  10.283 -0.3084  0.0227  0.2076
 7229W        W22360   8.786  13.549  14.279 -0.2725 -0.1557 -0.2142
 7230W        W22361   4.084   4.310  11.093  0.0199 -0.1804  0.3691
 7231W        W22362  17.060   8.910   2.961 -0.2912 -0.1283 -0.2191
 7232W        W22363  18.607   0.998  14.078 -0.2651  0.1211 -0.1190
 7233W        W22364   5.742  13.424   4.357 -0.3666  0.3994 -0.3404
 7234W        W22365   8.414   1.948   1.745  0.0126 -0.1820  0.0440
 7235W        W22366  18.376   4.747  13.405  0.2530  0.0048 -0.0407
 7236W        W22367  14.997  11.673   1.369 -0.3712  0.2109  0.2009
 7237W        W22368  15.802   0.972   2.910  0.1393  0.2677 -0.2171
 7238W        W22369   1.907   8.139  12.869  0.3426  0.0407  0.0343
 7239W        W22370   7.969   3.696   9.467 -0.0972 -0.0128 -0.4189
 7240W        W22371   9.575  17.888   0.314 -0.2776 -0.1125  0.1626
 7241W        W22372  15.159   1.785  14.037  0.1689  0.0920 -0.1240
 7242W        W22373   8.711   4.671  10.976  0.6401 -0.1072 -0.2516
 7243W        W22374  14.115   5.275  14.546  0.2456 -0.0347 -0.2770
 7244W        W22375   9.734   1.852   0.972  0.0014  0.4436  0.0635
 7245W        W22376   9.576   4.168  10.966  0.3991 -0.0766 -0.1072
 7246W        W22377   1.414  15.536   1.554 -0.0603 -0.0626 -0.1409
 7247W        W22378   4.245  11.087  15.790 -0.0058  0.1763  0.2695
 7248W        W22379  16.216   0.058  10.867  0.4003 -0.2050 -0.3582
 7249W        W22380  17.207   3.578   0.771 -0.2399  0.1687  0.2109
 7250W        W22381   8.331   7.362  12.012  0.0244 -0.3411  0.0844
 7251W        W22382   1.428   6.690  10.872  0.1601  0.2536 -0.0721
 7252W        W22383  15.058   6.920  15.659 -0.3138 -0.0456  0.0506
 7253W        W22384  15.120  18.626  15.586  0.1144  0.4165  0.1195
 7254W        W22385   8.108   2.770  15.604  0.1334  0.1460  0.1844
 7255W        W22386   7.650  13.792   1.801 -0.1762  0.0726 -0.0584
 7256W        W22387   2.966   9.601  11.442 -0.0948 -0.1926  0.0986
 7257W        W22388  17.362  13.494   4.801 -0.0221 -0.2366  0.2674
 7258W        W22389  12.680  14.686   0.160  0.2223 -0.2359 -0.0860
 7259W        W22390  12.295  14.266  12.832  0.2759  0.0062 -0.1423
 7260W        W22391  12.379   0.546   3.184 -0.1926 -0.1938 -0.0244
 7261W        W22392  17.626   0.136   1.354 -0.4992 -0.1322  0.0991
 7262W        W22393   9.656   0.397  14.203 -0.2141  0.0741 -0.0175
 7263W        W22394   2.218  12.260   3.620  0.0676 -0.3791  0.1462
 7264W        W22395   1.232   1.511  11.268 -0.1171 -0.0151  0.0453
 7265W        W22396  14.600   6.115  14.684 -0.1007 -0.2098  0.0533
 7266W        W22397  16.962   4.976   3.614  0.0289  0.2046  0.0517
 7267W        W22398  16.837   7.657  12.028  0.2577 -0.1442 -0.2086
 7268W        W22399   8.304   7.715   1.807 -0.1544 -0.2700 -0.1642
 7269W        W22400   1.617  13.167   3.109 -0.2457  0.1054  0.1243
 7270W        W22401  17.868  11.717   0.766 -0.0736  0.1319  0.0579
 7271W        W22402  11.923   2.200   5.996 -0.2299  0.4357 -0.1333
 7272W        W22403  12.194   2.513   1.828  0.1230  0.2181  0.0658
 7273W        W22404  12.779  15.696  10.963 -0.0730 -0.0931 -0.0905
 7274W        W22405  17.082   6.276   3.493  0.2803 -0.0818  0.0636
 7275W        W22406  11.858  13.712   4.812  0.0499 -0.0049  0.1034
 7276W        W22407  18.070  18.452  12.838  0.0013  0.0376  0.1243
 7277W        W22408   4.251  14.137  13.158  0.0014 -0.1607  0.1509
 7278W        W22409  11.187  12.507  13.889  0.0137  0.1174  0.0611
 7279W        W22410   9.255   2.492   0.690  0.0994 -0.3480 -0.2563
 7280W        W22411   9.899   0.402   4.796  0.0149 -0.1755 -0.0663
 7281W        W22412  15.102  12.864  11.854 -0.0537  0.2852 -0.4006
 7282W        W22413  15.092   3.404   0.785 -0.0717 -0.2975 -0.1185
 7283W        W22414  13.317  15.655   4.287  0.0135  0.2440  0.2921
 7284W        W22415  12.907   5.868  15.043 -0.0832  0.1989  0.0437
 7285W        W22416   7.583  10.397   1.100  0.0208 -0.0279 -0.1015
 7286W        W22417  15.162   7.483  11.907 -0.0081 -0.1243 -0.2405
 7287W        W22418   9.099  14.736  14.153 -0.0121  0.0277 -0.3021
 7288W        W22419  12.892  15.501   0.698  0.0447 -0.2329 -0.0430
 7289W        W22420  12.369   4.983   4.227 -0.2122  0.1219  0.0678
 7290W        W22421   1.872  15.475  10.729 -0.2377  0.1404 -0.2461
 7291W        W22422  10.115  14.891  15.316 -0.1621  0.1059 -0.0721
 7292W        W22423   3.061  16.301   5.041 -0.3367 -0.1780  0.0166
 7293W        W22424   5.584   8.368  12.168  0.4342  0.5000  0.4351
 7294W        W22425   8.768   6.148  13.614  0.0080  0.3392  0.4097
 7295W        W22426   3.527   8.357  14.351 -0.0062  0.0066  0.1714
 7296W        W22427   5.428   1.580   4.691  0.0637  0.1581  0.1571
 7297W        W22428  18.364  16.956  11.124  0.1016  0.0405  0.0500
 7298W        W22429   7.279  13.018   4.388 -0.3891 -0.2004  0.1524
 7299W        W22430  17.233  18.570  14.289 -0.1519 -0.0535  0.1363
 7300W        W22431  10.172  16.035  13.242  0.0585 -0.0641  0.2632
 7301W        W22432   9.075   3.519  12.282  0.1038  0.1287 -0.0352
 7302W        W22433   7.538   7.857   3.863 -0.3342 -0.0555  0.1081
 7303W        W22434  11.988   6.407   1.671  0.1941  0.2718 -0.1498
 7304W        W22435  15.796   0.475  14.731 -0.0924 -0.0048  0.1127
 7305W        W22436  18.636  12.756   1.954  0.2979  0.2803  0.2812
 7306W        W22437   0.729  16.324  11.679  0.0423 -0.4267  0.2810
 7307W        W22438   6.702   5.937  13.716  0.0463  0.0506  0.0860
 7308W        W22439   6.089   9.325   2.965 -0.2218 -0.1996 -0.0146
 7309W        W22440   1.229  13.693  14.804 -0.1497 -0.3892  0.1575
 7310W        W22441   4.799   1.669   6.211  0.0182 -0.0508 -0.1595
 7311W        W22442   0.312  14.027   1.219  0.0457 -0.0333 -0.5639
 7312W        W22443   9.354   3.599   0.737 -0.0601 -0.3962  0.3479
 7313W        W22444  12.742   7.762  14.902 -0.0343 -0.0901  0.1914
 7314W        W22445   6.925  14.033  13.108 -0.0267 -0.1766 -0.1756
 7315W        W22446  10.526  17.595   4.224  0.1304 -0.1162  0.2898
 7316W        W22447   7.578  12.031   4.679 -0.0513 -0.2492  0.0059
 7317W        W22448  17.577   0.170   1.820 -0.3962  0.2518 -0.2557
 7318W        W22449   5.918   2.725   5.809 -0.1546  0.3369  0.2320
 7319W        W22450  15.489  14.538  10.220  0.0269  0.1114 -0.1654
 7320W        W22451  11.242   8.566  14.031  0.1505  0.0826  0.2351
 7321W        W22452  16.952   4.671   2.384 -0.0763  0.0375 -0.0515
 7322W        W22453   2.513   6.086   5.767 -0.0043 -0.0117  0.1196
 7323W        W22454  14.136   4.132   9.343 -0.1611  0.0689 -0.0951
 7324W        W22455   2.248   3.858   5.321  0.0255 -0.1754 -0.3533
 7325W        W22456   9.771  11.831   4.601 -0.3071 -0.0961 -0.0573
 7326W        W22457   4.166   4.827   2.581  0.1596 -0.2965  0.0961
 7327W        W22458  10.397   1.125   5.519 -0.0085 -0.2877  0.1952
 7328W        W22459  15.673  12.601   4.883  0.2120  0.0173  0.1804
 7329W        W22460   2.668   2.543  13.600 -0.2572 -0.0261  0.2706
 7330W        W22461  14.974   8.473  14.127 -0.2769 -0.1366  0.2649
 7331W        W22462   4.822  18.537  15.530 -0.4402  0.1719 -0.4431
 7332W        W22463   5.623  16.739   6.062  0.0693 -0.2576  0.1475
 7333W        W22464   0.829   2.017   2.624 -0.0181 -0.0899 -0.0582
 7334W        W22465   3.450  15.878  13.621  0.2954 -0.2574  0.4040
 7335W        W22466  17.515   7.422   3.570  0.1175  0.1665 -0.0615
 7336W        W22467  13.603   5.427   2.747  0.2998  0.0059  0.1805
 7337W        W22468   6.554   1.123  12.446  0.0657  0.1458 -0.0328
 7338W        W22469  14.843  15.643  13.187 -0.0912  0.0085 -0.0109
 7339W        W22470   6.281   7.152  13.810  0.0982 -0.1023  0.3275
 7340W        W22471   5.982  13.997   3.833  0.1497  0.0592 -0.0357
 7341W        W22472   6.639   2.367  11.514 -0.0017 -0.0085  0.2853
 7342W        W22473   7.610  13.971   3.501 -0.0422 -0.0133  0.0778
 7343W        W22474  11.332   0.719  11.292  0.0615  0.0667 -0.2298
 7344W        W22475   4.473   1.936  14.984  0.5396  0.0211  0.0780
 7345W        W22476   2.958   4.691  11.385  0.2895  0.1767 -0.4784
 7346W        W22477  10.051   3.082  12.957 -0.2596  0.0697  0.1636
 7347W        W22478   1.966   4.097  12.983  0.0112 -0.1672 -0.0394
 7348W        W22479  10.632   9.846   4.508  0.1381  0.1688  0.0988
 7349W        W22480  17.636  16.033   5.074 -0.1651  0.6638  0.4987
 7350W        W22481   5.067  10.526   1.045 -0.3159  0.1046  0.1478
 7351W        W22482  14.634  16.679   2.448  0.2178 -0.1287  0.3592
 7352W        W22483  10.157   6.391   0.511 -0.3791  0.1247  0.0255
 7353W        W22484   0.638   0.151   3.491 -0.0926 -0.1189  0.1417
 7354W        W22485  15.692   1.827  13.552  0.0507  0.0218  0.1559
 7355W        W22486   4.075   2.078  13.507  0.2514  0.0421 -0.0839
 7356W        W22487  18.173   7.008   0.233 -0.3270 -0.3965  0.0259
 7357W        W22488   0.141   9.830  12.982  0.0161 -0.3757  0.1361
 7358W        W22489   4.064  14.917   5.048 -0.2840 -0.3025  0.2299
 7359W        W22490   6.612  18.274  14.714 -0.2594 -0.0902  0.3347
 7360W        W22491   8.930   9.996   2.500  0.1396 -0.1989 -0.0620
 7361W        W22492  16.657  17.239   2.358  0.4051 -0.0354 -0.1946
 7362W        W22493  14.588  18.185  14.963  0.0155  0.4173  0.0422
 7363W        W22494   4.646   8.235  13.607  0.0500  0.1907 -0.1081
 7364W        W22495   6.230  11.342  15.288  0.0182 -0.0902  0.4440
 7365W        W22496  10.244   1.938   3.756 -0.0057 -0.1311  0.1474
 7366W        W22497   6.030   6.432  10.930  0.0667 -0.1249  0.0410
 7367W        W22498  14.077   5.006  15.267 -0.1529 -0.0037 -0.2569
 7368W        W22499   2.702   2.154   2.186  0.0873  0.1445 -0.1936
 7369W        W22500   8.938  15.897  15.444  0.0622  0.0536  0.4145
 7370W        W22501  11.939   3.646  13.501  0.1114  0.3484  0.0874
 7371W        W22502   6.433  14.738  15.594  0.3375  0.0948  0.0245
 7372W        W22503  10.241  11.560   2.616  0.2603 -0.1047 -0.0632
 7373W        W22504   2.032  12.813   0.931 -0.0304 -0.2024  0.2752
 7374W        W22505   4.114  14.419   2.132 -0.0793 -0.0337  0.5325
 7375W        W22506  12.255   8.622   1.621  0.1131  0.2090  0.1017
 7376W        W22507  11.426   9.179   1.061  0.5143  0.1345  0.5415
 7377W        W22508   2.850   6.559  15.297 -0.1153  0.0333 -0.1128
 7378W        W22509  15.161   4.634   0.430  0.0714  0.3539  0.3265
 7379W        W22510  14.389   2.429  11.129 -0.0279  0.0639 -0.0964
 7380W        W22511   4.361  16.423   5.201  0.0322 -0.2069 -0.2314
 7381W        W22512  14.799  11.179  12.847  0.1632  0.0019 -0.2200
 7382W        W22513   3.674  16.034   2.188 -0.1773 -0.0780  0.1778
 7383W        W22514  14.790  12.839   0.252 -0.2931  0.0960  0.1963
 7384W        W22515   5.996   0.434   3.871 -0.1559  0.0597  0.1534
 7385W        W22516   9.320   5.524   4.012  0.2935 -0.3033  0.0811
 7386W        W22517  14.837  17.237  14.959  0.0802  0.2032 -0.1207
 7387W        W22518  17.365   3.765   5.537 -0.1373 -0.1914  0.2861
 7388W        W22519  10.990  14.884   2.547  0.0181  0.0147 -0.0124
 7389W        W22520   4.056   6.609   1.264 -0.1710  0.2155  0.2437
 7390W        W22521   6.401   7.607  13.992  0.1930  0.2936  0.0341
 7391W        W22522   0.959  12.998  11.551 -0.0858  0.3377  0.1608
 7392W        W22523  16.248   4.235   4.327 -0.0939 -0.0546 -0.2346
 7393W        W22524   9.111  18.350  11.197  0.1402  0.1354  0.3371
 7394W        W22525   3.498   5.260  14.834  0.0556 -0.0945  0.0213
 7395W        W22526   5.066  15.285   2.338 -0.0280 -0.1505  0.0482
 7396W        W22527  12.836  13.752  12.445  0.3601  0.0777 -0.1436
 7397W        W22528   8.825   7.949  12.417 -0.1708 -0.2260 -0.1783
 7398W        W22529   1.997   0.548  13.606  0.0249 -0.2524  0.0162
 7399W        W22530  17.424   2.741   1.152 -0.1222 -0.1007 -0.0723
 7400W        W22531  14.853  11.120   4.731 -0.0205 -0.1467  0.5716
 7401W        W22532   2.521   5.559   3.443 -0.1954 -0.0199  0.0402
 7402W        W22533   9.076  17.026   3.213  0.0317  0.0972  0.0715
 7403W        W22534   6.883   0.884  10.716  0.2076 -0.0733 -0.0297
 7404W        W22535   4.905  14.602  11.803 -0.3660  0.3394 -0.0468
 7405W        W22536   4.120   4.396   2.180  0.0649  0.1308 -0.0642
 7406W        W22537  16.880  11.011   5.002  0.0810 -0.2044  0.1417
 7407W        W22538  12.557  12.441   3.983  0.0248  0.1909  0.2260
 7408W        W22539  13.349   7.470  11.690  0.0163 -0.1691 -0.0909
 7409W        W22540  11.610   9.416  14.985 -0.3202  0.0582 -0.0824
 7410W        W22541  16.410   6.413  15.242  0.2930  0.0536  0.6513
 7411W        W22542   2.874   0.548   2.753  0.2226  0.0008  0.2905
 7412W        W22543   0.186   3.346   2.552  0.0027 -0.0255  0.0140
 7413W        W22544  14.718  17.638   2.628  0.0002 -0.1239  0.0763
 7414W        W22545  14.956   2.452   1.991 -0.2026  0.2090 -0.2678
 7415W        W22546  15.555   5.380  11.877 -0.4096 -0.1247 -0.1620
 7416W        W22547   4.352   0.287  12.914 -0.1127  0.3267  0.0624
 7417W        W22548   7.910   8.885   2.730  0.1783 -0.2241 -0.1683
 7418W        W22549   3.258  12.130  12.674 -0.3075 -0.1716  0.0933
 7419W        W22550  10.091   1.979  10.418  0.0368  0.4405  0.2770
 7420W        W22551   5.125  16.881   0.964  0.3124 -0.0530 -0.3616
 7421W        W22552   4.592  15.807  15.052  0.0694  0.1599  0.3238
 7422W        W22553   2.545   7.473   5.064  0.0023  0.0865  0.0439
 7423W        W22554   1.319  14.735   3.370 -0.4593 -0.1668 -0.2885
 7424W        W22555   3.183   4.551  13.839  0.4772  0.0138  0.0956
 7425W        W22556   5.241  14.380  13.571  0.2561 -0.0767  0.0661
 7426W        W22557  15.257  10.193   3.490 -0.0434 -0.0232  0.1152
 7427W        W22558   1.258   6.073   4.854  0.1525  0.1004 -0.4416
 7428W        W22559   7.645  17.528   5.704 -0.3151 -0.1735  0.1781
 7429W        W22560  14.762   8.920  11.741  0.0968  0.1408 -0.0028
 7430W        W22561   6.889   8.025   0.415  0.1302 -0.3109  0.2603
 7431W        W22562  17.429  12.048   0.905 -0.0530 -0.1597 -0.1202
 7432W        W22563  17.362   4.704  14.300  0.1084  0.2269  0.0646
 7433W        W22564   0.650   6.894   1.040 -0.0695  0.1724 -0.2134
 7434W        W22565  13.132   9.792   0.542  0.6692  0.1634  0.0237
 7435W        W22566  17.209  12.406  12.397 -0.0717 -0.3332  0.1839
 7436W        W22567   5.528   6.939   5.028  0.0395  0.2221  0.0498
 7437W        W22568  16.472   2.231   3.147 -0.6199 -0.0578 -0.0790
 7438W        W22569  13.989   2.328  13.455 -0.1711 -0.2116  0.0095
 7439W        W22570   7.288   6.019   0.893 -0.2575  0.0468 -0.1352
 7440W        W22571  10.572   1.049  11.710  0.1680  0.1252  0.4077
 7441W        W22572   0.329  17.790  13.263 -0.2310 -0.1567 -0.2953
 7442W        W22573   8.010   4.394  13.239  0.0723 -0.3076 -0.0588
 7443W        W22574  10.856   7.901   3.936 -0.1461  0.0504  0.1666
 7444W        W22575  17.696   9.257  12.877 -0.3941  0.0117  0.0271
 7445W        W22576  18.391  13.694   2.081  0.2157 -0.1036  0.0997
 7446W        W22577  12.947   8.058  11.918  0.0439  0.1973  0.2197
 7447W        W22578   5.679  16.543   4.956  0.3427  0.5142 -0.0049
 7448W        W22579   1.292   7.899   3.723 -0.2199 -0.0297  0.2095
 7449W        W22580  17.133   7.264  11.650 -0.1087 -0.1271 -0.0343
 7450W        W22581  12.892   5.994  14.523  0.2029  0.4395 -0.3712
 7451W        W22582  16.058  10.960   5.971 -0.0450  0.0017 -0.0347
 7452W        W22583   9.782  11.497  14.848 -0.1184 -0.1175  0.0024
 7453W        W22584  11.123   0.780  14.940 -0.2201 -0.2941 -0.1226
 7454W        W22585  12.997  12.691   1.431 -0.3641  0.0493 -0.1109
 7455W        W22586  11.436   8.088   1.804  0.2191 -0.0839  0.0322
 7456W        W22587   5.576   8.207   2.905 -0.0441 -0.0701 -0.1896
 7457W        W22588   2.702   4.946  11.922  0.1593 -0.1344  0.1330
 7458W        W22589   5.125   0.227   1.199 -0.3039 -0.0554 -0.0718
 7459W        W22590   5.254   7.079  14.507 -0.1594 -0.3963  0.2626
 7460W        W22591  18.311   2.807   3.071 -0.0555 -0.1156 -0.2485
 7461W        W22592   5.270   7.917   3.169  0.0029  0.4392  0.0482
 7462W        W22593   7.261   3.744   1.755  0.2937 -0.0835 -0.3192
 7463W        W22594   1.089   8.868  13.154  0.0393  0.1166  0.1433
 7464W        W22595   6.446  17.814   2.154  0.4003  0.0048  0.3621
 7465W        W22596  12.887  10.026  11.361 -0.1249 -0.4908  0.0978
 7466W        W22597  18.019   7.565   1.125  0.0671  0.0063 -0.0916
 7467W        W22598  15.590  14.571  14.485  0.0168  0.1058 -0.1537
 7468W        W22599   9.409  18.409  14.726  0.0884 -0.1118 -0.3979
 7469W        W22600  17.349   0.307  13.217 -0.4135 -0.0765 -0.1144
 7470W        W22601  12.072   4.704  14.800  0.0961 -0.1397  0.1552
 7471W        W22602  16.465  17.885  12.142  0.0531 -0.1147 -0.0207
 7472W        W22603  11.775   1.635   2.386 -0.0840 -0.0901  0.0289
 7473W        W22604  16.897  14.171  14.284 -0.6034 -0.2429 -0.1589
 7474W        W22605   7.312   7.250   1.065 -0.3175 -0.2297 -0.2274
 7475W        W22606  14.486  17.246   2.175 -0.4029 -0.0875  0.1872
 7476W        W22607  15.521  16.384   1.952 -0.1148 -0.0773 -0.0674
 7477W        W22608  18.362   6.013  11.363 -0.0789  0.0583 -0.2270
 7478W        W22609  11.457  16.771  15.071 -0.1277 -0.0250  0.1535
 7479W        W22610  13.885  10.934   2.666 -0.2761 -0.1227  0.1146
 7480W        W22611  14.654  10.668  13.880  0.1707  0.2605 -0.0948
 7481W        W22612  16.309   4.096   0.806  0.0714  0.1778 -0.0448
 7482W        W22613  13.690   9.182  10.839 -0.0075  0.0259 -0.0834
 7483W        W22614  17.979   8.157  10.730  0.2852  0.1659 -0.1803
 7484W        W22615   7.336   7.079  15.550  0.0998 -0.0108 -0.0374
 7485W        W22616   9.705   1.403  11.381  0.1650 -0.1434  0.5036
 7486W        W22617  14.759   7.359  12.841 -0.0274 -0.1059  0.0082
 7487W        W22618  17.953   8.671  10.603  0.0903  0.2417  0.1600
 7488W        W22619  12.235  11.487   4.135  0.3755 -0.2826  0.0295
 7489W        W22620   6.233  13.313   4.598  0.2178  0.0808  0.0498
 7490W        W22621   6.287   4.528   3.930 -0.1481  0.1397 -0.0472
 7491W        W22622   2.817   4.944  15.452  0.0791 -0.3507 -0.2380
 7492W        W22623   9.669   2.230   0.554 -0.0678 -0.0091  0.0227
 7493W        W22624  15.896  11.881  12.706 -0.1227  0.0505 -0.2546
 7494W        W22625   8.226  11.427   0.419  0.1429  0.1399  0.0154
 7495W        W22626  12.592   5.068   1.291 -0.0404 -0.1702  0.2601
 7496W        W22627   5.397  13.825   4.308  0.2782 -0.3092  0.0157
 7497W        W22628   1.965   0.253   2.989 -0.0109  0.3825 -0.0280
 7498W        W22629   9.387  12.565   1.206  0.0916 -0.0550  0.0019
 7499W        W22630  14.791   8.210  15.297  0.1192 -0.3897 -0.3275
 7500W        W22631  15.743   3.762   2.653  0.1386  0.3995  0.1124
 7501W        W22632   6.890   7.758  14.882 -0.3251  0.0718  0.0307
 7502W        W22633   3.935  11.870  14.312 -0.3968 -0.0411  0.1184
 7503W        W22634   7.368  14.378   1.142 -0.2106  0.0575  0.0602
 7504W        W22635  13.865  11.011   4.364  0.0702  0.0749 -0.0626
 7505W        W22636   9.575  15.396   5.117 -0.3003  0.0433 -0.0034
 7506W        W22637  18.454   5.836  14.531 -0.4230 -0.2542 -0.1767
 7507W        W22638   5.454  17.772   0.703 -0.0131  0.1960  0.1077
 7508W        W22639  16.154  17.679   0.350 -0.1137  0.2936 -0.2102
 7509W        W22640   0.984   3.715  11.038 -0.0763  0.3286 -0.2691
 7510W        W22641   5.222  10.826  13.050  0.2707 -0.1672  0.3058
 7511W        W22642  10.912  16.660  10.806 -0.1454 -0.1868 -0.2256
 7512W        W22643   7.610   4.562  13.037 -0.2001 -0.1191  0.3141
 7513W        W22644   0.344   5.100   4.724 -0.0365  0.2845 -0.3232
 7514W        W22645  18.446   1.714  14.634 -0.0057 -0.4551  0.1104
 7515W        W22646   7.162   5.106  11.032 -0.1232 -0.0031  0.1533
 7516W        W22647  10.835   9.979   3.209  0.0716 -0.0107 -0.0429
 7517W        W22648  11.918  14.379   2.087  0.0912  0.0722 -0.0186
 7518W        W22649   5.189  16.405  15.465  0.0451  0.2374 -0.2470
 7519W        W22650  10.304   3.901   1.793  0.0454  0.0082 -0.3028
 7520W        W22651   1.904   0.012   5.742  0.3282 -0.0929  0.1432
 7521W        W22652   8.675  17.317   2.522  0.0099 -0.1389 -0.2134
 7522W        W22653  12.618   1.592   0.658  0.2427  0.0065  0.0753
 7523W        W22654  12.596   3.410  11.898 -0.1676 -0.0205 -0.0077
 7524W        W22655   2.438  10.816  13.830  0.2153  0.2910 -0.2602
 7525W        W22656   3.106   6.400   0.807  0.3227  0.0493  0.1272
 7526W        W22657  13.027  10.247   3.631  0.3524  0.4347  0.1281
 7527W        W22658  18.639  12.313   1.100 -0.2057  0.2906 -0.0250
 7528W        W22659   4.239   7.703   4.750 -0.0521 -0.1797  0.0098
 7529W        W22660  13.720   2.655  13.753  0.1714  0.2506 -0.1081
 7530W        W22661   0.070   9.676  15.767 -0.1213 -0.0773  0.0404
 7531W        W22662  17.149  16.785  10.952  0.1660  0.2191 -0.1145
 7532W        W22663   8.194  17.338   0.127  0.2062  0.1571 -0.2055
 7533W        W22664   2.080   3.789  12.066 -0.2295 -0.2968 -0.0947
 7534W        W22665   2.667  18.481   3.045 -0.0959  0.2076  0.0679
 7535W        W22666  12.269   1.958  15.088  0.1646  0.1711  0.1741
 7536W        W22667   0.651   3.651   3.410 -0.0009  0.2247 -0.0190
 7537W        W22668  13.978   0.367   0.793  0.1864 -0.0479 -0.1496
 7538W        W22669   3.707  18.061   1.012 -0.1748 -0.2431 -0.0875
 7539W        W22670   1.015   9.224  14.556  0.1016 -0.1107  0.1215
 7540W        W22671   6.581   5.839  11.763  0.1923  0.2748  0.2295
 7541W        W22672  14.136  13.884   2.709  0.2275 -0.0454 -0.0302
 7542W        W22673   4.302  10.611  14.346  0.2813  0.0731 -0.1420
 7543W        W22674  11.745   3.438  14.793  0.0392 -0.3721  0.0546
 7544W        W22675  17.521   2.335  10.941 -0.0255  0.2110  0.0147
 7545W        W22676  12.213   0.990  14.031 -0.0306 -0.3838 -0.3435
 7546W        W22677  16.592   5.477   0.057  0.0232 -0.3421  0.2068
 7547W        W22678  17.159   7.703  12.960  0.0056  0.1777 -0.0419
 7548W        W22679  13.240  10.452   2.070  0.3152 -0.0463  0.0356
 7549W        W22680  11.220   5.152  11.332 -0.2305  0.0205 -0.1479
 7550W        W22681   6.782   0.424  14.693  0.0023  0.0452  0.0529
 7551W        W22682   4.452   5.967   0.575 -0.0889  0.2032 -0.1765
 7552W        W22683  14.797  14.921   0.942  0.1770  0.4258  0.3269
 7553W        W22684  12.594   8.056  14.113 -0.1841 -0.0806  0.2272
 7554W        W22685  10.826  10.859   2.751  0.1718 -0.0648  0.0245
 7555W        W22686  11.183   2.576  12.306  0.0375  0.0704 -0.6924
 7556W        W22687  13.956   9.050   4.664 -0.2347 -0.3400  0.0558
 7557W        W22688   7.832  18.187   3.872 -0.0382 -0.3984 -0.1220
 7558W        W22689   3.158  13.677  12.374 -0.0987 -0.3558 -0.2151
 7559W        W22690   1.981  12.024   5.356  0.3267 -0.0673  0.0213
 7560W        W22691   7.597   7.491   3.052  0.0851 -0.1371 -0.2259
 7561W        W22692   7.947   7.907  13.508  0.3240  0.2193  0.1161
 7562W        W22693  17.865  17.586   4.313  0.5385  0.0230  0.1321
 7563W        W22694  11.806   5.664   3.295 -0.2234  0.1623  0.1651
 7564W        W22695   6.093  16.220  15.545 -0.2045 -0.1436 -0.0077
 7565W        W22696   1.020  13.273   0.676  0.0550 -0.2877 -0.2896
 7566W        W22697  14.831  12.374   3.377  0.1893 -0.2724  0.1050
 7567W        W22698   3.716   5.669  14.994 -0.0155 -0.2036  0.0240
 7568W        W22699   7.322  14.859  15.564 -0.0033 -0.1282  0.0090
 7569W        W22700   7.105   4.547   3.938  0.1965  0.2504  0.3321
 7570W        W22701  14.732   7.015  11.322 -0.0765 -0.1070  0.1884
 7571W        W22702   9.069  16.270  10.714  0.1934 -0.2218 -0.0645
 7572W        W22703  12.503  18.686   5.610 -0.1920  0.0543  0.0726
 7573W        W22704  12.029  10.646  15.637 -0.4106  0.1832 -0.2843
 7574W        W22705   7.237   3.109  10.958 -0.2407 -0.1383 -0.0925
 7575W        W22706  14.507   0.963   1.213 -0.3363  0.0743 -0.0467
 7576W        W22707   1.552   0.879  12.594  0.1282  0.2238 -0.1086
 7577W        W22708  11.171   8.214  10.432  0.0791 -0.0605 -0.1375
 7578W        W22709  15.201  13.534  13.804  0.0311 -0.0056 -0.0361
 7579W        W22710  10.915  17.571  13.385 -0.2216 -0.3971 -0.0123
 7580W        W22711  11.519   3.865  14.763  0.0445 -0.0384 -0.0353
 7581W        W22712  16.385   8.212   1.994 -0.1741 -0.0978 -0.0435
 7582W        W22713  17.691   7.574  11.420  0.0998 -0.0042 -0.1929
 7583W        W22714   1.240   4.333  11.737  0.0679  0.0615  0.0164
 7584W        W22715  16.514  14.277  15.023 -0.1446  0.0537  0.0529
 7585W        W22716  16.168   7.622   3.348 -0.0729  0.0895  0.0946
 7586W        W22717   6.692   4.410  15.380  0.0837 -0.1386 -0.2562
 7587W        W22718  13.979  14.196  13.798 -0.0695 -0.0182 -0.1609
 7588W        W22719  18.487  11.710   5.063 -0.2917  0.1915 -0.0678
 7589W        W22720  18.337  10.804  14.906 -0.1012 -0.0519  0.1601
 7590W        W22721   1.787  10.042  12.015 -0.1964  0.0389  0.3114
 7591W        W22722  15.713   1.456   4.205 -0.5120 -0.3395 -0.0536
 7592W        W22723  18.118   5.406   4.508  0.2311  0.0699  0.5016
 7593W        W22724  14.171  13.893   0.325 -0.2125  0.2049 -0.1872
 7594W        W22725  12.657   2.874   3.250  0.0776 -0.1348  0.0021
 7595W        W22726  17.807  11.712  12.052  0.0718  0.2914 -0.1160
 7596W        W22727   0.169   5.971  12.303 -0.0278 -0.1385 -0.4068
 7597W        W22728  17.243   1.895   3.012  0.1581 -0.0348  0.2744
 7598W        W22729   2.772   2.525   2.615 -0.2325  0.0592 -0.2120
 7599W        W22730  18.286   9.847  15.566  0.2616 -0.0623  0.0631
 7600W        W22731   5.064   8.214   4.379 -0.2836 -0.1558  0.0876
 7601W        W22732   6.258   6.704  11.700 -0.1297 -0.0306  0.1423
 7602W        W22733  14.516  11.844  12.374  0.2188  0.3634  0.1644
 7603W        W22734  11.345  17.199  14.057  0.2751  0.0622  0.0557
 7604W        W22735   3.898  14.009  14.626 -0.2458 -0.0559 -0.1391
 7605W        W22736  12.937  15.761   3.919 -0.1697  0.2527 -0.3768
 7606W        W22737   5.058  11.961   3.477  0.1883 -0.1863 -0.0596
 7607W        W22738  13.106   9.561  14.030  0.0882  0.1260 -0.1272
 7608W        W22739  11.350  10.931   5.196  0.1776 -0.0095  0.1373
 7609W        W22740   9.773  12.478   1.815 -0.0548 -0.0357  0.0447
 7610W        W22741  11.534  16.349  12.516 -0.1111 -0.0968  0.0886
 7611W        W22742   2.352  14.293  12.980 -0.1084  0.2991  0.1539
 7612W        W22743  10.796  12.083   3.773  0.0856 -0.0922 -0.1839
 7613W        W22744   1.323   0.497  15.308  0.0052  0.0723  0.1882
 7614W        W22745  17.418  16.384  14.885  0.3571  0.2283 -0.1322
 7615W        W22746   5.233   4.423   9.926 -0.2958 -0.1361 -0.3318
 7616W        W22747   9.993   9.013   4.741  0.1399 -0.2312 -0.1511
 7617W        W22748  12.229  16.866  12.059 -0.0650  0.1371 -0.1921
 7618W        W22749  18.550   3.192  12.334 -0.4771  0.1970 -0.0151
 7619W        W22750   4.678  13.315  13.311 -0.2206 -0.0869  0.2464
 7620W        W22751   2.100  17.975   1.847  0.1319 -0.2025 -0.0604
 7621W        W22752   0.822   1.542  12.744 -0.2094  0.1218  0.3270
 7622W        W22753  17.036   6.355   4.447 -0.5770 -0.0526 -0.1482
 7623W        W22754   4.996   6.924   4.432 -0.0679  0.0231  0.0085
 7624W        W22755   8.049  15.942   4.308 -0.0393 -0.0852  0.1003
 7625W        W22756   9.029  14.294   5.205 -0.1008 -0.2020 -0.0188
 7626W        W22757  14.596   5.782  15.698 -0.0094  0.0443 -0.2892
 7627W        W22758   2.602  13.396  12.781 -0.0353 -0.3041  0.0492
 7628W        W22759   5.120  11.930   1.040 -0.1946 -0.1528  0.4244
 7629W        W22760  17.986  17.069   4.994 -0.0825 -0.2387  0.0155
 7630W        W22761  12.597   4.875  10.680 -0.1141  0.2482 -0.1433
 7631W        W22762   0.955   4.065   4.572 -0.3648 -0.0278 -0.0681
 7632W        W22763   5.650  17.382  15.120  0.0694 -0.1138  0.0439
 7633W        W22764  12.917  14.317   2.696 -0.2565  0.1499 -0.0786
 7634W        W22765  12.954  14.862  11.770  0.0378  0.0413 -0.0721
 7635W        W22766   9.674   0.905   5.955  0.1275 -0.1921 -0.0762
 7636W        W22767   8.275   3.520  14.446 -0.3153 -0.0267 -0.2841
 7637W        W22768   6.110   6.769  14.539  0.1096 -0.1490  0.0905
 7638W        W22769   6.914  15.815   3.097 -0.2755  0.0451  0.1797
 7639W        W22770  14.785  13.199  11.553 -0.0615  0.1571 -0.0398
 7640W        W22771   8.160   1.732   5.188  0.1885  0.1641 -0.0526
 7641W        W22772  15.482  15.025   3.235 -0.0423  0.0585  0.3634
 7642W        W22773  10.709   2.855   0.782 -0.1344  0.2032 -0.0667
 7643W        W22774  16.847   2.147  15.233  0.1556  0.1522  0.2838
 7644W        W22775   3.082  14.695  10.855 -0.2117  0.0633 -0.0480
 7645W        W22776   6.990  15.367   1.464 -0.1999  0.2120  0.0400
 7646W        W22777   4.932   0.620  13.253 -0.1973 -0.0368  0.0491
 7647W        W22778  12.819  18.416   4.171  0.0886  0.1255 -0.1783
 7648W        W22779   9.016  13.250   3.029  0.0235  0.0327 -0.0145
 7649W        W22780   5.431   7.449   3.290 -0.2539  0.0343  0.1965
 7650W        W22781  17.018  16.819   5.360 -0.2802 -0.5416 -0.5204
 7651W        W22782   7.830  16.814  12.913 -0.0561  0.0041  0.1016
 7652W        W22783  14.811   6.147  12.131 -0.0136  0.3397  0.1555
 7653W        W22784   9.155   2.627   1.924 -0.1113  0.0192  0.2241
 7654W        W22785   9.453   3.346  13.637 -0.1008 -0.0935 -0.0405
 7655W        W22786  13.615  15.853  15.746 -0.1970  0.0199 -0.1111
 7656W        W22787   9.072   9.272  10.296 -0.2289 -0.2042 -0.1705
 7657W        W22788  13.393   7.642  14.064 -0.2068  0.2343 -0.0721
 7658W        W22789   2.674  10.518   4.444  0.1432 -0.1818  0.3870
 7659W        W22790   0.597  10.962  15.603 -0.1554  0.0243 -0.0728
 7660W        W22791  13.511  18.313   2.517  0.1569 -0.0728 -0.1704
 7661W        W22792   2.451  12.124  11.378  0.3201 -0.0126  0.1790
 7662W        W22793  15.767   3.645   4.857  0.3747 -0.0223 -0.0857
 7663W        W22794   2.604  18.375   5.037  0.3103  0.3182  0.0653
 7664W        W22795   2.203   1.982  15.276  0.2890  0.1946  0.0697
 7665W        W22796  15.107   7.691   2.533  0.0853 -0.2255  0.0350
 7666W        W22797   0.128  14.833   5.796  0.0467 -0.0311 -0.0844
 7667W        W22798  18.024  17.101  14.984 -0.0672 -0.1752  0.0002
 7668W        W22799  16.082   2.354  14.699  0.0849 -0.4126 -0.1058
 7669W        W22800  11.129   5.764  12.680 -0.1067 -0.3663  0.1195
 7670W        W22801   1.414  14.334   1.738  0.1083 -0.0880 -0.1910
 7671W        W22802   2.928  11.396   4.669 -0.1552  0.0312 -0.1677
 7672W        W22803   8.504   4.751   0.244 -0.0994 -0.1489  0.0870
 7673W        W22804  17.044   2.924   0.183 -0.0603 -0.0576  0.4521
 7674W        W22805  14.230   6.263  14.192  0.1499 -0.0067 -0.3701
 7675W        W22806   1.179  12.512   1.193  0.0433  0.0491 -0.0194
 7676W        W22807   6.310   1.837   1.978  0.2847  0.1503 -0.0945
 7677W        W22808   0.793  16.574  12.839  0.0104  0.1621  0.0359
 7678W        W22809   6.666   7.283   6.003  0.3243  0.2235 -0.2021
 7679W        W22810   3.476   2.706  12.978  0.0072  0.0923 -0.1346
 7680W        W22811  11.894   3.337   9.874  0.2949 -0.0959  0.0596
 7681W        W22812   1.955  16.488  11.741  0.1513  0.1225 -0.2252
 7682W        W22813   7.601  12.119   0.714  0.0650 -0.2358 -0.2757
 7683W        W22814  15.821  18.008  11.791  0.1208  0.1839 -0.2065
 7684W        W22815  10.700  14.047  14.741  0.1385  0.0925  0.2134
 7685W        W22816  15.427  14.585   4.079 -0.0869 -0.0630 -0.4255
 7686W        W22817   3.835  13.878   0.739 -0.2250 -0.1328 -0.0879
 7687W        W22818  18.380  18.269   5.399 -0.1055  0.0868  0.1712
 7688W        W22819  12.929   7.989   4.512 -0.1283  0.0458 -0.0604
 7689W        W22820   9.323   5.429   5.497 -0.1756  0.0227  0.0538
 7690W        W22821   6.823  12.633  15.261  0.0134 -0.2049 -0.0183
 7691W        W22822   9.160  10.768   3.079 -0.1053  0.0246  0.0867
 7692W        W22823   8.833   1.919  14.055 -0.2040 -0.0261  0.0659
 7693W        W22824   0.144  15.508   3.710 -0.1578 -0.1842 -0.1619
 7694W        W22825  17.759  10.444   4.680 -0.0225  0.0015  0.2510
 7695W        W22826   6.292  10.304   1.441  0.3772 -0.2812 -0.2398
 7696W        W22827   3.738   5.463   4.912 -0.0659 -0.2215 -0.2449
 7697W        W22828  15.221   3.301   0.258  0.2161 -0.1429 -0.1253
 7698W        W22829  10.160  16.394   3.644  0.0335  0.0137 -0.2007
 7699W        W22830   6.593  16.092  11.262  0.1335 -0.4805 -0.1749
 7700W        W22831  16.375  10.615   5.714  0.2364 -0.1088 -0.1968
 7701W        W22832   6.041   4.700   4.826 -0.2819  0.1171  0.1092
 7702W        W22833  12.727  18.026   2.325 -0.0994  0.1614 -0.1441
 7703W        W22834  16.629  18.041   4.657 -0.0176  0.0619  0.2577
 7704W        W22835  10.585   4.499   1.910  0.2094 -0.1121  0.1670
 7705W        W22836   9.333  14.933  15.212 -0.0883 -0.0444  0.0427
 7706W        W22837   0.611   0.428  15.767 -0.1067 -0.2143  0.0875
 7707W        W22838   5.097   5.846  13.699 -0.1194  0.0301  0.3197
 7708W        W22839  12.454  16.984   4.935 -0.3246  0.2263  0.2648
 7709W        W22840   5.436  16.135  12.055  0.1528  0.0191 -0.0231
 7710W        W22841   7.156  15.422  10.838 -0.2660  0.2454  0.0632
 7711W        W22842  14.866  12.847  14.585 -0.2921 -0.0692 -0.0767
 7712W        W22843   8.298  15.238   2.266  0.0699  0.1887  0.0414
 7713W        W22844   2.603  17.861   5.145 -0.2024 -0.0743  0.2368
 7714W        W22845   3.557  16.770  14.252 -0.1720 -0.0788 -0.2386
 7715W        W22846  13.560   3.936   3.723  0.1556 -0.0556  0.2750
 7716W        W22847   8.820   7.164  14.487 -0.3255  0.1232  0.0478
 7717W        W22848  13.355  16.555  12.430  0.0236 -0.3481 -0.2185
 7718W        W22849   6.819   4.829  14.565 -0.4196 -0.0308 -0.3172
 7719W        W22850  18.676   3.108   3.832 -0.3988  0.4400 -0.0114
 7720W        W22851  16.471   9.351  13.338 -0.1990  0.3161 -0.0527
 7721W        W22852   7.100  15.207   0.169  0.1401 -0.0252 -0.4507
 7722W        W22853   7.813   1.086  11.920 -0.1419 -0.0317 -0.2299
 7723W        W22854   2.271  14.779  11.620 -0.0557 -0.0447  0.2197
 7724W        W22855   2.422  15.657  14.603  0.0682  0.0761  0.1393
 7725W        W22856   5.332  11.410  13.833 -0.0473  0.2185 -0.1763
 7726W        W22857  17.159  13.888   3.732  0.2182 -0.3617 -0.0692
 7727W        W22858   9.962   6.088  11.899  0.2743 -0.3550  0.1836
 7728W        W22859   4.264   2.150   0.800 -0.0353  0.1227 -0.1696
 7729W        W22860   8.087   5.683  15.029  0.1289 -0.2132 -0.0130
 7730W        W22861  18.510   7.009  12.744 -0.0147 -0.1677 -0.0010
 7731W        W22862  13.752   2.242  14.174 -0.0300  0.0709 -0.0545
 7732W        W22863   8.173   9.506   4.568  0.1384  0.1054 -0.3175
 7733W        W22864   9.875  14.465  14.388  0.2730  0.0083  0.1162
 7734W        W22865   6.884  10.424  13.606  0.1722 -0.1679  0.0173
 7735W        W22866  13.325   8.829  10.604 -0.2327  0.0829  0.0225
 7736W        W22867  18.370  16.052  12.463  0.0392  0.0880  0.4261
 7737W        W22868   0.685   7.999  15.800 -0.2521  0.0063 -0.6415
 7738W        W22869   1.390   4.900  13.492 -0.3137 -0.0359  0.0400
 7739W        W22870   8.395  17.861  12.692  0.2836  0.1100 -0.1088
 7740W        W22871  11.650  12.598  11.809  0.2748 -0.1080 -0.1956
 7741W        W22872  11.518  14.516  10.311 -0.4205 -0.0330  0.1139
 7742W        W22873   7.557  13.437   1.386  0.0740  0.0789  0.0688
 7743W        W22874  13.378   0.816  13.982  0.0671 -0.1981  0.3548
 7744W        W22875  14.412  18.345  11.044 -0.0615 -0.3426  0.1517
 7745W        W22876  16.062  18.537   2.677  0.0894  0.1221  0.5992
 7746W        W22877  14.768   2.179  13.799  0.1422  0.3167  0.0170
 7747W        W22878   8.019  11.483   2.260  0.6156 -0.2947  0.0678
 7748W        W22879   3.553   7.318   1.615  0.1523 -0.4691 -0.2361
 7749W        W22880  12.285   4.175  13.140  0.0162 -0.0965 -0.1080
 7750W        W22881  12.362   5.569   5.598  0.0846 -0.1057  0.0584
 7751W        W22882   8.523  12.678  12.342  0.2365  0.1938 -0.2219
 7752W        W22883   9.835   8.106  13.734  0.3536 -0.0045  0.1388
 7753W        W22884  14.463   2.058   2.700 -0.0264 -0.1089 -0.0749
 7754W        W22885  18.192   2.695   4.413 -0.2486  0.2580 -0.0887
 7755W        W22886  16.964   0.789   1.739 -0.0356 -0.1030  0.0345
 7756W        W22887  10.535   1.556   1.510 -0.2791 -0.0341  0.2421
 7757W        W22888  11.702   3.750   4.649 -0.4783 -0.0931 -0.1785
 7758W        W22889  11.342  15.316   1.828 -0.0612 -0.1399  0.0783
 7759W        W22890  18.224   5.525   3.975  0.2457 -0.1275 -0.2010
 7760W        W22891  11.102   4.230   4.537  0.0441  0.1396 -0.4263
 7761W        W22892   1.841   6.905  14.456 -0.0352 -0.3034 -0.1190
 7762W        W22893   3.029  12.613   2.619  0.2827  0.0241  0.0833
 7763W        W22894   5.810  12.117   3.969  0.1480  0.1082 -0.4945
 7764W        W22895  13.838   7.988  14.869 -0.2580  0.1881  0.4009
 7765W        W22896   1.915   8.674  12.940 -0.2641  0.2716 -0.0367
 7766W        W22897   0.678  11.310   1.044 -0.0852 -0.0884 -0.1140
 7767W        W22898  12.675  12.720   1.813  0.1185 -0.0725  0.0250
 7768W        W22899   2.941  17.272  15.218  0.0962  0.3024  0.3464
 7769W        W22900  16.562  11.733   0.061 -0.0549  0.2699  0.2433
 7770W        W22901  16.422   0.608  13.904 -0.0752  0.3052 -0.0085
 7771W        W22902  12.625  15.296  10.789 -0.0272 -0.1248 -0.2900
 7772W        W22903   7.897   0.319   2.736  0.3541 -0.1931  0.0352
 7773W        W22904   0.326  17.167  15.598 -0.1087 -0.0018 -0.0118
 7774W        W22905  10.486  10.790  10.476  0.4768  0.1329 -0.0214
 7775W        W22906  11.766   7.769   2.752 -0.0814 -0.3475  0.0068
 7776W        W22907   8.522  14.071   3.859  0.1398  0.2617 -0.1047
 7777W        W22908  13.586  15.625   0.394  0.1544 -0.0641 -0.0189
 7778W        W22909  11.176  11.484   5.124  0.0856  0.2214  0.1469
 7779W        W22910   9.731   7.758   3.391 -0.0171 -0.1379 -0.0199
 7780W        W22911   2.172   3.853   0.414  0.0209  0.0532  0.0133
 7781W        W22912   0.651   4.110   2.565 -0.1577  0.1442  0.4149
 7782W        W22913   8.182   1.095  10.902 -0.0880  0.0572 -0.0430
 7783W        W22914   8.033   4.272  14.912  0.0620 -0.2177  0.2951
 7784W        W22915   6.037   3.113  11.410 -0.2103 -0.2014  0.2621
 7785W        W22916  11.580  16.285  10.492  0.1438  0.3268 -0.2232
 7786W        W22917   1.087  13.942   1.667  0.0449  0.4405 -0.0644
 7787W        W22918  17.285   6.331   3.909  0.0263  0.1014  0.0755
 7788W        W22919  14.107  15.981  14.436 -0.2930  0.2557  0.1547
 7789W        W22920   5.150   1.507   3.215 -0.1526  0.2672  0.0654
 7790W        W22921  15.340   9.466  15.092  0.0619 -0.0585 -0.0413
 7791W        W22922  15.090   4.138  15.720  0.1135  0.0484  0.1959
 7792W        W22923  17.884  11.622   2.524  0.0889 -0.0453 -0.2171
 7793W        W22924  11.832  12.682   1.455 -0.2091  0.1429 -0.2587
 7794W        W22925  16.038   0.424  11.228  0.1271 -0.1133  0.0727
 7795W        W22926  15.555   8.357   0.923  0.0536 -0.1866  0.1398
 7796W        W22927   8.015  12.367   0.741  0.2451  0.2460 -0.2847
 7797W        W22928   1.791  13.251   3.550  0.1878  0.3151 -0.0599
 7798W        W22929  17.665  16.498  13.272 -0.2202 -0.0161 -0.0985
 7799W        W22930  15.430   5.325  15.327  0.3448 -0.0075 -0.1328
 7800W        W22931  18.205   4.254  11.871 -0.0527 -0.0273 -0.0814
 7801W        W22932  12.210   3.773  12.061 -0.2604 -0.1194  0.5153
 7802W        W22933  12.241  14.065  13.806 -0.2276  0.1061  0.2982
 7803W        W22934  18.089  17.432   3.906 -0.0943  0.2039  0.1385
 7804W        W22935  15.593   3.158  11.659 -0.3598 -0.0645 -0.0389
 7805W        W22936   4.003   8.036   1.490 -0.1222 -0.0012 -0.2339
 7806W        W22937   6.879   3.975  15.468  0.4527 -0.2512 -0.4355
 7807W        W22938   0.461  17.322   3.503  0.2017  0.3225 -0.0696
 7808W        W22939  14.543   7.940   3.056 -0.1344 -0.0028 -0.0506
 7809W        W22940   2.640  15.707  11.417 -0.3065 -0.2716  0.0280
 7810W        W22941  16.398  10.429   3.907  0.2730 -0.1016  0.0143
 7811W        W22942   2.837  15.101   3.172 -0.1913 -0.5174  0.1927
 7812W        W22943  18.356   8.632   0.835 -0.0964  0.2883  0.1067
 7813W        W22944  18.392   3.227   2.261  0.3098  0.0909 -0.0812
 7814W        W22945  13.718  17.980   0.131 -0.3841  0.2234  0.1475
 7815W        W22946   8.348   2.524   5.734 -0.1688  0.1189 -0.1486
 7816W        W22947  15.386   9.092   4.207  0.3211  0.0633 -0.1289
 7817W        W22948   1.891  15.022   2.273 -0.0149  0.0151 -0.1120
 7818W        W22949  15.192   5.993  13.360  0.3154  0.0329  0.1980
 7819W        W22950  16.890  18.464   4.901  0.2624 -0.1697 -0.0225
 7820W        W22951   5.253   6.827  10.538  0.3949  0.0470  0.2499
 7821W        W22952   7.721   9.104   5.123  0.3131  0.2828  0.2092
 7822W        W22953  15.823   0.034  14.152 -0.1655  0.1256 -0.0714
 7823W        W22954   5.643   8.173  12.618  0.0316  0.0096 -0.0239
 7824W        W22955   3.746   3.018   4.679 -0.2252  0.0192 -0.0180
 7825W        W22956  12.511   8.759  11.002 -0.1258 -0.0072 -0.3823
 7826W        W22957   2.507   9.665   2.928 -0.1661 -0.1865  0.1792
 7827W        W22958  18.389   9.633  13.557 -0.0120  0.0379 -0.1604
 7828W        W22959  11.487  12.897   0.067 -0.1106 -0.0339 -0.0972
 7829W        W22960   5.842   2.215   5.797  0.0453  0.1944  0.0344
 7830W        W22961   1.000  10.975  14.355  0.3184  0.1345  0.0503
 7831W        W22962   3.170   6.296  15.627 -0.2144  0.1287 -0.2607
 7832W        W22963   8.128  11.177   3.967  0.3496  0.3580 -0.2263
 7833W        W22964   4.015  13.917  12.098 -0.2387  0.1709 -0.1784
 7834W        W22965  10.968   5.041  11.794 -0.0929  0.0437  0.1039
 7835W        W22966   6.739  16.168   0.066  0.0697 -0.2033 -0.2295
 7836W        W22967   1.901   7.823  13.399 -0.3001  0.0602  0.0374
 7837W        W22968   5.677  12.829  11.399  0.0231  0.2779 -0.0129
 7838W        W22969   6.194   1.370  12.233  0.1805 -0.0770 -0.0567
 7839W        W22970  16.801   9.041  13.545 -0.1027  0.0261  0.0648
 7840W        W22971   4.367   5.706  12.005  0.2402 -0.3085 -0.0700
 7841W        W22972   4.150   1.183  13.073 -0.3527 -0.0978 -0.0811
 7842W        W22973  13.274   1.464   0.254 -0.0591 -0.0117 -0.0329
 7843W        W22974   9.499  10.294  13.594  0.2459  0.1222  0.1227
 7844W        W22975  16.019   4.037  11.710  0.0209 -0.0607 -0.3492
 7845W        W22976  15.981  16.342  14.978 -0.0081 -0.1997  0.2313
 7846W        W22977   5.613  10.033  14.139 -0.0839 -0.1463 -0.0045
 7847W        W22978   7.117  18.041   0.282 -0.1375  0.3064  0.1502
 7848W        W22979   5.475  10.019   0.478  0.0142  0.1938  0.0746
 7849W        W22980  16.435   2.870  13.621  0.1929  0.3977 -0.1408
 7850W        W22981   8.044   5.046   4.173  0.3196  0.1418 -0.1494
 7851W        W22982   4.150  17.996  14.710  0.1455 -0.0241  0.2695
 7852W        W22983  11.929   9.807  10.191  0.1117 -0.1300  0.1598
 7853W        W22984  11.553   9.903  15.769 -0.1292 -0.0550  0.0787
 7854W        W22985  15.327   4.768   4.359  0.0608 -0.2798  0.0180
 7855W        W22986  16.621  14.691   0.173 -0.1886  0.0771 -0.1868
 7856W        W22987   4.877   5.877  11.715  0.0639 -0.0459  0.3225
 7857W        W22988  18.468   0.145   1.078 -0.0947 -0.1221 -0.2419
 7858W        W22989   0.663   3.241   4.337 -0.0155  0.2552 -0.3520
 7859W        W22990   9.179  14.937   0.790  0.1515  0.0733 -0.4316
 7860W        W22991  12.920   6.807  13.903 -0.1133  0.1424 -0.1779
 7861W        W22992   8.411   9.031   0.558  0.0505  0.3192 -0.0928
 7862W        W22993   0.246   2.473  14.338 -0.0795 -0.1416  0.1250
 7863W        W22994   7.233   2.383  14.473 -0.0628  0.0286 -0.2292
 7864W        W22995   2.733  11.718   0.900 -0.0309  0.0662 -0.0672
 7865W        W22996   5.566  17.243  13.024  0.2829 -0.0233  0.0435
 7866W        W22997  13.723   5.337   4.834 -0.4388  0.0994  0.0503
 7867W        W22998  15.235   4.076   3.381  0.0543 -0.1919 -0.0471
 7868W        W22999   1.844   2.482  15.758 -0.3185  0.1403  0.0544
 7869W        W23000   7.146   5.747   1.982 -0.0245  0.0496  0.0260
 7870W        W23001  13.012   9.865   1.337 -0.2820  0.3798 -0.1366
 7871W        W23002  10.365   2.767   3.982  0.2539 -0.0981 -0.0359
 7872W        W23003   0.521  16.168  15.375  0.2570  0.0722  0.0543
 7873W        W23004   0.690  14.734  10.877 -0.1772  0.2607  0.4029
 7874W        W23005   3.061   1.540   0.689 -0.2742  0.1214 -0.1105
 7875W        W23006  16.445  14.163  11.772  0.2840 -0.1962 -0.0224
 7876W        W23007   2.597   4.957   3.211  0.3064  0.0985  0.0013
 7877W        W23008  13.916  18.461  12.408  0.2678  0.0243  0.0008
 7878W        W23009  13.804   7.026  13.293  0.1090  0.0449 -0.0954
 7879W        W23010  18.605  10.555   0.427  0.4254 -0.0773 -0.1727
 7880W        W23011  14.891  17.597   5.320 -0.2248 -0.0657 -0.1367
 7881W        W23012   3.952  15.641   5.673 -0.1024  0.2849  0.2237
 7882W        W23013  16.411  17.347  14.963 -0.1735  0.3535 -0.1516
 7883W        W23014  10.500   5.635  15.020  0.0772 -0.0553 -0.0461
 7884W        W23015   3.448   6.451   1.976 -0.0509  0.0414  0.0399
 7885W        W23016  14.726   6.258   0.454  0.3287  0.0974 -0.0313
 7886W        W23017  11.815  10.237   3.832  0.3932  0.1516 -0.2311
 7887W        W23018  16.905  10.515   5.272  0.4092  0.0191  0.2841
 7888W        W23019  17.887   4.666  11.595 -0.1894  0.1018 -0.1208
 7889W        W23020  13.665  16.429  13.157 -0.1729  0.1187 -0.0487
 7890W        W23021   0.219   9.022   2.740 -0.1735  0.1422 -0.3205
 7891W        W23022   3.615   2.767  13.941  0.1876  0.2252 -0.0202
 7892W        W23023   7.806  13.744  15.604 -0.0593 -0.0840 -0.1566
 7893W        W23024   4.023  17.876   0.106 -0.3692  0.1304  0.2043
 7894W        W23025   3.946   7.442  14.190  0.1251  0.1140 -0.0509
 7895W        W23026   2.834  16.460   3.651 -0.0925  0.3394  0.0298
 7896W        W23027   2.563   8.474  13.678  0.2420 -0.0901 -0.2559
 7897W        W23028   0.757   7.928   2.847  0.0346  0.0243  0.3563
 7898W        W23029  10.995  12.126  13.084  0.0523 -0.1386  0.0084
 7899W        W23030  18.487   3.579  12.897 -0.1604 -0.0738 -0.1398
 7900W        W23031  11.313   8.868   5.447  0.4169 -0.0618  0.3127
 7901W        W23032   9.812  12.052   3.658 -0.0092 -0.0981 -0.2794
 7902W        W23033   5.205   6.546   4.144 -0.3400 -0.0218  0.0654
 7903W        W23034  14.254   9.388   2.822  0.1898 -0.1228  0.0719
 7904W        W23035   0.659   5.953  14.219 -0.3886 -0.2811  0.2918
 7905W        W23036   0.214  13.425  10.322 -0.2864 -0.1295 -0.1000
 7906W        W23037  16.137   4.582  11.677  0.0574  0.0595  0.0693
 7907W        W23038  12.255   0.745   3.828  0.0562 -0.3505  0.3186
 7908W        W23039   4.226  18.708   4.846 -0.0757 -0.0756  0.2984
 7909W        W23040  18.695   1.131   2.242  0.1971  0.0329  0.0945
 7910W        W23041   7.140  12.264  12.486  0.0646  0.0167 -0.0091
 7911W        W23042   9.426  18.426   5.497  0.3228  0.1922  0.0156
 7912W        W23043   4.722   1.482   5.320 -0.3631 -0.2404 -0.0511
 7913W        W23044   4.078   2.102  14.227  0.2902  0.1960  0.1606
 7914W        W23045   2.335  11.470   4.616 -0.0610 -0.4299 -0.0987
 7915W        W23046   6.878   4.490   2.845 -0.0600  0.0691 -0.2122
 7916W        W23047  15.866  15.345  12.266 -0.3054 -0.2789  0.0562
 7917W        W23048  17.227  17.124   0.213 -0.0936 -0.0430 -0.0686
 7918W        W23049   6.467   5.438  12.764 -0.0335  0.0270  0.1441
 7919W        W23050  18.516  16.096  11.394 -0.0648  0.2366 -0.2743
 7920W        W23051   9.088   4.283  10.840 -0.1866  0.1874 -0.0669
 7921W        W23052   4.874   0.087   1.581 -0.0151 -0.0231 -0.1821
 7922W        W23053   5.064  10.868   4.724 -0.1331  0.3228  0.4372
 7923W        W23054  11.734  12.247   5.454  0.1808  0.3651 -0.1176
 7924W        W23055   0.823   5.095   3.504  0.1100 -0.0466 -0.2164
 7925W        W23056  12.148  17.367   5.220  0.3078  0.1448  0.0333
 7926W        W23057  18.333   3.308  10.837 -0.0054 -0.0900 -0.1074
 7927W        W23058   3.135  16.034  14.005 -0.1216 -0.1257  0.0848
 7928W        W23059   4.083   8.709   2.653 -0.0014  0.1019 -0.2008
 7929W        W23060  17.490  11.137  13.443  0.0628  0.2770  0.3552
 7930W        W23061   4.373  11.571  14.293 -0.2346  0.0878  0.2241
 7931W        W23062   5.666  16.932   3.715 -0.0098  0.0609 -0.0295
 7932W        W23063  14.987   5.873   2.032 -0.0737 -0.0318 -0.1530
 7933W        W23064  17.481  11.960   0.334  0.1462 -0.0640  0.1099
 7934W        W23065   3.644   9.347  10.395 -0.1635 -0.1899  0.0844
 7935W        W23066  14.726   1.594  10.637 -0.0319 -0.2495 -0.1512
 7936W        W23067  13.332   5.873   3.955 -0.3682 -0.0160  0.0539
 7937W        W23068   8.171  17.263   0.624  0.0791 -0.3763  0.1812
 7938W        W23069   7.457   8.381   4.968 -0.0816  0.1509  0.1084
 7939W        W23070   0.858   5.572   0.696 -0.4524  0.0926  0.3552
 7940W        W23071   3.301   9.570  13.768 -0.4163  0.2195 -0.0297
 7941W        W23072   2.370   0.719  14.120  0.1258 -0.2102 -0.0885
 7942W        W23073   1.911  10.798   0.297 -0.0613 -0.1708 -0.0917
 7943W        W23074   8.751   1.650  11.609 -0.1524 -0.1784  0.1366
 7944W        W23075   2.506   6.428   4.088 -0.0845 -0.3080  0.1010
 7945W        W23076  11.458   0.712  14.111  0.0236  0.1980 -0.1458
 7946W        W23077   6.972   9.845   3.054  0.1325 -0.0503 -0.4698
 7947W        W23078  11.206   3.265   5.375  0.1438  0.1921 -0.1808
 7948W        W23079   0.352   6.404  13.514 -0.0934  0.2046  0.1932
 7949W        W23080   5.725  14.049  14.089 -0.1920  0.3571  0.1495
 7950W        W23081  10.656  16.007  12.507  0.0923  0.0184  0.1850
 7951W        W23082   9.054   1.770   1.054  0.1484  0.0316 -0.0922
 7952W        W23083  10.030  10.362   4.896  0.0548  0.0286  0.3480
 7953W        W23084   7.317   5.953  12.443 -0.0866  0.1617  0.0488
 7954W        W23085   8.853   9.421  14.007 -0.1885 -0.3788 -0.1201
 7955W        W23086  14.226   9.037  14.271  0.0232 -0.0137  0.0182
 7956W        W23087  17.264  15.387  14.064 -0.0737  0.2175 -0.0915
 7957W        W23088  10.037   0.786  12.815 -0.0947  0.2692 -0.0589
 7958W        W23089   2.519  10.346  12.305 -0.1577  0.2315  0.1355
 7959W        W23090  10.445   2.752   5.062 -0.0013  0.0274  0.0603
 7960W        W23091   3.381  16.096   5.316 -0.0881  0.0189 -0.0682
 7961W        W23092  15.918   1.021  14.900 -0.1987  0.1168  0.1298
 7962W        W23093  14.636  16.165  11.182 -0.3847  0.0467 -0.1289
 7963W        W23094  17.918  18.000   3.866  0.2399 -0.1820 -0.0942
 7964W        W23095  18.356  12.423   4.495 -0.2087 -0.1618 -0.0307
 7965W        W23096   8.282  15.172   2.827  0.0329 -0.0171 -0.2948
 7966W        W23097   3.468   2.201  12.948 -0.1321 -0.2781 -0.1171
 7967W        W23098   1.698  18.128   5.063  0.0205 -0.0945 -0.1157
 7968W        W23099  13.849   9.539  12.436  0.2834 -0.3236  0.2395
 7969W        W23100  13.820   4.132  13.176  0.1754 -0.1726  0.0302
 7970W        W23101   3.749  16.987   3.554 -0.2362  0.0479  0.1937
 7971W        W23102  16.703   7.927  11.343  0.1805  0.1052 -0.0927
 7972W        W23103  14.878   3.636  12.257 -0.1820  0.2065 -0.2403
 7973W        W23104   3.024   5.401  15.567  0.0174  0.1495  0.0508
 7974W        W23105   4.638  17.588  15.059  0.0819  0.0191  0.0603
 7975W        W23106   2.747   3.425  12.230  0.1169 -0.1849  0.2338
 7976W        W23107   3.859   4.741  12.535  0.0568 -0.2734 -0.2399
 7977W        W23108   3.622   4.422  13.058 -0.1533 -0.1776 -0.2567
 7978W        W23109   2.691  16.796  15.115 -0.0125 -0.1348 -0.0858
 7979W        W23110   9.016   7.527  14.179 -0.0494  0.2260 -0.0558
 7980W        W23111   2.232  18.676  11.404  0.0880  0.1326 -0.0585
 7981W        W23112  16.588   6.525  12.569 -0.1535 -0.0708  0.0059
 7982W        W23113  10.166  17.119  13.070  0.3297  0.0555  0.2769
 7983W        W23114  15.562  16.941   0.291 -0.0840 -0.1735 -0.0060
 7984W        W23115  11.863  18.698   0.764 -0.1938 -0.4422  0.3521
 7985W        W23116   8.852   5.379   3.403  0.2168  0.2042 -0.4132
 7986W        W23117  14.645  15.683  10.486  0.3247  0.0996 -0.2486
 7987W        W23118  12.345  17.594  10.960 -0.2998 -0.0086 -0.0192
 7988W        W23119  18.445  18.220  14.302  0.0912  0.2880 -0.0051
 7989W        W23120   6.963   9.791   3.947 -0.4058  0.0762  0.4727
 7990W        W23121   3.200   4.133   0.017  0.0957 -0.0473 -0.4000
 7991W        W23122   5.755   3.405   2.419  0.0519  0.0031 -0.0055
 7992W        W23123  18.290  14.971   2.383  0.3637 -0.2363  0.0395
 7993W        W23124  15.732  14.754  14.047  0.0566 -0.0054  0.1209
 7994W        W23125   0.018   3.059  13.768  0.0433  0.2826  0.1704
 7995W        W23126   5.197  17.452  12.211  0.0163  0.0496 -0.0269
 7996W        W23127  10.310   0.430  12.521 -0.3532 -0.0691  0.1281
 7997W        W23128  16.145  12.389   0.864 -0.2842  0.2504 -0.4974
 7998W        W23129  12.169   9.168   1.470 -0.2415  0.0991 -0.2410
 7999W        W23130   5.529  12.211  13.798  0.1041  0.3005  0.0008
 8000W        W23131  13.644   6.694  14.375 -0.0429 -0.0952 -0.1247
 8001W        W23132   7.280  14.046  14.818 -0.0666 -0.0679 -0.0314
 8002W        W23133   4.268  10.880  11.555  0.0862 -0.1714  0.4679
 8003W        W23134   2.374  13.795  14.398  0.2320 -0.4620  0.0878
 8004W        W23135  17.672   6.740   1.376  0.0342  0.1751 -0.1933
 8005W        W23136  15.336  10.053   5.733  0.0015  0.2475 -0.2130
 8006W        W23137   1.085  11.957  13.133 -0.2480 -0.0431 -0.1642
 8007W        W23138  13.501  18.625  14.100 -0.1505 -0.0114 -0.3720
 8008W        W23139   2.039  16.565   0.829  0.0811 -0.1170  0.0962
 8009W        W23140   5.401  17.634  12.668  0.1515  0.4671  0.2577
 8010W        W23141   4.363  17.702  12.749  0.2278  0.0050  0.1244
 8011W        W23142  16.572   2.615   2.678 -0.0223  0.0097 -0.0594
 8012W        W23143   8.651  13.809   0.018  0.1491 -0.2211  0.1253
 8013W        W23144   1.442   7.062  10.534 -0.3746  0.0320  0.0338
 8014W        W23145  15.024   5.597   2.482  0.0440  0.0401  0.0203
 8015W        W23146   8.569   2.481  12.783 -0.3399 -0.1434  0.1171
 8016W        W23147  11.137   7.487  14.676  0.1655  0.4022 -0.0661
 8017W        W23148   6.396   2.912   6.535 -0.1736  0.1995 -0.3069
 8018W        W23149   8.117   3.227   0.984  0.1043  0.0534  0.1957
 8019W        W23150  14.922   8.110  12.930  0.0236  0.2606  0.0315
 8020W        W23151  17.652  15.108   2.177  0.1867  0.0505  0.1125
 8021W        W23152   4.800   3.492  15.114  0.0947  0.0017 -0.1960
 8022W        W23153  12.490   0.931   1.764  0.0171  0.1195 -0.2771
 8023W        W23154  17.269  10.833   5.263 -0.1300  0.0256 -0.0853
 8024W        W23155  13.212  16.321   0.294  0.2420 -0.6562 -0.0618
 8025W        W23156  16.873  15.332  12.384 -0.0728  0.1764 -0.1628
 8026W        W23157  18.547  12.618  15.731  0.1201 -0.1383  0.1988
 8027W        W23158  11.642   6.576   2.115 -0.2631 -0.0244 -0.1121
 8028W        W23159  13.659   8.871   1.325 -0.3011  0.1896 -0.1681
 8029W        W23160  10.161   3.703  14.434  0.2485 -0.3161 -0.0920
 8030W        W23161  12.680   2.506   0.414  0.1447  0.1634 -0.1024
 8031W        W23162   1.369   2.974   0.289  0.3202  0.3780  0.0604
 8032W        W23163   9.357   4.093   2.801 -0.4001 -0.1323 -0.0270
 8033W        W23164  10.607   1.666  15.174 -0.1139 -0.0622 -0.0159
 8034W        W23165  17.598   7.288   4.379 -0.0676 -0.3003 -0.0899
 8035W        W23166  17.486  18.365   2.567 -0.0063 -0.0750  0.1067
 8036W        W23167  15.228  14.551  15.270  0.0787  0.2085 -0.0535
 8037W        W23168  16.717   7.864  13.011 -0.0434  0.5100 -0.1972
 8038W        W23169   3.337   6.532   3.477 -0.2014  0.1098 -0.2682
 8039W        W23170  16.181   0.013  15.558  0.0845  0.1549 -0.1346
 8040W        W23171   0.510   8.211  12.375  0.1852  0.2458 -0.3454
 8041W        W23172  15.258  16.953  12.406  0.0085 -0.0356 -0.0870
 8042W        W23173   8.153   2.498   4.466 -0.3082  0.0440 -0.0693
 8043W        W23174   6.532  12.324  14.555  0.1035  0.1520  0.1430
 8044W        W23175   8.392  14.453   1.858 -0.2691  0.0224  0.3634
 8045W        W23176   0.021   4.919   1.374 -0.0914 -0.1775 -0.0962
 8046W        W23177  14.476   8.441  11.683 -0.0446 -0.2130  0.3446
 8047W        W23178   8.020   8.657  10.474 -0.1851  0.5046  0.0265
 8048W        W23179   4.786   9.438   2.054  0.1921  0.2056  0.1359
 8049W        W23180   6.676   1.222  15.661 -0.1589 -0.0111 -0.2673
 8050W        W23181   5.360   7.900   2.005 -0.2995  0.1651 -0.0466
 8051W        W23182  14.965   0.989  13.665 -0.2292 -0.3069 -0.1731
 8052W        W23183   0.583  15.255  13.199  0.0340 -0.0377  0.1855
 8053W        W23184   3.782   3.050  14.338  0.1616 -0.1306  0.0446
 8054W        W23185  17.649   1.846  11.695 -0.2119  0.1992 -0.1748
 8055W        W23186  17.480  18.446   0.909 -0.2073 -0.1282 -0.2141
 8056W        W23187   0.338   5.058   9.777  0.0287  0.1170  0.1030
 8057W        W23188  15.094  15.785  14.271  0.1808  0.1694  0.2419
 8058W        W23189   0.409   3.941  11.421 -0.0055 -0.1571 -0.1000
 8059W        W23190   4.925   9.634  13.538 -0.1250 -0.4243 -0.1062
 8060W        W23191   4.549   2.456   3.409 -0.0683 -0.1294 -0.0419
 8061W        W23192  16.566   8.984  11.215 -0.1595  0.3155 -0.1947
 8062W        W23193   1.274  12.791   1.593 -0.0413  0.1113 -0.1102
 8063W        W23194  10.659   8.134  10.267  0.0964  0.1616  0.0271
 8064W        W23195  10.779   1.039  15.541 -0.2905 -0.4223  0.0320
 8065W        W23196  12.767  13.352   0.501 -0.1810 -0.2352 -0.0661
 8066W        W23197   4.686  11.678  11.157 -0.3306 -0.3373 -0.1837
 8067W        W23198   4.250  11.619   0.098  0.1888 -0.1902  0.5492
 8068W        W23199  13.565   9.418  13.343 -0.0330  0.1331  0.2749
 8069W        W23200  13.129  14.829   2.583 -0.3567  0.1017 -0.2208
 8070W        W23201   9.275  13.661  14.396  0.0677  0.1571  0.2378
 8071W        W23202   9.184   9.430  14.628 -0.0019  0.0591  0.2685
 8072W        W23203   5.818  14.643   2.069  0.1765 -0.1780 -0.1825
 8073W        W23204   8.266  15.786   5.559 -0.3439 -0.1339 -0.0211
 8074W        W23205   1.892   8.481  10.528 -0.0489 -0.3311  0.2882
 8075W        W23206  11.929   7.882   4.633  0.3309 -0.3323  0.2611
 8076W        W23207  13.866  11.076  13.621  0.2689  0.0029  0.3021
 8077W        W23208  13.668   6.778   4.872 -0.1120 -0.4356  0.3369
 8078W        W23209   9.329   7.664   9.813 -0.3033 -0.0774 -0.1544
 8079W        W23210   0.961   6.692  14.807 -0.1602  0.0451 -0.3457
 8080W        W23211   3.055   5.403   4.094  0.0056  0.3126 -0.2259
 8081W        W23212  18.376  10.528  14.503  0.0993  0.6571 -0.1578
 8082W        W23213  12.650  11.249   4.791 -0.0647  0.0361  0.1669
 8083W        W23214  13.837   2.384   4.357  0.3385  0.0181  0.1232
 8084W        W23215   0.438  12.329  11.755  0.1502  0.0623 -0.0631
 8085W        W23216  10.780  14.534   2.093  0.0876 -0.2018  0.1714
 8086W        W23217   1.457   6.993  13.998 -0.0933  0.1216 -0.0207
 8087W        W23218   0.776  11.982  12.779  0.3234  0.0879  0.4347
 8088W        W23219  10.904  14.234   3.969  0.0005  0.0765  0.1892
 8089W        W23220  12.491  16.178   0.770  0.1128 -0.0864 -0.0337
 8090W        W23221  12.479  18.108  15.453  0.1204 -0.0957 -0.1095
 8091W        W23222   2.262  10.828   5.378  0.0024 -0.3502  0.2768
 8092W        W23223  11.652  13.579  11.109 -0.1277 -0.0934 -0.3081
 8093W        W23224  16.375   1.946   3.591 -0.0775  0.0626  0.2153
 8094W        W23225  17.972  12.131  13.501 -0.1039 -0.1746  0.2241
 8095W        W23226   4.051   3.186  13.440 -0.1494 -0.3999 -0.0746
 8096W        W23227   1.903   5.622  11.574  0.1882  0.0416 -0.0685
 8097W        W23228   0.765  10.520   4.150 -0.0672 -0.1005  0.0614
 8098W        W23229  16.774   8.666  12.629 -0.1047 -0.0799 -0.0291
 8099W        W23230   2.420  13.126  11.489 -0.1554  0.2071  0.0794
 8100W        W23231   1.230   7.880   0.255  0.2775 -0.0030  0.3008
 8101W        W23232   7.923   5.814  14.473 -0.1260 -0.0491  0.0294
 8102W        W23233  13.051  17.157   2.805  0.1123  0.3178  0.1063
 8103W        W23234  18.419  15.477  12.545 -0.1305  0.0361  0.0757
 8104W        W23235   6.894  16.003  15.448  0.0262 -0.1110 -0.0429
 8105W        W23236  17.685  14.524   1.205 -0.1567  0.0962 -0.0473
 8106W        W23237  17.956  10.992  13.786 -0.0341  0.0630  0.1180
 8107W        W23238  12.665  15.815   1.879 -0.3389 -0.2415 -0.0905
 8108W        W23239   8.060   8.559  11.360  0.0810 -0.0500  0.0497
 8109W        W23240  13.215  16.140   4.085 -0.2052 -0.2343 -0.1724
 8110W        W23241   8.295  14.206  15.676  0.0413  0.0611 -0.1449
 8111W        W23242  16.630  17.864   1.151 -0.2704 -0.3853  0.2611
 8112W        W23243   9.312  12.257  10.878 -0.3175  0.1029  0.0758
 8113W        W23244   2.821  17.684  15.457 -0.2906  0.1148 -0.0076
 8114W        W23245  18.262   5.291   0.372 -0.1152  0.1975 -0.0408
 8115W        W23246   5.701   4.482  10.198 -0.1223  0.1391  0.3299
 8116W        W23247   2.385   5.015   1.080 -0.0071 -0.2219 -0.2971
 8117W        W23248  14.124   9.053  11.115  0.0945 -0.0366 -0.0735
 8118W        W23249  15.901   6.083  14.330 -0.1404 -0.0956 -0.0063
 8119W        W23250  17.719   5.401   4.215 -0.1142 -0.2113 -0.2383
 8120W        W23251   0.231   5.771   3.244 -0.0270 -0.1339  0.5323
 8121W        W23252   7.835   4.353   0.559  0.1779 -0.0664 -0.0758
 8122W        W23253   0.328   9.482   3.119 -0.1521  0.2511 -0.1541
 8123W        W23254  13.588  15.483  14.941  0.3706  0.1324  0.0287
 8124W        W23255   8.642   2.359   4.803 -0.2667 -0.1414 -0.1303
 8125W        W23256  16.798   9.608  11.959 -0.0287  0.1583  0.0351
 8126W        W23257   3.308   9.695   4.362  0.1445 -0.0693  0.4023
 8127W        W23258   2.035   0.077   3.893 -0.0309 -0.2353  0.0811
 8128W        W23259   4.137  16.820  10.893  0.2472  0.1243 -0.0352
 8129W        W23260   6.985  14.960   0.582  0.0032  0.0050 -0.1202
 8130W        W23261  10.838  13.514  10.490  0.4517 -0.2882  0.2612
 8131W        W23262   9.138  12.800  13.728 -0.3648  0.1888 -0.1407
 8132W        W23263   7.268  16.103   4.552  0.0571  0.0044  0.0271
 8133W        W23264  12.543  11.482  11.692 -0.2790  0.3304  0.1571
 8134W        W23265   0.800   6.681   9.706  0.1187 -0.0056  0.1015
 8135W        W23266   9.373   7.251   2.335  0.2160  0.0219  0.0393
 8136W        W23267   7.206   9.485   1.051  0.0035 -0.1834 -0.3946
 8137W        W23268   6.395   6.975  14.902 -0.2606  0.0854 -0.4480
 8138W        W23269  11.073   3.138   3.688  0.0938  0.1319  0.1015
 8139W        W23270  11.931   1.019   1.556  0.1131  0.2459  0.0696
 8140W        W23271  18.524   5.221   2.062  0.2062  0.0777 -0.0827
 8141W        W23272  16.133  12.496  11.300  0.0240 -0.2366  0.0949
 8142W        W23273  15.666   6.863  10.800  0.0205  0.0726 -0.1382
 8143W        W23274   1.299  17.404   2.826  0.1123 -0.0259 -0.1800
 8144W        W23275   7.395   1.416   3.712  0.2394 -0.0835 -0.0522
 8145W        W23276   7.384  18.515  11.384  0.1896  0.2556  0.0397
 8146W        W23277  13.811   7.481  13.779  0.4208 -0.0541  0.3464
 8147W        W23278   3.002  10.957   3.794  0.2652 -0.0886  0.0991
 8148W        W23279  13.850  15.631   4.023  0.2899 -0.1548 -0.2525
 8149W        W23280  17.159   2.839  14.820 -0.0987  0.1478  0.0343
 8150W        W23281   2.984   9.979  10.748  0.1219 -0.2348 -0.2473
 8151W        W23282   4.996   8.601   2.509  0.0579  0.0951  0.1336
 8152W        W23283  18.715   7.241   3.966  0.2585 -0.2229  0.0108
 8153W        W23284   8.085   7.520  15.024  0.0439 -0.0309  0.2495
 8154W        W23285   7.500   8.739  14.129  0.1478  0.2184  0.2502
 8155W        W23286  15.694  14.416   3.081 -0.3306  0.3478  0.3883
 8156W        W23287   3.135   8.997   1.103  0.0078 -0.1624 -0.2226
 8157W        W23288  15.642  13.719   0.488  0.1883 -0.3112 -0.4713
 8158W        W23289   4.561  11.339   2.126 -0.2750 -0.3627  0.1020
 8159W        W23290   3.727   5.502   1.198  0.1308  0.0996 -0.1399
 8160W        W23291  17.920   2.437   2.654 -0.1925  0.0940  0.2488
 8161W        W23292  18.232  16.558  12.441  0.1678 -0.2218 -0.0426
 8162W        W23293   7.204  10.260  13.142 -0.1629  0.3014 -0.3607
 8163W        W23294   6.491  13.507  12.266 -0.0456  0.0205  0.1810
 8164W        W23295   7.545   9.388  13.486  0.2535 -0.1529  0.0390
 8165W        W23296  18.142   6.866  11.817 -0.1378 -0.1966 -0.0649
 8166W        W23297   8.080   5.606  14.030  0.1516 -0.1116  0.0031
 8167W        W23298   7.940   8.105  14.665 -0.2104  0.2409 -0.1382
 8168W        W23299   2.013   6.361   3.976 -0.1254  0.0753 -0.0826
 8169W        W23300  15.340   2.889  14.288  0.0218 -0.0435 -0.2580
 8170W        W23301   8.687   4.815   3.674 -0.1013 -0.0640  0.2934
 8171W        W23302  14.438   6.426  10.859  0.1991 -0.1935 -0.0033
 8172W        W23303   6.368   0.764  11.017 -0.0140 -0.0874  0.2704
 8173W        W23304   4.826   7.808  10.304 -0.2309  0.0776  0.0080
 8174W        W23305  12.154   2.050   2.507  0.1709  0.1833 -0.0639
 8175W        W23306   7.096   2.926   4.912  0.0358 -0.1711 -0.0743
 8176W        W23307   2.943  18.182   1.254  0.3686  0.2131 -0.2916
 8177W        W23308  16.607   4.611  12.934  0.4267 -0.0673 -0.0267
 8178W        W23309  16.986   5.529  13.193 -0.1815  0.2287 -0.3054
 8179W        W23310   3.420   8.720   2.854  0.0259  0.0368  0.0516
 8180W        W23311   9.354   8.531   1.593  0.0333 -0.2640  0.0199
 8181W        W23312  18.651   4.969  12.251 -0.1171 -0.2117 -0.1156
 8182W        W23313   9.991  17.618  15.743 -0.0272 -0.1882  0.1856
 8183W        W23314  17.769  15.422   0.872  0.2634 -0.0597  0.1582
 8184W        W23315   1.788   9.207  12.196 -0.0843 -0.1462 -0.1538
 8185W        W23316   4.545  14.662  15.707  0.1771  0.0832  0.0689
 8186W        W23317   0.181  11.892  12.459 -0.3097 -0.0471  0.0511
 8187W        W23318  12.384  11.756  13.745  0.3013  0.1192 -0.1240
 8188W        W23319   5.829   8.573  13.757 -0.1372 -0.1782  0.1783
 8189W        W23320   2.433  10.333  11.796 -0.3012 -0.0777 -0.0044
 8190W        W23321   7.444   8.421  13.747 -0.2420  0.0438  0.0970
 8191W        W23322   5.872  10.694   1.511 -0.3800 -0.1541 -0.1640
 8192W        W23323  15.080   3.705   2.645 -0.4002  0.0377  0.1272
 8193W        W23324  13.207  16.845   0.508 -0.1153  0.0278  0.1819
 8194W        W23325  15.050   6.943  14.628  0.0737 -0.0303 -0.0214
 8195W        W23326  15.948   7.688   4.402 -0.3794  0.3333 -0.2268
 8196W        W23327  16.255  15.675   5.092  0.1721  0.1385  0.0533
 8197W        W23328   2.044   9.292  11.375  0.1694  0.0353  0.2492
 8198W        W23329  10.183  17.234  11.022 -0.2058  0.2391 -0.2571
 8199W        W23330   0.050  14.422  14.570  0.3245  0.2536  0.0438
 8200W        W23331   5.528  13.809  15.115 -0.0200 -0.0058  0.0218
 8201W        W23332   9.442   7.886   0.633 -0.0394 -0.2263  0.5524
 8202W        W23333   8.537   8.259  11.495 -0.0553  0.0410  0.1083
 8203W        W23334   7.930  12.769   5.612 -0.2108  0.0921  0.1728
 8204W        W23335   9.134   6.780  14.697  0.0932 -0.0172  0.0588
 8205W        W23336   8.783  12.609  13.403 -0.0322  0.2375 -0.1721
 8206W        W23337   6.376  15.782   1.370  0.0157 -0.1910  0.4191
 8207W        W23338  12.509   7.045  14.289 -0.3107 -0.0144 -0.0207
 8208W        W23339  14.031   2.440   2.672 -0.3176 -0.2182  0.1665
 8209W        W23340  11.255   9.475  12.889 -0.1180  0.1596 -0.0806
 8210W        W23341  13.687   6.577  13.560  0.3718 -0.2338 -0.0541
 8211W        W23342   2.373   3.405  15.751 -0.2533  0.0152  0.0743
 8212W        W23343  12.947  10.111   2.280 -0.0504 -0.1261 -0.2222
 8213W        W23344   9.470   8.938  10.857 -0.2796  0.0748 -0.0187
 8214W        W23345  10.230  18.132  11.244 -0.1185 -0.0006 -0.2061
 8215W        W23346   3.836   5.045   1.519 -0.0733  0.0831 -0.3933
 8216W        W23347   9.310   2.689   2.902  0.0897 -0.1619 -0.1163
 8217W        W23348  11.992  11.988   3.388  0.0124  0.1995  0.0935
 8218W        W23349   2.068   3.631   2.189 -0.4015  0.2158  0.0917
 8219W        W23350   0.910  11.880  15.234 -0.0581  0.1163  0.2432
 8220W        W23351  13.412  13.382  14.698 -0.2643 -0.0518 -0.0996
 8221W        W23352  15.961  12.279  15.135  0.2117  0.1243  0.0075
 8222W        W23353   7.204  10.791  11.963  0.3081 -0.0196  0.3022
 8223W        W23354   5.768  17.551   3.356  0.2336 -0.0728 -0.1253
 8224W        W23355   3.725  18.357   2.449 -0.1862  0.2922 -0.3052
 8225W        W23356   4.940   7.480  15.488  0.1821 -0.0920 -0.0779
 8226W        W23357  16.351  15.626   1.058  0.2694 -0.1049 -0.0072
 8227W        W23358  13.174   4.717   1.944  0.0810  0.1855  0.2867
 8228W        W23359   3.880   8.879   0.246 -0.1859  0.0373  0.0784
 8229W        W23360  12.803   3.498  10.069 -0.1281  0.0135 -0.0026
 8230W        W23361  17.861   1.360   2.532  0.0333  0.0868  0.2241
 8231W        W23362   4.658   8.398  11.181  0.1146 -0.4534  0.0581
 8232W        W23363   9.057  11.524   5.128 -0.0492  0.0204  0.0284
 8233W        W23364  17.535   1.948   4.336 -0.3241 -0.0709 -0.1231
 8234W        W23365  14.834   0.333  12.928  0.0880 -0.1313 -0.1230
 8235W        W23366   9.698   2.792  11.312  0.0459  0.2894 -0.4974
 8236W        W23367   0.532   9.736   0.164 -0.0224 -0.1818  0.1840
 8237W        W23368   2.545   9.012   4.681  0.0263 -0.0959 -0.1296
 8238W        W23369   8.029  14.580  12.524  0.3634 -0.0525 -0.1027
 8239W        W23370  17.515   1.231  15.568  0.3094  0.1899  0.2849
 8240W        W23371   8.987  12.738  10.998  0.2559  0.0521  0.1586
 8241W        W23372  11.711   6.851  12.353 -0.0996 -0.0132 -0.2331
 8242W        W23373   5.026  16.115   3.359 -0.2381 -0.1054 -0.4954
 8243W        W23374   9.635  12.970   1.981  0.0352 -0.1316 -0.0986
 8244W        W23375  13.812   6.431  12.484 -0.0862  0.3730 -0.3805
 8245W        W23376   0.204  14.567  14.030 -0.1830 -0.0888  0.0634
 8246W        W23377   2.757   3.987   4.580  0.0142  0.0826 -0.1400
 8247W        W23378   1.034  17.706  13.587 -0.1987 -0.2075 -0.1149
 8248W        W23379  10.045  14.323   2.080 -0.1762 -0.2332  0.1387
 8249W        W23380  18.484  15.652   1.494 -0.5123 -0.0325  0.0251
 8250W        W23381   3.586   5.439   4.213 -0.3413 -0.3390 -0.1070
 8251W        W23382   7.072  17.518  13.034 -0.0726  0.0219 -0.0675
 8252W        W23383  16.467   6.392   2.622 -0.2070  0.0413  0.0613
 8253W        W23384  11.624  12.981   3.116 -0.3214 -0.2717  0.1079
 8254W        W23385  12.568  18.652  15.464 -0.5800  0.1696 -0.0205
 8255W        W23386   0.675   9.985  13.519  0.1057  0.1982  0.1288
 8256W        W23387   2.119   6.922   5.442  0.1037 -0.2616 -0.1377
 8257W        W23388   3.726   0.977  13.264  0.1093  0.2055 -0.0150
 8258W        W23389   1.223   4.394   2.985 -0.2586 -0.2541  0.1173
 8259W        W23390  13.504   1.664  12.701 -0.0154 -0.0523 -0.2870
 8260W        W23391  12.382  18.282  11.449  0.0784 -0.1080  0.0852
 8261W        W23392   2.002   1.043  11.796  0.1963 -0.1500 -0.2348
 8262W        W23393   4.250   5.958  13.928  0.3885  0.1489  0.2869
 8263W        W23394   2.703   2.130   0.078  0.1304 -0.4285  0.0479
 8264W        W23395  10.705  13.396   9.275  0.0130  0.1688 -0.0349
 8265W        W23396   8.109   2.024   4.178 -0.0848  0.2097  0.3179
 8266W        W23397  10.936  15.131  13.936  0.0249  0.0370  0.2268
 8267W        W23398   1.186  13.351  13.365  0.2270  0.2731 -0.0715
 8268W        W23399   8.096   7.083  14.316 -0.0429 -0.0573 -0.1863
 8269W        W23400  12.106  10.206  14.687 -0.0411 -0.0075  0.2570
 8270W        W23401  17.418   0.662   1.992 -0.0458  0.1993 -0.2038
 8271W        W23402  13.128   3.223  12.760 -0.1707 -0.1053 -0.1787
 8272W        W23403   6.849  11.274  10.738 -0.1975 -0.0762  0.0044
 8273W        W23404   6.534   3.448   3.706  0.0744 -0.0100 -0.2794
 8274W        W23405   0.408  15.247  13.733  0.0898  0.2754  0.2063
 8275W        W23406  12.456  17.989  14.138 -0.0417  0.1633  0.0028
 8276W        W23407   8.340  13.231   2.707  0.0483 -0.0410  0.1231
 8277W        W23408   6.370   2.608   1.329  0.1512 -0.2489 -0.0592
 8278W        W23409  13.787   6.306   0.190 -0.0464 -0.1405 -0.0752
 8279W        W23410  16.824   2.184   0.792 -0.3025  0.0579  0.1632
 8280W        W23411   8.687  17.747   4.393 -0.0011 -0.1579 -0.1830
 8281W        W23412   8.146  15.300  15.303 -0.3402 -0.0504  0.0485
 8282W        W23413   5.451  13.380  12.159 -0.1323  0.1298 -0.1308
 8283W        W23414  17.519   3.955  12.321  0.1238 -0.1358  0.0124
 8284W        W23415  12.572  12.854  12.836 -0.2614 -0.1334 -0.1636
 8285W        W23416   1.199  10.599  11.255 -0.0585 -0.1001 -0.0800
 8286W        W23417  12.555  10.719  13.296 -0.0944 -0.2823 -0.1148
 8287W        W23418   2.302  16.621  12.118  0.1660  0.3074  0.0240
 8288W        W23419   9.549   2.421   4.905 -0.1292 -0.3092  0.3088
 8289W        W23420   8.778  14.789  10.371 -0.0834  0.1752  0.1682
 8290W        W23421   1.515   5.112   1.563  0.1193  0.2705  0.1973
 8291W        W23422  16.486   9.831  10.583  0.0101  0.2280 -0.0619
 8292W        W23423   1.259   7.695   2.031 -0.0748 -0.4202  0.0136
 8293W        W23424  16.137  15.864  15.086 -0.0866  0.1070  0.1567
 8294W        W23425  18.556   9.736   9.332 -0.1260 -0.1692 -0.2824
 8295W        W23426   8.014  13.822  14.479 -0.2048  0.0399  0.3845
 8296W        W23427   3.096   8.618  11.175 -0.0709 -0.0694 -0.0971
 8297W        W23428   9.412   5.691   0.416 -0.0190  0.3263  0.0768
 8298W        W23429  11.985   0.830   3.404  0.1671  0.1103 -0.0319
 8299W        W23430   9.905  15.489   2.304  0.4007  0.2579  0.0227
 8300W        W23431   6.915   0.148   3.676 -0.0042  0.0089 -0.0399
 8301W        W23432   3.266  10.538  15.440 -0.1619  0.2700 -0.1620
 8302W        W23433   9.081   8.563  12.078 -0.3063 -0.0483 -0.2028
 8303W        W23434   3.178  13.403   0.195 -0.1377  0.2919 -0.0941
 8304W        W23435   4.811  15.858  11.926 -0.1907 -0.0855  0.0771
 8305W        W23436  14.269  17.460  10.719  0.0300  0.0446  0.1903
 8306W        W23437  16.528  15.077  14.731 -0.4536 -0.1368  0.2358
 8307W        W23438   0.078   0.934   2.686 -0.1625  0.1876 -0.3522
 8308W        W23439   1.849  16.309   1.837 -0.0529 -0.3619 -0.1351
 8309W        W23440  17.079   7.066  10.766  0.1238 -0.0387 -0.1236
 8310W        W23441  17.466   3.046  15.747 -0.0153 -0.0997 -0.1190
 8311W        W23442   8.873   9.106   2.344 -0.2860  0.1141 -0.2229
 8312W        W23443   4.920  16.555   3.205 -0.3425 -0.1856 -0.0424
 8313W        W23444  14.930  11.022  13.579 -0.1158 -0.2295  0.2305
 8314W        W23445  10.979   1.785  14.842  0.2757 -0.1840 -0.1301
 8315W        W23446   9.989  11.364  11.702 -0.2149 -0.2937 -0.0717
 8316W        W23447  18.653  11.103   4.946  0.0007  0.1039 -0.2121
 8317W        W23448   2.079   4.760   0.285 -0.1409 -0.3368  0.0185
 8318W        W23449  16.059  15.160   4.919 -0.0018  0.1121  0.0757
 8319W        W23450   4.279   2.034   3.574  0.0070 -0.1400 -0.1739
 8320W        W23451  12.220  15.299  15.462 -0.1199  0.2142 -0.1164
 8321W        W23452   4.485   2.846   0.222  0.2006 -0.0697 -0.1805
 8322W        W23453  11.235  18.431  15.353 -0.0922 -0.0236  0.0593
 8323W        W23454   9.881  10.384   0.930  0.1711 -0.0635  0.0066
 8324W        W23455   0.951   0.952  10.522  0.0856 -0.0539 -0.1832
 8325W        W23456  14.526   9.456  12.852  0.1490 -0.0559  0.0043
 8326W        W23457   4.281   7.380   2.427 -0.1206 -0.2175  0.1710
 8327W        W23458  15.624   7.427   5.265  0.4991  0.0479 -0.3463
 8328W        W23459   9.758  12.965  11.294  0.0178  0.0355  0.0319
 8329W        W23460   0.548  15.701   4.626 -0.0437 -0.1380 -0.0183
 8330W        W23461  10.357  15.772   2.182 -0.2457 -0.0744 -0.0669
 8331W        W23462   8.357  14.367   5.631 -0.1138 -0.0118 -0.2013
 8332W        W23463   5.319   9.621   1.442 -0.2738  0.1583 -0.0425
 8333W        W23464   4.119   1.746   0.408 -0.1790 -0.0011 -0.1997
 8334W        W23465   7.265   7.159   3.278 -0.0822 -0.2282 -0.0634
 8335W        W23466   6.035   5.792  14.024  0.2010 -0.0557  0.1484
 8336W        W23467  13.592  16.388   4.736 -0.1192 -0.2449  0.1995
 8337W        W23468   1.838  14.200  13.225 -0.0130 -0.0266 -0.0981
 8338W        W23469   5.159  16.685   2.250 -0.4380  0.1133  0.3405
 8339W        W23470  16.438  18.185   4.204 -0.1537 -0.0568 -0.0005
 8340W        W23471  11.344  17.938  15.370  0.0295 -0.0373 -0.0178
 8341W        W23472  14.028   5.524  12.042 -0.0258 -0.0641  0.3729
 8342W        W23473   8.670   9.476   4.517 -0.3806  0.2144  0.0481
 8343W        W23474   4.575   6.750  12.062  0.0754  0.1294 -0.1021
 8344W        W23475   9.615   7.185  10.462 -0.3899 -0.2560  0.0811
 8345W        W23476  15.151   5.070  14.642 -0.1216  0.4968  0.1002
 8346W        W23477  11.999   5.899  13.036 -0.1083  0.2342  0.3259
 8347W        W23478   3.736   7.770   2.813  0.0436 -0.0184  0.2389
 8348W        W23479  10.257  17.856  15.423  0.1687 -0.1211  0.5742
 8349W        W23480   3.550   5.225  12.529 -0.1265  0.0537  0.2977
 8350W        W23481  12.019  12.712   3.942  0.0770  0.1478 -0.3293
 8351W        W23482   7.011   5.350  13.349 -0.4229  0.2267 -0.2173
 8352W        W23483   6.313  10.312   5.110  0.0242  0.1767 -0.0786
 8353W        W23484   7.633   7.499   2.550 -0.0297  0.2671 -0.2068
 8354W        W23485  16.857   3.105  11.878  0.0650  0.2725 -0.1446
 8355W        W23486  15.076  18.633  14.212  0.3196  0.0942  0.0140
 8356W        W23487   7.431  12.595   1.438  0.1620  0.3591  0.1476
 8357W        W23488  12.366   5.167   3.770 -0.3943  0.0479  0.0775
 8358W        W23489  15.318   8.856   0.116 -0.0515 -0.0927  0.3724
 8359W        W23490  15.268  16.632   4.905 -0.1221  0.0844  0.3572
 8360W        W23491   6.811   9.017   5.390  0.0910  0.1712  0.0307
 8361W        W23492   9.076  16.314  14.690  0.1605 -0.2482  0.0489
 8362W        W23493   9.224  11.305  12.927  0.1812 -0.0073  0.0422
 8363W        W23494  18.376  14.039   3.210 -0.0426 -0.0538 -0.5403
 8364W        W23495  18.493   5.864   4.372  0.0728  0.2155 -0.2033
 8365W        W23496   5.605   6.756  14.792  0.1414  0.0754  0.0788
 8366W        W23497   4.785   6.932  12.505 -0.0299 -0.1514  0.1598
 8367W        W23498  11.153  11.671   3.756  0.2204 -0.2479 -0.0962
 8368W        W23499  13.514   0.228   4.882 -0.2510 -0.0593 -0.2095
 8369W        W23500   2.168  11.168  14.145  0.2385  0.3999  0.0634
 8370W        W23501  13.103  13.963   5.037 -0.1743  0.4184  0.2463
 8371W        W23502  11.365  11.605  13.773  0.0066 -0.1360  0.2617
 8372W        W23503   9.114   7.460   0.593  0.2441 -0.1129  0.0322
 8373W        W23504  10.281  13.571   5.002 -0.1718 -0.1657 -0.0616
 8374W        W23505   0.085   5.441  13.416 -0.0924  0.2585 -0.2251
 8375W        W23506  10.793   9.557   3.864 -0.1060  0.1022  0.0803
 8376W        W23507  15.392  15.344  11.412  0.3173 -0.1123 -0.2320
 8377W        W23508   6.947  18.319  11.635  0.0275  0.1744 -0.2793
 8378W        W23509   4.386  14.295  14.678 -0.2086  0.0593 -0.0313
 8379W        W23510  14.717  13.528  13.810 -0.0265  0.0423  0.1023
 8380W        W23511  10.260   0.565   0.902  0.0696 -0.0862  0.1633
 8381W        W23512   2.281  12.791  14.983 -0.0565 -0.2138 -0.0354
 8382W        W23513   8.201   6.822  10.934 -0.0768 -0.2444  0.3629
 8383W        W23514  15.904  17.976   3.491  0.0373  0.1944 -0.0002
 8384W        W23515   4.246  16.751  13.626  0.1741 -0.1141  0.0708
 8385W        W23516  16.553  18.538   0.527  0.1949  0.4577 -0.2275
 8386W        W23517   5.855   3.200  14.484  0.0554  0.0328 -0.1059
 8387W        W23518   0.631   7.017   5.000 -0.0624 -0.1136  0.1317
 8388W        W23519  14.224   9.916   0.910  0.1273 -0.0147  0.2129
 8389W        W23520   8.230  16.205  14.053 -0.1381  0.1742  0.0064
 8390W        W23521  14.696   7.239   4.359 -0.0797 -0.1803 -0.2104
 8391W        W23522  12.079  14.346  12.139  0.2655 -0.1279  0.0320
 8392W        W23523  12.730  18.240   1.868  0.1096 -0.1018 -0.3163
 8393W        W23524  10.176   7.675   3.131  0.1910 -0.1062 -0.0526
 8394W        W23525   9.863  14.460  11.567  0.1340  0.2359 -0.0650
 8395W        W23526   7.774  16.177   4.697  0.2028 -0.3421 -0.1633
 8396W        W23527   5.935   4.899  13.946 -0.1967  0.1584 -0.1975
 8397W        W23528  17.803   2.168   3.366 -0.2222  0.0305 -0.0738
 8398W        W23529   7.672  18.044   0.424 -0.3459 -0.1875 -0.0784
 8399W        W23530   4.329  12.485   2.683 -0.1359 -0.1046 -0.2450
 8400W        W23531   0.192   1.089  12.299  0.0055  0.1638 -0.0766
 8401W        W23532  11.755   1.703  12.830  0.3740  0.1176 -0.0773
 8402W        W23533  12.604   7.317  15.569 -0.0253  0.1866 -0.0583
 8403W        W23534  16.873   0.302   9.656 -0.0930  0.1227 -0.2279
 8404W        W23535   2.969  10.843  13.904  0.1088 -0.0706  0.1102
 8405W        W23536   7.890   4.206   3.936  0.1734  0.0055 -0.3236
 8406W        W23537   0.883   8.876   0.400 -0.0976 -0.1748  0.0270
 8407W        W23538  11.358   9.092  14.209  0.0195 -0.2034 -0.1305
 8408W        W23539   5.177   0.587  11.549  0.1169 -0.1292 -0.1082
 8409W        W23540  13.954  13.115   2.370 -0.0783  0.3479 -0.3479
 8410W        W23541   7.162   4.622   9.737  0.2575  0.1663  0.2145
 8411W        W23542  13.281  15.343   2.744 -0.1263 -0.0060 -0.0792
 8412W        W23543   7.044  13.087   0.102  0.0453 -0.0696 -0.3061
 8413W        W23544   9.748  16.981  11.969 -0.1124 -0.0189 -0.0563
 8414W        W23545   2.060   8.532  10.071 -0.1360  0.0247  0.0328
 8415W        W23546   0.777   7.354  14.146 -0.2661  0.2543 -0.1015
 8416W        W23547   7.569  18.567   2.917  0.0995 -0.0091  0.4293
 8417W        W23548  11.243   2.764   0.726 -0.0211 -0.0292 -0.2158
 8418W        W23549  17.727   7.274   0.303 -0.1091 -0.0303 -0.2294
 8419W        W23550  10.232   0.321   2.383  0.1831  0.1467 -0.3279
 8420W        W23551  11.588  18.691   3.632  0.0366 -0.2222 -0.1855
 8421W        W23552   1.330   0.367  12.803 -0.0387  0.0969  0.1129
 8422W        W23553  14.582  16.043  13.053  0.1772  0.3187  0.1507
 8423W        W23554   4.477  11.278   1.029 -0.3819  0.1709  0.0754
 8424W        W23555  13.324  11.261  13.538  0.0468  0.0034 -0.0088
 8425W        W23556   5.310  14.021   0.533 -0.1405  0.2982  0.0879
 8426W        W23557   6.461   0.742   2.597  0.3528 -0.3111 -0.1030
 8427W        W23558  11.399  15.096  13.260 -0.0534 -0.1940 -0.0171
 8428W        W23559  15.511  13.217  13.949 -0.2158  0.0923 -0.1003
 8429W        W23560  17.931   8.606  11.131 -0.1789  0.2980 -0.1321
 8430W        W23561   7.918  14.890   2.029  0.1366 -0.3628  0.0572
 8431W        W23562   3.582   1.506   2.960 -0.0229 -0.2014 -0.2953
 8432W        W23563  10.934   8.590   3.698 -0.1939  0.2165 -0.0481
 8433W        W23564   0.132   7.458  13.489  0.3005  0.2464 -0.1696
 8434W        W23565  11.884   4.519  12.441  0.1345 -0.2290  0.0954
 8435W        W23566   5.135  13.585  12.918 -0.1592  0.0966  0.0072
 8436W        W23567   8.400  17.235   5.834 -0.0668 -0.1743  0.0312
 8437W        W23568   1.690   9.931   4.866 -0.0274  0.1377  0.1400
 8438W        W23569  11.231  17.012  11.038 -0.2004 -0.2316 -0.0562
 8439W        W23570  10.656  13.260   3.578  0.1039  0.1417  0.3310
 8440W        W23571   7.692  11.977   3.722  0.2452  0.0649  0.2012
 8441W        W23572  11.581   7.503  13.919 -0.0052  0.0477  0.1332
 8442W        W23573  16.645   0.373  13.091 -0.2554  0.1619  0.2028
 8443W        W23574  15.381   6.751  14.957  0.0924 -0.0623  0.1086
 8444W        W23575  10.143   9.154   2.903  0.0934 -0.1472 -0.0851
 8445W        W23576  13.868   6.084   6.215 -0.0562  0.1191 -0.0357
 8446W        W23577  14.902  10.190  13.626  0.1072 -0.0013  0.0426
 8447W        W23578  14.400   0.542   3.619 -0.1011  0.1740  0.4869
 8448W        W23579   1.878  14.954   1.643  0.2688 -0.0044  0.3539
 8449W        W23580  11.961  17.426   0.258  0.4360  0.0140  0.2370
 8450W        W23581   2.087  10.638  11.641  0.0087 -0.0146  0.1823
 8451W        W23582   7.035   2.236  11.791 -0.0818 -0.1049  0.0705
 8452W        W23583  13.160  12.721  13.434  0.0344  0.1952  0.4152
 8453W        W23584   7.788   2.992  11.019  0.0918  0.0432  0.0231
 8454W        W23585  16.095   6.997   2.699  0.1884  0.1801 -0.4421
 8455W        W23586   7.579   7.429   3.578  0.0885  0.2100 -0.2878
 8456W        W23587   3.943   1.749  13.876 -0.0082 -0.4168 -0.0366
 8457W        W23588   8.050  12.880   4.715  0.0514 -0.2127 -0.0726
 8458W        W23589   7.377   5.186   0.805 -0.3814 -0.0111  0.1484
 8459W        W23590   4.889  10.461  11.861  0.3195 -0.3222 -0.5623
 8460W        W23591   2.591   9.687   3.514 -0.1400  0.0093  0.0096
 8461W        W23592  18.045  17.565  13.680  0.0473 -0.0524  0.3358
 8462W        W23593  11.361   0.624  11.829 -0.0131 -0.0273  0.0969
 8463W        W23594   6.887  11.721   0.683  0.1523  0.1047 -0.3319
 8464W        W23595   5.713   7.427  11.759  0.1175 -0.3659 -0.0664
 8465W        W23596   3.915   6.139  10.842 -0.2280 -0.0819  0.4436
 8466W        W23597   5.664   0.385   6.413 -0.0068 -0.1246 -0.0547
 8467W        W23598  14.098   7.575   0.687 -0.0942 -0.0176 -0.1630
 8468W        W23599   2.090  12.484  11.504  0.2317 -0.1532 -0.0896
 8469W        W23600  14.186   5.889   5.221  0.0889  0.1900  0.0227
 8470W        W23601   3.437   5.091   5.150 -0.0951  0.1296  0.0313
 8471W        W23602  16.690   3.558  13.353 -0.2291  0.0447 -0.0074
 8472W        W23603  10.124  13.791   0.560 -0.1768  0.0676 -0.0230
 8473W        W23604   9.886  11.190   5.179 -0.2337 -0.3176 -0.1660
 8474W        W23605   1.733  10.001   5.387 -0.1614  0.2477  0.3019
 8475W        W23606   3.273   1.409   5.211  0.2699  0.0993  0.1125
 8476W        W23607   3.827  15.958   1.275 -0.1363 -0.0020 -0.0298
 8477W        W23608   8.638  17.789   3.334 -0.0604 -0.1771 -0.2705
 8478W        W23609   3.596  11.134   3.924 -0.0565 -0.2516  0.0663
 8479W        W23610  13.688   1.137  13.550 -0.5453  0.0357 -0.1102
 8480W        W23611   2.642   1.080   1.927 -0.1522  0.1647 -0.2359
 8481W        W23612   7.214   8.701  11.041 -0.2512  0.0515  0.2611
 8482W        W23613   4.616   8.260   1.423 -0.2188  0.3619 -0.2065
 8483W        W23614  11.656  17.833   0.472 -0.1447 -0.0286  0.0406
 8484W        W23615  17.730   9.896  13.289  0.0963  0.2764 -0.2269
 8485W        W23616   6.957  10.468  11.149 -0.1967 -0.1704  0.2240
 8486W        W23617  11.892   0.326  13.264  0.2199 -0.1278  0.1716
 8487W        W23618   8.496  16.817  12.460 -0.1226 -0.0460  0.4932
 8488W        W23619   7.238   8.555   1.317  0.3519  0.0782  0.1524
 8489W        W23620   0.402   8.416   2.821 -0.1654 -0.1513  0.0666
 8490W        W23621  18.377   6.405   4.321 -0.5222  0.0397  0.2482
 8491W        W23622   6.118   6.243   4.084  0.0652 -0.1578  0.0628
 8492W        W23623   8.667   7.856  14.111  0.1263  0.1454 -0.2582
 8493W        W23624   6.153  10.767  11.654  0.0455 -0.0782  0.1722
 8494W        W23625   1.954  18.137  14.719  0.3551  0.1633  0.0363
 8495W        W23626   7.783   4.038  11.673  0.0652  0.0099  0.2445
 8496W        W23627   5.944   6.750   2.194 -0.2602 -0.1295  0.2584
 8497W        W23628   7.976  12.522  13.257  0.0406  0.0612 -0.2630
 8498W        W23629   8.015  12.214   4.196 -0.1071  0.1556  0.0195
 8499W        W23630  16.194   1.349  11.506  0.1506 -0.1886 -0.1634
 8500W        W23631   0.298  16.235  14.721  0.0813  0.1211  0.0022
 8501W        W23632   1.502  16.610   0.385 -0.1531 -0.0828  0.1022
 8502W        W23633   1.073   3.233   2.659  0.0687  0.5723  0.1393
 8503W        W23634  14.361  13.303  12.987  0.2512  0.0764  0.2626
 8504W        W23635  10.082  12.674   2.696 -0.2017 -0.2022 -0.1339
 8505W        W23636   6.198   2.941   0.632  0.0778  0.0436 -0.0611
 8506W        W23637  10.922   5.113   2.418 -0.0113  0.6113 -0.2025
 8507W        W23638  13.966   1.904   1.950  0.0529 -0.1512 -0.1653
 8508W        W23639   9.473  15.708   2.999 -0.0979  0.0597  0.1362
 8509W        W23640   9.475   2.885  13.434  0.0173 -0.3849 -0.1333
 8510W        W23641   4.482  14.056   4.845  0.5856 -0.3908 -0.1610
 8511W        W23642   6.223   2.059   2.690  0.1201  0.0374 -0.0047
 8512W        W23643   0.639   2.147  14.349 -0.1911 -0.4212  0.0470
 8513W        W23644  14.673   7.480  11.488  0.0740 -0.0759 -0.1910
 8514W        W23645   9.793   1.155  10.951  0.1096  0.4042  0.1703
 8515W        W23646   9.111   4.059  11.348 -0.3403 -0.2814 -0.1132
 8516W        W23647  10.656   7.325   2.498 -0.0084 -0.1422 -0.2579
 8517W        W23648   4.506   6.783  11.026 -0.0303 -0.1442 -0.1772
 8518W        W23649  13.265   1.761  11.874  0.1395  0.1364  0.1959
 8519W        W23650  10.693  15.879  15.442 -0.0059  0.0143 -0.0071
 8520W        W23651   9.189   4.990  15.669  0.0913 -0.1040 -0.0023
 8521W        W23652  12.518  15.951  12.266  0.3073 -0.1667 -0.1550
 8522W        W23653   3.323   6.446  13.488  0.0237  0.0644  0.0865
 8523W        W23654  12.521   8.363  11.831  0.1670  0.0408 -0.1450
 8524W        W23655   2.581  11.518  13.333  0.0323 -0.0287  0.0287
 8525W        W23656  15.779   2.840   2.748  0.2242  0.3004 -0.2156
 8526W        W23657   2.144  14.064   1.798  0.1563 -0.0336 -0.0033
 8527W        W23658   1.968   7.110  13.919  0.0708 -0.0920 -0.0184
 8528W        W23659   4.021   2.964   2.518  0.0127  0.0915  0.2688
 8529W        W23660   4.921   2.594   2.033  0.1018 -0.0513 -0.3006
 8530W        W23661  17.795   3.821   1.905  0.0830  0.0228 -0.0885
 8531W        W23662   7.401   2.297  14.006  0.1878 -0.0471 -0.0153
 8532W        W23663   1.830   6.945  13.442  0.0104 -0.0798  0.2961
 8533W        W23664  11.259   3.003   4.923  0.1562  0.2901 -0.1909
 8534W        W23665  18.096   4.915  11.089 -0.0945 -0.0952 -0.0033
 8535W        W23666  18.308  15.034   4.526 -0.1621 -0.1221 -0.2145
 8536W        W23667   4.434  17.266  10.973 -0.0196 -0.2067  0.3452
 8537W        W23668   3.934   1.826   3.257 -0.0718 -0.0348 -0.1604
 8538W        W23669   7.865  14.172   3.103 -0.2573 -0.1346  0.0273
 8539W        W23670  14.777   6.641  12.152 -0.3289 -0.1829  0.1438
 8540W        W23671   9.537  13.528  11.402  0.0119  0.1482 -0.0626
 8541W        W23672   4.055   1.597  12.246 -0.0506  0.2417 -0.1116
 8542W        W23673  13.466   2.708   6.245  0.4448 -0.0575  0.1390
 8543W        W23674  16.537  16.711   5.031  0.0533  0.1757 -0.2446
 8544W        W23675  17.801  16.141   4.473  0.4507 -0.1916 -0.2161
 8545W        W23676  13.207  12.250   3.324  0.1647  0.0576 -0.0778
 8546W        W23677   1.381   1.581   6.241 -0.0062 -0.2013 -0.1683
 8547W        W23678   2.448   8.220  12.660 -0.0135  0.1248 -0.0305
 8548W        W23679   9.442  12.015   4.286  0.0796 -0.0087  0.0077
 8549W        W23680  13.890   5.484  14.943 -0.0238  0.0040  0.0274
 8550W        W23681   7.849   5.298  14.672 -0.0818 -0.2440  0.1143
 8551W        W23682   1.528  15.274   3.376  0.2670 -0.0017 -0.0919
 8552W        W23683  13.024  13.521  14.283 -0.2439 -0.0924  0.2182
 8553W        W23684  15.163  14.330   4.469  0.0571 -0.1045  0.0313
 8554W        W23685  14.152   7.043  15.009  0.1122 -0.0068  0.3844
 8555W        W23686  11.433   9.939   1.850 -0.0766 -0.1685  0.2859
 8556W        W23687  10.710  11.559   3.493  0.2615  0.1932  0.3601
 8557W        W23688   1.305   1.523   1.946  0.0183 -0.0174  0.0845
 8558W        W23689  17.610  14.013  13.906 -0.0582 -0.0235  0.2962
 8559W        W23690   9.283  18.003   5.001 -0.0782  0.0978  0.1677
 8560W        W23691   8.953   5.321   5.154  0.1637  0.1840 -0.0747
 8561W        W23692  18.426   8.509   3.573  0.3142 -0.0113  0.3677
 8562W        W23693  11.459  11.819  15.025  0.0286 -0.2569 -0.1703
 8563W        W23694  17.641  15.131  15.361  0.1353  0.2007 -0.0493
 8564W        W23695  16.849   0.078  14.803  0.1732 -0.1997  0.0225
 8565W        W23696  15.354   1.188  15.193 -0.0051 -0.1233 -0.0745
 8566W        W23697  10.897  17.197  11.395  0.3345 -0.1119 -0.1025
 8567W        W23698   0.758   6.564   0.669 -0.1071  0.1578 -0.0454
 8568W        W23699  14.018  17.773  10.401 -0.0659 -0.2335 -0.0181
 8569W        W23700   8.843   2.418   5.716  0.3355 -0.0140 -0.0125
 8570W        W23701   8.309   5.929   1.040 -0.1366  0.0563 -0.3404
 8571W        W23702   8.178   1.998   0.741  0.1055  0.1503  0.0312
 8572W        W23703   2.996  11.823  11.508 -0.2924  0.1168 -0.0699
 8573W        W23704  18.463  11.301  14.756  0.0176 -0.2835 -0.0429
 8574W        W23705   0.588  10.588   5.346  0.0674  0.0178 -0.0309
 8575W        W23706   8.652  15.998  11.966  0.0900  0.0161  0.3138
 8576W        W23707   9.240   3.655  11.140 -0.0681 -0.2565  0.1419
 8577W        W23708   3.818   0.614   3.807  0.2321  0.0813  0.1607
 8578W        W23709  14.600   3.570   2.334  0.2677 -0.0635  0.0648
 8579W        W23710   4.588  17.330   2.803  0.0408  0.1577  0.1570
 8580W        W23711   4.989  12.290  11.581  0.1619  0.1624  0.0672
 8581W        W23712  10.581   5.514   2.190  0.1256 -0.0507  0.0937
 8582W        W23713   2.604   4.228  12.211 -0.2386 -0.2647 -0.1313
 8583W        W23714  16.766  13.513   2.873 -0.0144 -0.0684 -0.1760
 8584W        W23715   0.744   4.602   1.784  0.0594  0.0953 -0.0792
 8585W        W23716   4.567   0.228  10.133  0.0962 -0.0638  0.0541
 8586W        W23717   8.713   0.008  12.192  0.2185  0.0977 -0.0583
 8587W        W23718   0.447   6.049  11.847 -0.1062 -0.2437  0.4394
 8588W        W23719   7.030  10.931   0.838 -0.1440  0.1402  0.0095
 8589W        W23720   4.263  12.728  14.411  0.3896  0.2138 -0.1698
 8590W        W23721  13.666  15.869   3.339  0.0464  0.1572 -0.2636
 8591W        W23722  10.894  17.850   1.142 -0.0523 -0.1550 -0.1084
 8592W        W23723  13.811  12.909  11.873  0.1468 -0.1241  0.2122
 8593W        W23724   6.330  17.742  13.778  0.0358  0.2744 -0.1918
 8594W        W23725   9.795   7.234  15.710 -0.0268 -0.0049 -0.1519
 8595W        W23726   7.068   6.627   3.529  0.0749  0.2053 -0.0510
 8596W        W23727   8.499   5.496   4.908  0.1865 -0.3521 -0.0409
 8597W        W23728  12.747  17.189   0.488 -0.0870  0.6075  0.1179
 8598W        W23729   9.204  15.492  12.261 -0.1506 -0.0457  0.0634
 8599W        W23730   1.847  10.473   1.884  0.0306 -0.2432  0.2966
 8600W        W23731  15.054   1.777   4.992  0.1057 -0.1040  0.1274
 8601W        W23732   7.313  10.631  15.122 -0.0585 -0.0492  0.0756
 8602W        W23733  10.425   6.863   4.657 -0.0363  0.1517 -0.1877
 8603W        W23734  11.860  10.694   3.468 -0.1990  0.2321  0.0307
 8604W        W23735  12.594   0.734   4.278 -0.1369  0.1749  0.0767
 8605W        W23736  12.101   9.154  12.924  0.0738  0.1652  0.0577
 8606W        W23737  13.803   5.380  10.837  0.2238  0.3790 -0.2068
 8607W        W23738   6.742   2.861   2.220 -0.0504 -0.1785 -0.1969
 8608W        W23739  12.888  10.258   0.351 -0.1914 -0.1539  0.2084
 8609W        W23740  17.195  15.321   2.100  0.2560 -0.0593 -0.1376
 8610W        W23741   9.677  15.498  14.122  0.0682 -0.3880  0.2061
 8611W        W23742   8.760   6.344  14.624  0.2182 -0.0627  0.0757
 8612W        W23743  13.511   6.223   4.735  0.0633 -0.0300 -0.0357
 8613W        W23744   0.367   7.989  11.619 -0.3010  0.2309  0.1408
 8614W        W23745   2.293   7.536  11.391 -0.0214 -0.3092  0.0457
 8615W        W23746   2.637  10.065   4.209 -0.0713  0.0554  0.4059
 8616W        W23747  16.510   2.145   0.384  0.1473 -0.3220  0.3372
 8617W        W23748   1.682   2.831   3.379  0.0891 -0.0041  0.3345
 8618W        W23749  11.663   3.725  10.119 -0.4291 -0.0088  0.2237
 8619W        W23750   9.526  15.262  10.209 -0.0559  0.0658 -0.0148
 8620W        W23751  17.785   8.489   0.968 -0.1449  0.1054  0.1039
 8621W        W23752   5.280   0.749   5.065 -0.1150  0.0788  0.1038
 8622W        W23753   3.831   2.708  13.414 -0.3121  0.1815  0.0656
 8623W        W23754   7.820   8.895   1.966 -0.0245 -0.0442  0.0774
 8624W        W23755   6.855  14.406   4.010  0.1204  0.1407 -0.2264
 8625W        W23756   0.092   8.986  11.949  0.2275  0.0303  0.1176
 8626W        W23757  13.870   5.734  14.498  0.0967  0.0851  0.0273
 8627W        W23758  11.170  16.425   3.769  0.1067 -0.1217 -0.1391
 8628W        W23759  17.578   0.634  14.820 -0.0341 -0.0662 -0.0575
 8629W        W23760   7.978   6.687  14.627  0.2025  0.0442  0.3909
 8630W        W23761  10.936   4.731  11.358 -0.2204  0.1220 -0.0196
 8631W        W23762  12.438   9.119   1.905 -0.0238 -0.0911  0.0927
 8632W        W23763   9.460   1.088   5.421 -0.0679 -0.3134  0.0561
 8633W        W23764   1.207  11.554  14.888 -0.0875  0.2545 -0.0813
 8634W        W23765   9.506   9.314   4.106  0.2095  0.1636  0.3162
 8635W        W23766  11.473  16.706   3.378  0.3423  0.0420 -0.1210
 8636W        W23767   4.066   0.991   4.056 -0.2147 -0.0399  0.1563
 8637W        W23768  14.754  15.284  12.820 -0.0709 -0.1091  0.1571
 8638W        W23769   7.430   8.142   1.343 -0.0934 -0.2364  0.1083
 8639W        W23770   4.011  13.294   1.844  0.0720  0.0754 -0.2604
 8640W        W23771   8.549   1.837  14.991 -0.0176 -0.2406  0.2261
 8641W        W23772   8.321  15.712   2.070  0.3170  0.0152 -0.2735
 8642W        W23773  11.932   1.136   3.799  0.1668 -0.0959 -0.0893
 8643W        W23774   8.587  18.302  14.550  0.2207 -0.5275 -0.2252
 8644W        W23775  13.927   1.078   4.017  0.0064  0.2107  0.2282
 8645W        W23776  11.462   2.704   4.434  0.1626 -0.1457  0.4338
 8646W        W23777   6.893  17.268   2.820  0.0343  0.1432  0.0831
 8647W        W23778   1.508  10.515   0.046 -0.0918 -0.2797 -0.1384
 8648W        W23779  13.574   4.355  10.238 -0.3778  0.0014  0.1131
 8649W        W23780  12.278  11.304  10.253 -0.2707 -0.0528  0.1616
 8650W        W23781   7.206   0.409   0.409 -0.2314 -0.3153  0.0223
 8651W        W23782   4.594   0.455  12.344  0.0874  0.2335 -0.0280
 8652W        W23783   2.530   8.164   5.010  0.3378  0.1055  0.1545
 8653W        W23784  10.699   6.297   0.558  0.0232 -0.2531  0.0897
 8654W        W23785  10.270   3.174   2.221  0.1002  0.1200 -0.0819
 8655W        W23786  10.488  10.232   4.799  0.1690 -0.1421 -0.2480
 8656W        W23787  18.154   1.936   5.617 -0.0887 -0.0676  0.2482
 8657W        W23788   2.042  14.929   4.397 -0.2585 -0.1173  0.0226
 8658W        W23789  17.950   6.885   4.856 -0.1559  0.1662 -0.0684
 8659W        W23790  18.287  12.672  14.572 -0.1468  0.0341  0.1625
 8660W        W23791  13.520  13.667  13.138  0.0423  0.0534 -0.0178
 8661W        W23792  14.658   0.321   2.573  0.1732  0.2996 -0.0966
 8662W        W23793  11.374  10.963   1.038  0.1090  0.1383  0.0431
 8663W        W23794   2.260  10.776  15.794  0.1303  0.1458 -0.0808
 8664W        W23795  17.961  16.738   1.782  0.1660 -0.2523 -0.0051
 8665W        W23796   8.513   3.048   6.398  0.2221 -0.2422 -0.0806
 8666W        W23797   9.749  14.999   2.288  0.1917  0.1620 -0.2015
 8667W        W23798  13.337  11.824  10.657  0.3133  0.2998 -0.0527
 8668W        W23799  11.210  12.051  10.005  0.1887  0.4462 -0.2242
 8669W        W23800  13.008   1.716  15.687  0.0635  0.0572 -0.0464
 8670W        W23801   0.831  17.058  14.804 -0.1271  0.0382 -0.2755
 8671W        W23802   0.741   1.668  15.794 -0.0904 -0.1776 -0.1195
 8672W        W23803   0.482  17.361   0.844 -0.1586 -0.3242  0.0484
 8673W        W23804  13.358   5.906  10.233  0.3783  0.1738  0.1847
 8674W        W23805   4.897   0.814   5.583 -0.1217  0.0268  0.1277
 8675W        W23806  16.056   8.522  11.095  0.1166  0.0838 -0.2788
 8676W        W23807   6.262   2.072   3.820 -0.1601 -0.3260 -0.0872
 8677W        W23808  10.523  12.835  15.304  0.0352 -0.0894 -0.3194
 8678W        W23809   8.254   7.024  12.659 -0.0020 -0.2313  0.6492
 8679W        W23810  11.671  12.974   1.104  0.1074  0.0888 -0.2939
 8680W        W23811   1.076   8.268   1.189  0.0085 -0.0099 -0.0455
 8681W        W23812  17.200   0.864   0.105 -0.0761 -0.0830 -0.0299
 8682W        W23813   5.606   3.595  14.785  0.0445  0.3952 -0.0087
 8683W        W23814   6.947   8.585   2.554 -0.2309 -0.1777 -0.0460
 8684W        W23815  15.960  10.239  15.193  0.0826 -0.3413  0.2179
 8685W        W23816   7.296  17.308   1.545 -0.3564  0.0301  0.0011
 8686W        W23817   8.594   4.586   2.711 -0.2005 -0.0313  0.1112
 8687W        W23818  16.383   6.120   9.973  0.3638 -0.1718 -0.0188
 8688W        W23819  17.287  12.053   4.378  0.4751  0.0005 -0.0284
 8689W        W23820  12.686   3.892  12.291  0.1632 -0.5686 -0.1852
 8690W        W23821   0.183  15.062  15.358 -0.0927  0.1564 -0.0393
 8691W        W23822  16.844   4.495   1.640 -0.5851  0.1766 -0.3328
 8692W        W23823  12.324   4.436   3.998  0.0193 -0.0077 -0.1929
 8693W        W23824   9.874   0.578   2.681  0.2714 -0.1637 -0.1499
 8694W        W23825   6.475   1.574   4.101  0.3572 -0.1155 -0.0167
 8695W        W23826  11.514   7.525   4.398  0.0322 -0.0022 -0.1821
 8696W        W23827   1.066   7.580  12.949  0.0757 -0.0535  0.2900
 8697W        W23828  18.549   9.562  11.240 -0.3710  0.1261  0.2324
 8698W        W23829  11.907  12.998  11.687  0.1399  0.0189  0.0228
 8699W        W23830  13.045  12.874  12.927  0.1746  0.1187  0.0089
 8700W        W23831   7.092   6.340   4.396  0.2905 -0.1308  0.0043
 8701W        W23832  11.370  12.518   1.237  0.0860  0.2049  0.1998
 8702W        W23833  12.691   3.393   2.243  0.1115  0.1153  0.2092
 8703W        W23834   9.668   6.630   0.624  0.0552  0.5060 -0.4305
 8704W        W23835   6.127  14.108  13.208 -0.0622 -0.1248  0.0776
 8705W        W23836  15.368  10.686  11.193  0.1255  0.1694  0.3157
 8706W        W23837   2.129  13.722   0.945  0.0659 -0.0546  0.0706
 8707W        W23838  16.814  15.631   3.108  0.0341  0.0940 -0.1031
 8708W        W23839  13.049  16.978  10.861 -0.0644  0.2926  0.0464
 8709W        W23840   5.773   1.866   2.877  0.0110 -0.0058  0.0468
 8710W        W23841  14.023   6.482  11.937  0.1420 -0.1219 -0.0780
 8711W        W23842   0.390  16.156  14.216  0.0758 -0.0938 -0.1135
 8712W        W23843   3.519  11.481   4.694 -0.2246  0.1696  0.0097
 8713W        W23844   0.880  10.285   1.281 -0.2330 -0.1966  0.3812
 8714W        W23845   4.854   7.540  10.828  0.2079 -0.1033 -0.0461
 8715W        W23846  10.601   4.974   0.449  0.0638  0.1336 -0.0834
 8716W        W23847  15.869  16.585   0.352  0.0581 -0.0706  0.0900
 8717W        W23848  10.688  13.152   1.911  0.0673  0.4847  0.2221
 8718W        W23849  15.573  17.194   0.693  0.1273 -0.1012 -0.1999
 8719W        W23850   5.525  18.053  14.270 -0.2214  0.0732  0.0631
 8720W        W23851   6.829  16.581   4.078  0.0584 -0.2580 -0.2912
 8721W        W23852   2.609  10.265   0.663  0.2206  0.1683 -0.0359
 8722W        W23853   1.407  12.865  13.917 -0.1178 -0.0936  0.0426
 8723W        W23854  10.997   9.825   4.821  0.1517 -0.3166 -0.0237
 8724W        W23855  18.512  12.640  12.355 -0.0429  0.2941  0.0148
 8725W        W23856   2.176  17.517   6.249 -0.3240 -0.2045  0.1954
 8726W        W23857  13.215  11.741  13.353  0.0723 -0.0371 -0.6415
 8727W        W23858   8.573   9.537  15.554  0.0801  0.3235 -0.0707
 8728W        W23859  18.709   0.088  12.091 -0.0743  0.0565 -0.0934
 8729W        W23860  17.843  18.501   2.099 -0.4096  0.1427 -0.2176
 8730W        W23861  11.925   8.475   1.099  0.0091  0.0539  0.0335
 8731W        W23862  11.506   0.798  12.872 -0.3100 -0.1383 -0.1652
 8732W        W23863  13.855  10.324   2.764 -0.0065  0.1809 -0.1573
 8733W        W23864  16.314   1.092  13.708 -0.1311  0.3316  0.2512
 8734W        W23865  18.330  10.848   1.788 -0.0478 -0.1347  0.2209
 8735W        W23866   9.081  10.075   9.545 -0.2546  0.0874 -0.1390
 8736W        W23867  14.098  16.232   3.331 -0.0209  0.3769  0.1384
 8737W        W23868   5.432   9.527  13.679  0.1867  0.1353  0.2413
 8738W        W23869  18.346  15.667  11.701  0.0437  0.1960  0.1051
 8739W        W23870   2.622   3.598  12.861 -0.1218  0.3717 -0.1996
 8740W        W23871   3.772   2.533  14.402  0.2039  0.0980 -0.2033
 8741W        W23872  17.449   8.369   3.440 -0.1702 -0.0088  0.1806
 8742W        W23873  13.302  18.467  12.536  0.2553  0.1536  0.3194
 8743W        W23874   9.834  10.236   3.015 -0.2182  0.0497 -0.4251
 8744W        W23875  10.197  12.752  14.924 -0.0522 -0.1422  0.2604
 8745W        W23876  14.756  17.226   0.380  0.0165 -0.4396  0.1065
 8746W        W23877   1.468  10.012   2.681 -0.2041  0.1809 -0.3110
 8747W        W23878  13.141  10.613  13.180 -0.0764  0.1746  0.2117
 8748W        W23879   3.833  10.339  14.623  0.2682 -0.2269  0.3382
 8749W        W23880  16.573   3.029   2.437 -0.1126  0.3774 -0.2333
 8750W        W23881   9.715   3.110   3.665  0.0630 -0.1176  0.2265
 8751W        W23882  13.523  12.323   1.413 -0.1472  0.1423 -0.2088
 8752W        W23883   0.637   2.463   2.235 -0.1968  0.0364  0.1872
 8753W        W23884  15.778  16.202   0.635  0.0126 -0.0701 -0.0619
 8754W        W23885  18.240   6.352  14.480 -0.1650  0.4008  0.0138
 8755W        W23886  12.923   2.114   1.622  0.1965  0.3433  0.2897
 8756W        W23887   3.430  11.093  14.372  0.4370 -0.1149  0.2439
 8757W        W23888   5.188   5.412   0.132 -0.0500  0.1178 -0.2249
 8758W        W23889   8.557   4.195   1.380  0.0224  0.1317  0.0478
 8759W        W23890  15.968   5.356  15.095  0.4538  0.1495 -0.2187
 8760W        W23891   9.281  13.979   0.865 -0.1761  0.0220  0.2625
 8761W        W23892   2.032  18.009  11.597 -0.1771  0.2886  0.0653
 8762W        W23893  10.259   7.791  14.683  0.2425  0.1643 -0.0983
 8763W        W23894   7.021  18.626   0.113  0.1394 -0.3489 -0.0042
 8764W        W23895  11.480   3.705   5.400  0.1084 -0.0696  0.1698
 8765W        W23896  13.329  18.310  11.542 -0.0855 -0.1025  0.3142
 8766W        W23897   7.385   2.481   2.831  0.0968  0.1679  0.0289
 8767W        W23898   2.228  15.191  15.394 -0.3992 -0.2511  0.1843
 8768W        W23899   7.926  14.609   2.834  0.1629 -0.1974  0.0458
 8769W        W23900  13.218   9.077   3.351  0.1213 -0.3241  0.0654
 8770W        W23901   9.567   7.889  14.142 -0.1632 -0.1936  0.1017
 8771W        W23902  15.923   3.520   4.382  0.1666 -0.1899  0.1614
 8772W        W23903  15.354   9.266   3.719 -0.2017  0.2238  0.0804
 8773W        W23904  14.369   7.004   0.986  0.1513 -0.0850  0.0125
 8774W        W23905   8.418  12.823   0.565 -0.1677  0.1153 -0.3498
 8775W        W23906   1.417  16.114   1.644  0.0543 -0.1915 -0.1971
 8776W        W23907  14.290   2.230   4.615 -0.0933 -0.1425  0.2373
 8777W        W23908   0.362  13.781   1.969 -0.3138  0.0705  0.0533
 8778W        W23909   9.330   2.133   5.666  0.0079  0.1033  0.0777
 8779W        W23910   1.110   2.341   5.229 -0.0247  0.0028 -0.3186
 8780W        W23911   1.367   7.930  13.660 -0.0118 -0.0825 -0.0754
 8781W        W23912   7.172  17.802   1.448  0.2254  0.2381 -0.1779
 8782W        W23913  17.287   8.094   4.482  0.0833  0.0336  0.1892
 8783W        W23914  17.576  10.452   5.201  0.0935 -0.2728 -0.2118
 8784W        W23915   4.634  17.174   5.758 -0.0139 -0.1313  0.1355
 8785W        W23916  17.390  10.708   9.612  0.0693 -0.2778  0.0566
 8786W        W23917  13.740  13.807  13.952 -0.1639  0.0116 -0.1583
 8787W        W23918   9.971  16.356   2.534  0.0997 -0.2234 -0.0485
 8788W        W23919  16.542  10.447   4.809  0.2066  0.2053  0.2149
 8789W        W23920   4.573   2.021  12.204  0.1022  0.0616 -0.0695
 8790W        W23921   2.302  16.892   4.818 -0.2016 -0.0119 -0.0739
 8791W        W23922   3.034  17.935   3.067  0.1439 -0.0351  0.2761
 8792W        W23923  15.247   5.917  12.827 -0.2189 -0.1837  0.0831
 8793W        W23924  15.404   5.607   5.638 -0.1082 -0.1704 -0.1689
 8794W        W23925   0.144   4.227  11.800  0.4259  0.0600  0.0155
 8795W        W23926  11.536  12.499   2.934 -0.1440  0.1998 -0.2394
 8796W        W23927  11.571  15.289   5.095  0.0283 -0.2430  0.1232
 8797W        W23928  11.614  12.729  15.447  0.4310 -0.0391 -0.0225
 8798W        W23929  12.948   2.861   6.140  0.1114  0.0256 -0.0908
 8799W        W23930  12.251  18.681  13.481  0.0226 -0.4048  0.0007
 8800W        W23931   6.659   1.889  11.442  0.0964  0.6029  0.0485
 8801W        W23932   4.748   9.317   3.006  0.2995 -0.1146 -0.0731
 8802W        W23933  18.009   4.640   1.634 -0.3039  0.1662 -0.0083
 8803W        W23934  18.172   4.181  14.071  0.0275 -0.2254  0.0812
 8804W        W23935   4.024   6.762   2.538  0.0792  0.0458 -0.1378
 8805W        W23936  17.660   4.617  15.651  0.2675 -0.0990  0.1519
 8806W        W23937  11.684   6.036  11.266 -0.0751  0.1501  0.0509
 8807W        W23938   3.191  11.251  13.784 -0.0146  0.1068  0.0862
 8808W        W23939   5.303  12.622  12.738 -0.0615 -0.1412 -0.1574
 8809W        W23940   1.349  16.333  14.586 -0.2673  0.2017  0.1254
 8810W        W23941   3.878   4.499   3.715  0.0771  0.0857 -0.1405
 8811W        W23942   6.218   1.141   2.912 -0.2149  0.0532 -0.1737
 8812W        W23943  10.096  12.111   4.140 -0.1098  0.0069  0.0688
 8813W        W23944  17.048   3.026   1.059 -0.1047 -0.1137 -0.0209
 8814W        W23945   6.176  13.199   4.051  0.1488  0.1425  0.0607
 8815W        W23946  11.054  17.104  10.553 -0.4469 -0.0476 -0.3139
 8816W        W23947   9.595  17.546   4.580  0.1064 -0.4464  0.0834
 8817W        W23948  10.761  14.554  11.901 -0.0587 -0.2980  0.0991
 8818W        W23949   4.862   5.805  15.660  0.1110  0.3148  0.1121
 8819W        W23950   3.062  12.575   3.646  0.1810 -0.1497  0.0700
 8820W        W23951  14.176  13.384   1.254 -0.3997  0.1808 -0.2894
 8821W        W23952  17.860  12.960  14.759 -0.3103 -0.1329  0.3025
 8822W        W23953   5.452   3.778   1.923  0.2983  0.2737  0.0091
 8823W        W23954  12.345   1.723   1.111 -0.1513  0.2595 -0.1378
 8824W        W23955   9.147   2.987  12.274  0.0568  0.4092  0.1398
 8825W        W23956   6.564   8.180  12.642  0.1358  0.2234 -0.4097
 8826W        W23957   0.300  12.413   2.469 -0.2935 -0.1330 -0.1481
 8827W        W23958  10.159  13.755  15.480 -0.0512  0.1563 -0.0238
 8828W        W23959   7.712   8.777   4.339 -0.1623  0.0063  0.1128
 8829W        W23960   3.428  10.321   1.528  0.3061  0.3955 -0.0969
 8830W        W23961  11.676   8.083   4.279  0.0620  0.6205 -0.1336
 8831W        W23962  16.268   6.584   3.045 -0.0816 -0.0862  0.0953
 8832W        W23963  10.432  15.031   0.490  0.1913 -0.2481 -0.0696
 8833W        W23964   1.680   9.065  15.801  0.0921  0.0885  0.3002
 8834W        W23965   3.906   3.248  15.009  0.0527  0.2479  0.0235
 8835W        W23966  17.872  10.881  13.140  0.4073 -0.4184  0.2017
 8836W        W23967  12.131   3.900  10.634  0.2066  0.3161  0.4873
 8837W        W23968   5.621   1.099   4.736  0.0500  0.0499 -0.2848
 8838W        W23969   7.529  17.464   2.271 -0.2086 -0.0251 -0.2160
 8839W        W23970   6.213  15.514  13.042 -0.1926 -0.0912 -0.2228
 8840W        W23971   0.747  18.022  15.055  0.0547  0.4285 -0.2606
 8841W        W23972   8.899   3.586  12.977  0.1191  0.2464  0.0937
 8842W        W23973  10.321   4.791  12.748 -0.0469  0.0060 -0.3478
 8843W        W23974  11.730   9.938   0.591 -0.0302  0.3126  0.1533
 8844W        W23975  18.271   9.506   3.816  0.3914  0.1044  0.4000
 8845W        W23976  17.400   6.359  12.323  0.0399  0.2276  0.0353
 8846W        W23977   7.312   9.298   9.561  0.1993  0.1008  0.4201
 8847W        W23978  15.412   5.898  14.273  0.0132  0.0948  0.2365
 8848W        W23979   9.842   6.074   4.349  0.1541 -0.1090  0.2266
 8849W        W23980  11.919   0.704  14.399  0.0773 -0.0955  0.6174
 8850W        W23981   0.898   4.547  12.662  0.1014 -0.0027  0.3033
 8851W        W23982   6.001  12.327  10.220 -0.2388 -0.2690 -0.2520
 8852W        W23983  13.897  18.351  11.600 -0.1112 -0.2170  0.4170
 8853W        W23984   2.802   8.957  14.332 -0.2115 -0.1829 -0.1365
 8854W        W23985   2.998  10.838  11.063 -0.2240 -0.0788 -0.6393
 8855W        W23986   3.545   6.991   3.449  0.1782 -0.0789 -0.3486
 8856W        W23987   2.548   8.174  12.201 -0.3842 -0.2500  0.1850
 8857W        W23988   6.619   0.628  12.889 -0.0536 -0.0393  0.0649
 8858W        W23989   0.737   0.297  13.731 -0.2015  0.2916  0.1354
 8859W        W23990   9.252   6.151  11.954 -0.0283  0.3416  0.0818
 8860W        W23991   8.230   9.215  15.475  0.5773 -0.1197 -0.2294
 8861W        W23992   1.032   7.953   3.323  0.0401 -0.3335  0.2641
 8862W        W23993  16.253   2.785  15.475  0.0761 -0.0660  0.3418
 8863W        W23994   3.498  11.680   1.461  0.0900  0.0793 -0.1145
 8864W        W23995  10.566  13.536   0.467  0.0494 -0.1010 -0.1519
 8865W        W23996  10.724  12.977  10.849 -0.1065 -0.0612 -0.2499
 8866W        W23997   0.219   1.869  14.549  0.2255  0.4531 -0.0186
 8867W        W23998  16.328   3.249   4.572 -0.2192  0.4363  0.1416
 8868W        W23999   2.180   6.959  12.870  0.1429 -0.2389  0.0892
 8869W        W24000  15.262  15.130   2.336 -0.1630  0.1449 -0.2998
 8870W        W24001   4.051  11.790   3.146  0.1584  0.0332  0.2511
 8871W        W24002   4.258   3.407  13.046 -0.0182  0.0332 -0.2410
 8872W        W24003   9.327   5.306  14.665 -0.0861  0.1266  0.4226
 8873W        W24004  16.253   6.194   1.366 -0.5553  0.0542 -0.2753
 8874W        W24005   5.934  10.126  15.727  0.3467  0.1513  0.3738
 8875W        W24006   4.954  15.008  15.060  0.1541  0.2271 -0.1405
 8876W        W24007  17.191  18.464  10.972 -0.2368 -0.1312  0.1638
 8877W        W24008   6.156  13.341  15.070  0.2117 -0.0053  0.2734
 8878W        W24009   8.841   9.191   1.866 -0.0303 -0.0154  0.0315
 8879W        W24010  14.206   2.228   1.621 -0.1832  0.1783  0.1261
 8880W        W24011  13.288   8.267   3.569 -0.3820 -0.2114 -0.0172
 8881W        W24012   7.126  16.643  10.867  0.3871  0.0988  0.0702
 8882W        W24013   8.279  17.406   3.396  0.2428  0.1494 -0.3596
 8883W        W24014  16.347   2.838   1.866  0.1403  0.2144  0.0680
 8884W        W24015   9.305   3.431   3.873  0.0705  0.0878  0.0345
 8885W        W24016   0.495   6.198   1.342 -0.2866 -0.0225  0.1286
 8886W        W24017   9.803   6.964  12.176 -0.1136 -0.2724  0.0771
 8887W        W24018   4.926  12.508  12.233 -0.5066 -0.0674 -0.1819
 8888W        W24019   9.007   7.368   3.776 -0.2397  0.0613 -0.1201
 8889W        W24020  17.361   8.692   2.549  0.0395  0.1961  0.0944
 8890W        W24021   2.464  18.644   2.617  0.2503  0.0700 -0.2424
 8891W        W24022  14.777   2.778  11.717 -0.1978 -0.0814 -0.2149
 8892W        W24023   7.476  15.659   4.794  0.0430 -0.2010 -0.1922
 8893W        W24024  10.739  10.955  11.671  0.1042 -0.1468  0.0297
 8894W        W24025   8.598   5.679  13.388  0.2221  0.0654  0.4913
 8895W        W24026  13.140  17.815  11.355  0.0662 -0.2837  0.2816
 8896W        W24027  10.547   3.999  10.906 -0.1050 -0.2476  0.1747
 8897W        W24028   3.666   8.872  10.510  0.4314 -0.1180 -0.3693
 8898W        W24029   0.875  15.653  13.036  0.5739  0.1307  0.0168
 8899W        W24030  10.670  16.747  14.844 -0.0846 -0.3574 -0.2334
 8900W        W24031   4.750   8.082  14.583 -0.2422  0.2505 -0.0731
 8901W        W24032   4.191   0.845   3.491  0.0694 -0.3284 -0.0971
 8902W        W24033   0.631   5.322  10.603 -0.3817  0.2400 -0.1555
 8903W        W24034  10.062   6.656  13.979 -0.0359  0.0287  0.2461
 8904W        W24035  13.079   7.717  14.478  0.1456 -0.1605  0.0085
 8905W        W24036  15.818   4.972  12.524  0.0748  0.0767  0.0286
 8906W        W24037   8.195   3.072  11.988  0.6008  0.3111 -0.0890
 8907W        W24038   8.283   4.683  15.076 -0.3421 -0.2135  0.3009
 8908W        W24039  12.967   7.275  14.137  0.0376  0.0617  0.0219
 8909W        W24040   5.477  11.706   5.703 -0.0404  0.1504  0.2300
 8910W        W24041   8.427   5.928   1.871  0.0925 -0.0766 -0.1120
 8911W        W24042   6.654  17.177   4.184  0.1731  0.3037  0.0758
 8912W        W24043   5.792  18.612   3.480  0.2110  0.2160  0.1480
 8913W        W24044   2.518   8.953  13.894  0.1228  0.0354  0.0791
 8914W        W24045   2.120   8.431   3.358 -0.0208  0.1266  0.0507
 8915W        W24046  17.615  12.686   0.174  0.1154  0.3162 -0.4121
 8916W        W24047  14.112  10.702  12.270  0.0395  0.3520 -0.0247
 8917W        W24048  16.777   1.813   1.829 -0.1484 -0.2240 -0.0237
 8918W        W24049   7.835   9.019   1.475  0.0954  0.1412  0.0804
 8919W        W24050  15.391   8.849  11.632 -0.0420  0.3224 -0.2249
 8920W        W24051   8.975   9.329   1.097 -0.2024  0.0781  0.1324
 8921W        W24052   7.386   0.882  14.661 -0.0568  0.1572 -0.0986
 8922W        W24053  12.446   6.622  13.933 -0.1334  0.1476  0.2350
 8923W        W24054  16.223  11.168  11.041 -0.4907  0.0799  0.3551
 8924W        W24055   0.593   6.687   2.285  0.3901 -0.0687 -0.1140
 8925W        W24056  10.319   7.432   4.579 -0.0441  0.1143  0.2516
 8926W        W24057  15.203  17.369  15.678  0.0427  0.1312 -0.2254
 8927W        W24058  12.962  18.213   2.723  0.1539 -0.0332 -0.2133
 8928W        W24059  15.329   9.293  14.297 -0.4560  0.0712  0.0812
 8929W        W24060   0.877  16.162  13.061  0.0147 -0.0024  0.2098
 8930W        W24061  11.344  17.273  13.525 -0.0756 -0.2885  0.1295
 8931W        W24062  10.465   5.129  12.218  0.3603  0.0897 -0.1511
 8932W        W24063   9.740   5.500   5.742 -0.1127 -0.3212  0.0208
 8933W        W24064   6.317  16.792  14.145  0.2736  0.0639 -0.1170
 8934W        W24065   1.121   5.355  11.314 -0.2286  0.1285  0.0511
 8935W        W24066   7.500   0.567  11.062  0.2417 -0.3439  0.1096
 8936W        W24067   8.568  11.413  10.404 -0.1449  0.1407  0.2499
 8937W        W24068   2.760   5.549   2.895 -0.0069  0.2987  0.3230
 8938W        W24069   4.332   9.406  12.810  0.2141  0.1051 -0.2445
 8939W        W24070   5.561  10.496  13.851  0.0323 -0.3912 -0.1509
 8940W        W24071   7.876  16.508   4.288 -0.2106 -0.4932  0.1259
 8941W        W24072  11.802  14.619  11.410  0.0924  0.2329  0.0738
 8942W        W24073   4.010   6.427  13.208  0.2173 -0.1586 -0.0659
 8943W        W24074   3.587   9.001  15.667  0.3466 -0.0549  0.0490
 8944W        W24075  16.514  14.723  10.095  0.1019 -0.0091 -0.1989
 8945W        W24076  15.036   0.873   2.454 -0.2213  0.1668  0.1079
 8946W        W24077   8.154   7.016  15.050  0.4526  0.2311 -0.0081
 8947W        W24078   4.678   9.716  13.023  0.1315  0.2690 -0.0744
 8948W        W24079   8.543   7.364  12.472  0.1444  0.2783 -0.1049
 8949W        W24080   1.320  11.787  14.430 -0.2247  0.0364 -0.0053
 8950W        W24081  17.321   9.732  12.934  0.3528 -0.0524  0.2923
 8951W        W24082   5.714  16.714   3.179  0.2108  0.2859 -0.0300
 8952W        W24083  12.751  16.946   0.923  0.0389  0.3130 -0.3196
 8953W        W24084   2.343  17.344   5.779  0.3925  0.0276  0.0752
 8954W        W24085  16.283   5.310  14.114  0.3552  0.2035  0.1626
 8955W        W24086   7.655   9.476   1.350 -0.2390  0.2550 -0.1037
 8956W        W24087   0.249   5.819   1.957  0.1219  0.0781  0.0553
 8957W        W24088   0.306   8.594  14.524 -0.0993 -0.0993  0.0529
 8958W        W24089  12.567  10.632  11.995 -0.0712  0.0537 -0.1885
 8959W        W24090   6.247   2.776  12.064 -0.1678  0.1676  0.3386
 8960W        W24091   0.855   0.646   0.543 -0.0621  0.2415  0.1097
 8961W        W24092   8.289  10.414   2.432  0.0755  0.0205 -0.0161
 8962W        W24093  12.247  12.955   1.664  0.1430  0.3082  0.0863
 8963W        W24094  16.219  16.037  11.336 -0.1072  0.2163 -0.2859
 8964W        W24095  15.693  11.720   2.793  0.0651 -0.2272  0.1031
 8965W        W24096  14.547  14.634   2.443  0.0917  0.0262  0.1572
 8966W        W24097   0.930   7.532  15.542  0.1748  0.4932 -0.1459
 8967W        W24098  16.372  13.566  14.818 -0.1485  0.1671 -0.1032
 8968W        W24099   5.891  10.373  10.921 -0.1833 -0.3564  0.3452
 8969W        W24100  14.974   4.477  15.063  0.2145  0.2719 -0.3280
 8970W        W24101  15.171  16.354  14.016 -0.1728  0.1293  0.2883
 8971W        W24102  17.430  12.583   0.953 -0.0738 -0.0007  0.1736
 8972W        W24103   3.114  11.493  13.316 -0.1045 -0.1751 -0.1032
 8973W        W24104  11.541   0.064  11.904 -0.2188  0.1090 -0.1054
 8974W        W24105  17.634   4.646  10.681 -0.1664 -0.3294 -0.0565
 8975W        W24106   3.083   7.195  14.305 -0.0579  0.3105 -0.0318
 8976W        W24107   2.682   5.456   4.448  0.1361 -0.3216  0.0090
 8977W        W24108   1.736  10.064   1.597  0.1124 -0.1365 -0.2806
 8978W        W24109   4.766  12.541   2.408  0.3339  0.1752  0.0541
 8979W        W24110  10.636  14.689  10.906 -0.0835  0.1402  0.1666
 8980W        W24111  11.108   6.196   1.609  0.1322  0.3600  0.1221
 8981W        W24112  14.201  13.861   4.428  0.1565  0.1620 -0.0768
 8982W        W24113   1.449   7.279  13.566  0.1864 -0.1284 -0.1354
 8983W        W24114  12.754   1.379   0.218  0.3845  0.0020  0.2665
 8984W        W24115   7.648  13.428  15.173 -0.2671  0.3618  0.0743
 8985W        W24116   2.633  10.684   2.282  0.1299  0.0188 -0.0447
 8986W        W24117   5.919   9.898  11.031 -0.0885  0.0697 -0.1975
 8987W        W24118   3.683  15.302  14.098  0.2183  0.0852  0.0825
 8988W        W24119  15.852   9.907   5.584 -0.0689 -0.3366  0.1023
 8989W        W24120   0.951  17.308   0.945  0.0897 -0.0774 -0.1858
 8990W        W24121  10.945   0.538  10.949 -0.0301  0.0386 -0.1846
 8991W        W24122   3.283  17.272  12.827 -0.1541  0.1028 -0.3293
 8992W        W24123   3.510  18.059  11.290  0.2712 -0.0850 -0.0252
 8993W        W24124   0.974   1.539   2.608 -0.2683 -0.2647  0.1110
 8994W        W24125  12.194  12.243   0.026  0.2458  0.2263 -0.0810
 8995W        W24126  17.405  13.227   0.159  0.1394  0.0294  0.1472
 8996W        W24127  12.515  13.252  11.587 -0.3071  0.0068  0.3683
 8997W        W24128  15.263  13.586  13.047  0.0369  0.0083 -0.2006
 8998W        W24129   4.244   0.948  15.005 -0.2979  0.1995  0.1671
 8999W        W24130  13.265  11.541   3.576 -0.1966  0.0777 -0.0526
 9000W        W24131  16.124   8.906   5.459 -0.3228 -0.0621  0.0964
 9001W        W24132   1.307  13.392  15.283 -0.1747  0.0466  0.2031
 9002W        W24133   1.132   6.056  13.728  0.0600  0.0500  0.2525
 9003W        W24134   5.235  16.227   3.788 -0.1151 -0.0138 -0.2945
 9004W        W24135   1.059  10.770  12.458 -0.1215 -0.2582 -0.0147
 9005W        W24136   2.784  12.820   4.500  0.0983  0.0869 -0.2719
 9006W        W24137  14.750  10.956  14.708  0.0840  0.4106  0.0258
 9007W        W24138  11.657  18.277   2.857 -0.1313 -0.0383  0.0111
 9008W        W24139   9.159   1.350   3.545 -0.2853 -0.0105 -0.0470
 9009W        W24140   3.364  13.463   3.885  0.1272  0.2153  0.0345
 9010W        W24141  12.005  18.552   5.680  0.3880 -0.0226  0.0305
 9011W        W24142   2.637   9.509   1.516 -0.2862  0.0459  0.5035
 9012W        W24143  16.656  11.230  14.647  0.3239 -0.0847  0.1392
 9013W        W24144   5.414   0.065   3.107 -0.0466 -0.0181  0.1008
 9014W        W24145  15.176   0.181   2.101 -0.2467 -0.0168 -0.2535
 9015W        W24146  10.379   6.378  11.578 -0.0948  0.1987  0.1154
 9016W        W24147  16.859   3.380   5.312 -0.2136  0.1444 -0.1241
 9017W        W24148  12.949  18.055  13.264 -0.0460  0.0898 -0.1549
 9018W        W24149  11.011   8.709  10.294  0.0748  0.2554  0.1512
 9019W        W24150  15.141  15.605  15.293  0.2219 -0.1266  0.3158
 9020W        W24151  17.948  18.654   0.978  0.3128 -0.3135 -0.2247
 9021W        W24152  17.583  15.067   4.032 -0.3607  0.0746 -0.1890
 9022W        W24153  18.176   6.508   0.308 -0.1231 -0.2291  0.0094
 9023W        W24154  11.520  13.654  15.214 -0.1867 -0.1634  0.1213
 9024W        W24155  16.199  18.434  14.341 -0.1417  0.0424 -0.2003
 9025W        W24156  15.112   4.381  12.977 -0.2007  0.4567  0.1357
 9026W        W24157   9.849   1.021   4.392 -0.0411  0.2235  0.4472
 9027W        W24158  16.005  11.632  15.081  0.1968  0.3129 -0.2117
 9028W        W24159  11.316   9.109  15.241 -0.0920  0.0557  0.0215
 9029W        W24160   4.693   9.088  14.693  0.0506 -0.1017  0.0438
 9030W        W24161  18.441  13.467   5.498  0.0125  0.1403  0.2211
 9031W        W24162  10.202   8.709  15.606 -0.0907  0.2430  0.1192
 9032W        W24163   4.535  12.474   4.811 -0.0239 -0.2053  0.1429
 9033W        W24164   6.227   1.655   5.131 -0.1107  0.0161  0.1004
 9034W        W24165  14.717  13.789   0.004 -0.0348 -0.3014 -0.2355
 9035W        W24166   5.158   5.828   5.294  0.3662  0.2371  0.1083
 9036W        W24167   2.658   5.971   2.511 -0.1205 -0.2237  0.3189
 9037W        W24168  12.846   2.925   2.070 -0.2021  0.0164  0.3419
 9038W        W24169   9.642   3.014  12.485  0.0230  0.2144  0.0198
 9039W        W24170   9.353  13.198  11.861 -0.2646 -0.0873  0.2200
 9040W        W24171   7.075   9.699  14.311  0.1156  0.1669 -0.0151
 9041W        W24172  17.819   2.167  14.315 -0.1258 -0.1516 -0.1681
 9042W        W24173   0.230   7.793  10.500 -0.1151  0.1622 -0.0266
 9043W        W24174  10.326  15.343  11.729 -0.1180 -0.1166  0.2328
 9044W        W24175  15.983   6.654  12.737 -0.0515 -0.3242 -0.0622
 9045W        W24176   3.998   1.076   0.616  0.2745  0.2575  0.0359
 9046W        W24177  12.380   9.397   1.058  0.1857  0.1242 -0.0102
 9047W        W24178   1.405   7.101   0.545  0.0159  0.1078  0.2603
 9048W        W24179   6.073   8.839  15.800  0.0238  0.1668  0.0925
 9049W        W24180   5.416  10.241   4.522 -0.1678 -0.0045  0.4286
 9050W        W24181  17.374   8.884  11.849 -0.0035 -0.2481 -0.3181
 9051W        W24182   6.012   8.899   3.664 -0.0803 -0.1135 -0.0592
 9052W        W24183  15.784   8.498  10.132 -0.0946 -0.0776 -0.4183
 9053W        W24184   5.334  16.031  15.115 -0.1056 -0.1145 -0.1081
 9054W        W24185  14.032   1.580   4.438  0.0005 -0.0698  0.1421
 9055W        W24186  13.325   1.872  10.864  0.1817 -0.1367  0.0433
 9056W        W24187   1.343   4.675   1.330  0.0861 -0.0239  0.1694
 9057W        W24188  12.073   0.226  11.929 -0.4406 -0.2947 -0.0319
 9058W        W24189   7.174  18.060  10.815 -0.1081  0.0526  0.1406
 9059W        W24190  17.658  15.419  12.526 -0.0328  0.2363  0.0554
 9060W        W24191   7.495  13.228  13.406 -0.1310  0.3809  0.3456
 9061W        W24192  15.999  14.745  10.084  0.1084 -0.0113 -0.2624
 9062W        W24193  14.707  16.516  10.323  0.0117  0.0438  0.0915
 9063W        W24194  11.724   4.642  10.511 -0.0819 -0.4716  0.1508
 9064W        W24195   9.574   0.403   2.252 -0.1279  0.3601  0.0780
 9065W        W24196   4.734   8.200  10.698 -0.0853 -0.1243 -0.0157
 9066W        W24197   6.322   9.703   0.125  0.2654 -0.4300 -0.0902
 9067W        W24198   9.899   6.439  11.406  0.0723  0.1728  0.0713
 9068W        W24199  12.155   0.497  11.499 -0.1606  0.0214 -0.2828
 9069W        W24200  15.472   5.177   3.744  0.0962 -0.2514  0.0927
 9070W        W24201   5.179   3.301   4.301 -0.2772 -0.0009 -0.3183
 9071W        W24202   9.801  11.866   0.400 -0.2819  0.2747 -0.0982
 9072W        W24203   9.343  13.434  10.684  0.0345  0.0355  0.1155
 9073W        W24204  12.722   3.240   0.911  0.1643  0.1688  0.1588
 9074W        W24205   6.306  12.856  13.651 -0.1409  0.3879  0.0095
 9075W        W24206  16.671   2.876  10.835  0.2508  0.0964  0.1665
 9076W        W24207  14.682  15.546  13.809 -0.0071  0.1051 -0.4611
 9077W        W24208   0.567   9.477  13.268 -0.0517  0.2912 -0.0622
 9078W        W24209   4.699   5.710   2.465 -0.2623 -0.2569 -0.1216
 9079W        W24210   3.596   9.650  14.378 -0.2691  0.0178 -0.0182
 9080W        W24211   1.883   2.881   4.360  0.0366  0.2523  0.2822
 9081W        W24212  17.878   9.208   2.411  0.1285  0.0761  0.1984
 9082W        W24213   9.536  11.249  10.935  0.2562  0.1982  0.1426
 9083W        W24214   7.479  18.080   2.240 -0.3974  0.1659 -0.0189
 9084W        W24215  18.263   5.298   4.973  0.1569  0.2362 -0.0453
 9085W        W24216   5.553   9.524  14.852 -0.2127 -0.3535 -0.0478
 9086W        W24217   6.533   9.292   2.271  0.2090 -0.3148  0.0805
 9087W        W24218  17.403   3.582  10.435 -0.2158  0.1470 -0.2443
 9088W        W24219   0.238  18.242  14.164 -0.1131 -0.2326 -0.1653
 9089W        W24220   4.322  16.238  15.313 -0.1226 -0.2072  0.1062
 9090W        W24221  13.066   9.442  11.564  0.3345  0.1890 -0.0393
 9091W        W24222  18.184  13.843  15.737 -0.2057  0.2812 -0.3098
 9092W        W24223   3.323   1.506  11.805  0.1376 -0.0291  0.1036
 9093W        W24224   7.874  15.185  14.834 -0.1325  0.0324  0.0815
 9094W        W24225   0.331   4.938  10.697  0.2248  0.0696 -0.3972
 9095W        W24226   7.014  14.022   1.017  0.2174  0.0266 -0.0284
 9096W        W24227   2.145  15.210   5.521  0.0192  0.0132  0.0316
 9097W        W24228  16.422  10.134  10.220  0.1735 -0.1291 -0.3215
 9098W        W24229   6.183   4.147   1.292 -0.0953  0.2311 -0.3078
 9099W        W24230   5.034  14.090  13.870  0.1062  0.2140 -0.0824
 9100W        W24231   6.637   7.522   1.706  0.1048  0.0198  0.0026
 9101W        W24232   1.261   8.977   2.659 -0.0518 -0.2898  0.2263
 9102W        W24233   5.171   6.890  14.084  0.0102  0.2236  0.1055
 9103W        W24234   4.644  15.547  11.481  0.0727 -0.2064 -0.1235
 9104W        W24235  12.508  15.613   3.092 -0.1798 -0.2461 -0.2025
 9105W        W24236   2.649  15.345   3.613 -0.0044  0.0405  0.1271
 9106W        W24237   2.925  11.661  14.787  0.0104 -0.1124 -0.2455
 9107W        W24238   3.110  10.623   0.508 -0.2988 -0.1465 -0.3016
 9108W        W24239  14.189   1.178   0.686  0.0562 -0.2152 -0.0967
 9109W        W24240   3.249  10.976  13.373 -0.0707  0.2065 -0.1075
 9110W        W24241   1.904   2.855  15.281  0.2259 -0.1985  0.0223
 9111W        W24242   8.019   6.065   3.852 -0.1658  0.1844 -0.1704
 9112W        W24243  11.262  16.663  14.069 -0.1065 -0.1329  0.1667
 9113W        W24244   1.719   8.031  12.396  0.3835  0.0536  0.0674
 9114W        W24245   6.257   9.538  10.216  0.0957 -0.2727 -0.2652
 9115W        W24246  15.019   0.542  15.794 -0.0446 -0.4156 -0.0147
 9116W        W24247  18.634   8.522  11.506 -0.1892  0.1200 -0.1428
 9117W        W24248   0.585  13.258   0.007  0.4153  0.1194  0.1384
 9118W        W24249   8.872   6.914   9.898  0.1327 -0.0861 -0.1811
 9119W        W24250  13.612  13.044   1.993  0.1435  0.0011 -0.3648
 9120W        W24251  15.754   6.704   1.759 -0.1358 -0.2068  0.0649
 9121W        W24252  17.189  10.618   4.837  0.3288 -0.1032  0.2536
 9122W        W24253   6.202   6.841  12.144 -0.2308  0.1920 -0.0317
 9123W        W24254  15.408  17.465  13.718  0.2299 -0.1291 -0.0244
 9124W        W24255  11.124   2.873  13.959  0.2557  0.0838  0.0445
 9125W        W24256  11.098  12.979   2.282  0.1446 -0.0673 -0.0556
 9126W        W24257   3.459   0.644   5.216  0.2015 -0.1180 -0.0593
 9127W        W24258  16.194  16.697  13.213  0.5577 -0.1989  0.2643
 9128W        W24259   6.021  12.925  15.760 -0.0596 -0.3271 -0.1143
 9129W        W24260   8.862   8.849   3.778 -0.0604  0.0449  0.2030
 9130W        W24261   5.027  13.261  12.455 -0.0561 -0.3410  0.0564
 9131W        W24262  10.985  14.266  15.105  0.0381 -0.1487 -0.1515
 9132W        W24263   4.024   8.893  11.771  0.0695 -0.0391 -0.4560
 9133W        W24264  13.752  16.310  15.443 -0.0051 -0.2603  0.1466
 9134W        W24265  15.676   9.504  12.220 -0.0285 -0.0030  0.2092
 9135W        W24266   7.843   3.630   0.839  0.3707 -0.0623  0.0024
 9136W        W24267  14.453   1.511   3.853  0.2117  0.4226 -0.0358
 9137W        W24268  14.383   2.864  14.896 -0.1059 -0.0643  0.0067
 9138W        W24269  15.453   8.714   2.586  0.0350 -0.2697 -0.0035
 9139W        W24270  15.699  12.703  12.740 -0.0517  0.1236 -0.3092
 9140W        W24271   3.355   9.655  10.702  0.0774 -0.4067 -0.3338
 9141W        W24272  15.719   4.450  14.946 -0.3077  0.2617  0.0357
 9142W        W24273   4.527   6.923   4.286 -0.3943 -0.2626  0.1693
 9143W        W24274   4.802   0.070   0.733 -0.3371 -0.2142 -0.0036
 9144W        W24275   2.712   4.955   2.233 -0.1411  0.0122  0.0332
 9145W        W24276  17.472  10.514  14.982 -0.3884  0.0397 -0.2243
 9146W        W24277   0.434  18.253   1.440  0.0692 -0.2268  0.1331
 9147W        W24278  10.374  15.612  14.296 -0.2492  0.1910  0.2954
 9148W        W24279  11.796  14.106  10.386  0.0565  0.0030 -0.1031
 9149W        W24280   0.825   3.297  12.083 -0.0653 -0.0616 -0.1353
 9150W        W24281  18.636   6.957   2.905 -0.1330 -0.0421 -0.1945
 9151W        W24282  16.008   8.163   4.228 -0.0930 -0.0991 -0.1954
 9152W        W24283   6.679  12.854  12.630 -0.2664  0.2701  0.1347
 9153W        W24284   4.747  14.539   0.353 -0.1916  0.0579  0.0986
 9154W        W24285  11.352   0.823   4.291  0.1708 -0.0524  0.0775
 9155W        W24286   7.941  15.049  10.819 -0.1498 -0.0379 -0.1012
 9156W        W24287   1.014  11.294  12.351 -0.3308  0.0551 -0.1710
 9157W        W24288   5.610  17.424   2.366 -0.3006  0.0765 -0.0841
 9158W        W24289   0.653   7.180   3.743 -0.2731  0.3002 -0.2881
 9159W        W24290  13.215  14.955  13.781 -0.2975  0.0212  0.1794
 9160W        W24291   7.410  17.040  14.236 -0.2177  0.0937 -0.2925
 9161W        W24292  15.790   9.440  12.886 -0.0718 -0.0759 -0.2297
 9162W        W24293  16.043  10.585   1.151 -0.3238 -0.1055 -0.1260
 9163W        W24294   8.733  17.878  14.251  0.4507  0.1132 -0.0060
 9164W        W24295  14.051   6.295   4.952 -0.0572  0.1522 -0.3186
 9165W        W24296  17.894  10.277  13.871  0.2771 -0.0479  0.0436
 9166W        W24297  13.583   1.822   4.563  0.1574  0.1057  0.0386
 9167W        W24298   6.489   1.439  13.755  0.0136  0.4087  0.2548
 9168W        W24299   2.635  17.026  12.383  0.0384  0.2182  0.0770
 9169W        W24300   1.608   6.479  14.098 -0.1327 -0.1608 -0.0942
 9170W        W24301   3.482   8.182   5.372 -0.1400  0.0382 -0.1272
 9171W        W24302  18.500   0.071   3.105 -0.1050 -0.1166  0.1875
 9172W        W24303  18.517  12.411   1.579 -0.4410  0.1201 -0.1290
 9173W        W24304  12.515   7.134   9.684  0.0394 -0.0182  0.1011
 9174W        W24305  14.615   9.670   2.579  0.0378  0.0470  0.2116
 9175W        W24306   7.574   5.679   1.607 -0.3724  0.0659 -0.1425
 9176W        W24307  18.221  10.129  14.171  0.2331 -0.2665 -0.0236
 9177W        W24308   9.469   0.619   4.939 -0.1561 -0.0451  0.0628
 9178W        W24309   5.261   6.751  13.268  0.1592 -0.0693  0.4173
 9179W        W24310   4.862  11.155   2.562  0.2005  0.0043  0.0629
 9180W        W24311   3.418   4.123  13.858  0.0234 -0.3343 -0.0499
 9181W        W24312   5.991   3.405   1.784 -0.4228  0.0761  0.1634
 9182W        W24313  17.316   3.016   5.480  0.0039 -0.1022 -0.3107
 9183W        W24314  16.899  12.214   2.990  0.1194  0.1849 -0.4027
 9184W        W24315   5.163  12.133  10.633  0.1891 -0.2529  0.1551
 9185W        W24316   1.676   2.043   0.283  0.0700 -0.1071  0.1155
 9186W        W24317   7.713  11.747  14.543 -0.0022  0.0710 -0.4022
 9187W        W24318  13.571  12.241   5.168 -0.3516 -0.0788 -0.0044
 9188W        W24319   2.777   4.280  13.703 -0.1110  0.2269  0.1136
 9189W        W24320   6.192   7.520   4.423  0.0560 -0.1618  0.1209
 9190W        W24321   3.714   2.417  10.210 -0.1548  0.0519 -0.0032
 9191W        W24322   2.878  17.467  13.199  0.2184 -0.0999 -0.0465
 9192W        W24323   3.720   8.836  15.082 -0.0832 -0.1672 -0.0501
 9193W        W24324   5.974   9.134   1.194 -0.1181 -0.3371  0.1550
 9194W        W24325   0.158  15.338   4.983  0.1303  0.2081 -0.1636
 9195W        W24326  12.570  10.606   2.513 -0.3587 -0.0791 -0.0740
 9196W        W24327   9.987   6.001  12.425  0.0319  0.0031 -0.1963
 9197W        W24328   7.133   3.282  13.451 -0.2129  0.1279 -0.4130
 9198W        W24329  11.858  18.617  13.754 -0.0005  0.0852 -0.1974
 9199W        W24330  14.468   5.175   0.364 -0.2811 -0.1309  0.0708
 9200W        W24331  17.140   8.546   3.987  0.0319 -0.2324 -0.0039
 9201W        W24332   9.947  13.313   1.492  0.3634 -0.3635 -0.0541
 9202W        W24333  16.343   3.370  13.665  0.1551  0.1518 -0.0001
 9203W        W24334   9.574  16.278   0.785 -0.1801  0.0773  0.0185
 9204W        W24335   9.105  17.727   1.729 -0.2491  0.0967  0.0862
 9205W        W24336   4.699   8.456   4.117 -0.1357  0.1700 -0.1269
 9206W        W24337   0.773   2.796   1.910 -0.3944  0.0560  0.0965
 9207W        W24338  15.990  13.421  12.232  0.1054  0.0454 -0.4091
 9208W        W24339   5.007  11.422   1.022 -0.0455 -0.0508 -0.0823
 9209W        W24340  16.343  17.021   0.980 -0.0627 -0.0502 -0.1903
 9210W        W24341  15.402  14.354   1.577  0.0311 -0.0798  0.1752
 9211W        W24342   3.138   8.923  13.039  0.0013  0.0810  0.0599
 9212W        W24343   8.526   7.304   9.457 -0.1831  0.2263 -0.2007
 9213W        W24344   9.224   5.850   5.160  0.3724  0.0255  0.1150
 9214W        W24345   8.341   2.679   4.953  0.0285  0.0745  0.3651
 9215W        W24346   7.993  17.001  12.438  0.0272 -0.0519  0.0838
 9216W        W24347   7.833  17.645  15.606  0.3640 -0.1421  0.0145
 9217W        W24348  11.504  17.757  14.848 -0.1370 -0.2020  0.0344
 9218W        W24349   8.258   8.512  14.645  0.1186 -0.1702  0.1134
 9219W        W24350  13.479  13.383  11.757 -0.0770  0.0221 -0.1119
 9220W        W24351   2.399  15.305  11.802  0.0243  0.0649  0.0386
 9221W        W24352   3.217   2.396  13.735  0.1317  0.0498 -0.1247
 9222W        W24353   3.312  12.106   1.930 -0.0838 -0.0048  0.3043
 9223W        W24354  13.010   4.657   2.711 -0.1118 -0.0434  0.1607
 9224W        W24355  17.791  15.921   0.966  0.0323 -0.0411  0.0211
 9225W        W24356  17.627  17.324  13.781 -0.1189  0.0813  0.0854
 9226W        W24357   7.377   5.800   4.482  0.1389  0.1073  0.1456
 9227W        W24358   4.837   6.885   5.319 -0.2689 -0.1743  0.3060
 9228W        W24359   7.018   0.729  14.209 -0.2367 -0.0477 -0.1773
 9229W        W24360  14.075  16.192   4.656  0.3537 -0.1380  0.1091
 9230W        W24361  17.941   9.667   1.730  0.0171  0.1341 -0.0540
 9231W        W24362  15.661   3.360   2.184 -0.0670  0.4282 -0.1424
 9232W        W24363  12.624   7.531  14.417  0.1106 -0.0711 -0.1840
 9233W        W24364  12.489   7.333  10.129 -0.1106 -0.1638  0.4370
 9234W        W24365   8.830   5.377  14.626 -0.1790 -0.2171  0.0515
 9235W        W24366   6.154   1.211   4.842  0.1556  0.1131 -0.0150
 9236W        W24367   7.026   3.565   3.772 -0.1652  0.0615  0.0201
 9237W        W24368   9.280  15.637  13.257 -0.0053  0.0591  0.1853
 9238W        W24369  16.499  15.590  11.313  0.0047 -0.2763  0.3174
 9239W        W24370   7.982   0.669  13.190 -0.3669 -0.1000  0.2880
 9240W        W24371  15.381  13.722  10.893 -0.2280 -0.0966 -0.1249
 9241W        W24372   1.348   0.987  15.187  0.0848  0.1370 -0.4518
 9242W        W24373   7.241  17.448   3.498 -0.2856  0.2888  0.0518
 9243W        W24374  12.815  11.275  15.048 -0.0300 -0.0634  0.0002
 9244W        W24375   6.910  11.622   4.747 -0.0123 -0.1270  0.0222
 9245W        W24376  16.393  13.166  10.941 -0.4860 -0.2711  0.0656
 9246W        W24377   8.687  10.020   3.511  0.2741 -0.5668 -0.2262
 9247W        W24378   2.767   3.453  15.438  0.3480  0.0036  0.0265
 9248W        W24379   5.786   2.886   2.498  0.1344 -0.1610 -0.0132
 9249W        W24380  10.312   9.228  12.969 -0.1305  0.3360  0.0665
 9250W        W24381  11.807   4.273   4.718  0.3949  0.4048  0.4102
 9251W        W24382   2.151   1.868   0.395 -0.0437 -0.0559 -0.0877
 9252W        W24383  11.632   6.638  11.512 -0.2403 -0.0521  0.4399
 9253W        W24384  11.389   5.748  10.172 -0.0266  0.1831  0.2481
 9254W        W24385  12.979   1.203  13.736 -0.0981  0.2533  0.2023
 9255W        W24386  14.529   7.248  14.799 -0.0836 -0.0384 -0.0880
 9256W        W24387   1.705  18.269  11.878  0.2710 -0.0235 -0.0135
 9257W        W24388   8.151  11.343  11.203  0.1186 -0.1684  0.3320
 9258W        W24389  12.419   0.029  11.633 -0.0776  0.1098 -0.0172
 9259W        W24390   9.890   6.970  11.414  0.0228 -0.1477 -0.2426
 9260W        W24391   6.333  15.919   2.261  0.2385  0.0918  0.4010
 9261W        W24392   4.879   2.231   2.365  0.2587 -0.0015 -0.2582
 9262W        W24393  15.970  15.320   4.392 -0.3667  0.1545 -0.3371
 9263W        W24394   9.272   9.151   9.837  0.0303 -0.0028 -0.2680
 9264W        W24395   6.438   0.102   2.401  0.0956 -0.0360  0.2754
 9265W        W24396  14.042  12.900   4.990  0.2212 -0.0428  0.2162
 9266W        W24397   6.826   1.363  14.397  0.1679  0.0111 -0.0703
 9267W        W24398   8.986   0.436  11.233  0.1428  0.4041  0.0086
 9268W        W24399  11.389  12.474  14.440 -0.3493 -0.0229  0.1008
 9269W        W24400  11.217   4.808   0.135 -0.2753 -0.0499  0.0360
 9270W        W24401   1.495  11.090  13.303 -0.0193 -0.2289  0.5587
 9271W        W24402   6.495  15.316   1.495 -0.0235 -0.0445  0.3395
 9272W        W24403   1.628   1.130   3.083 -0.2331  0.2356  0.0031
 9273W        W24404  10.491  15.761   4.911  0.2866 -0.1061  0.1165
 9274W        W24405   1.583  15.089   4.236 -0.2519  0.2477  0.0400
 9275W        W24406   1.505   2.882  12.824 -0.1000 -0.2571 -0.1670
 9276W        W24407   4.456  18.452  13.321 -0.0410  0.4598  0.2031
 9277W        W24408  13.625   3.266  13.592 -0.0531 -0.0903  0.1448
 9278W        W24409  17.449  13.795   2.600 -0.0233 -0.0755  0.1600
 9279W        W24410   1.111  10.787   3.135 -0.1947  0.1255  0.2354
 9280W        W24411   6.987   3.994   3.043 -0.0411 -0.2557 -0.1057
 9281W        W24412   0.346  10.709   5.730  0.0942 -0.0984 -0.0748
 9282W        W24413   6.256   5.195  13.222 -0.1107 -0.2038  0.0734
 9283W        W24414  18.195   0.647   4.738  0.0511 -0.0928 -0.1413
 9284W        W24415  10.097   0.944  15.203 -0.1386 -0.2582 -0.1729
 9285W        W24416  18.725  12.672   3.869 -0.3061 -0.1056  0.0098
 9286W        W24417  11.813   2.201  12.825  0.0215 -0.1438 -0.1708
 9287W        W24418  13.305  10.370  10.473 -0.0354 -0.1616  0.0076
 9288W        W24419  17.862   5.709   1.269  0.2868 -0.1261 -0.4791
 9289W        W24420   5.166   9.167   1.846 -0.2701 -0.2713 -0.3207
 9290W        W24421  14.527  17.391   0.833 -0.2856  0.0691 -0.2930
 9291W        W24422  12.637   4.160  13.741  0.2174  0.1258 -0.1897
 9292W        W24423   9.357   7.842   4.236  0.0208  0.0821 -0.1198
 9293W        W24424   1.030  15.097   1.221  0.2382  0.0422 -0.0851
 9294W        W24425   7.656   8.283   4.467 -0.2091 -0.0997 -0.0417
 9295W        W24426   8.734  17.977   0.462  0.1954 -0.0982  0.0655
 9296W        W24427   5.487   6.175   0.495  0.3982 -0.0827  0.0420
 9297W        W24428  17.258  10.529   1.835  0.2180  0.1046 -0.1567
 9298W        W24429  13.521  15.883  13.235  0.3279 -0.1488 -0.1516
 9299W        W24430   4.795   7.027  10.696 -0.4225  0.4509 -0.2041
 9300W        W24431   6.893   0.047  11.391  0.0318 -0.0367 -0.3424
 9301W        W24432   0.875  11.720   0.707 -0.1477  0.2538  0.3229
 9302W        W24433  12.627   1.377  14.075  0.1094 -0.0855 -0.0894
 9303W        W24434  18.498  14.572   5.596  0.0709 -0.2002  0.1464
 9304W        W24435  13.163  10.107  13.435 -0.1985  0.1090 -0.0978
 9305W        W24436   8.505  10.580  11.826  0.2641 -0.0536 -0.0936
 9306W        W24437  18.672  11.828   4.623  0.0665 -0.0540 -0.4366
 9307W        W24438  11.119  10.505   4.070  0.2626  0.0613 -0.1582
 9308W        W24439   9.609   1.368  14.074  0.0911  0.1278  0.2811
 9309W        W24440   7.453  12.458   5.023  0.4680  0.1664 -0.2254
 9310W        W24441  18.585   8.109   4.426 -0.4334  0.0825  0.0208
 9311W        W24442   6.665   2.723   4.313  0.0770  0.1008 -0.0747
 9312W        W24443  14.272  17.736   2.374  0.1239  0.3484 -0.0694
 9313W        W24444  10.824   2.215   4.525 -0.0665  0.0472 -0.0131
 9314W        W24445  17.963  11.981   3.018 -0.0011 -0.1485 -0.0161
 9315W        W24446   7.785  14.621  14.885  0.1813  0.0296 -0.0812
 9316W        W24447   1.821   5.307   2.773 -0.2132  0.1969 -0.0827
 9317W        W24448   3.215  11.461  11.244 -0.0931 -0.2184 -0.2186
 9318W        W24449   6.133   6.315   1.207 -0.3167 -0.1272 -0.0315
 9319W        W24450   5.052  12.135  13.480 -0.0111  0.1657 -0.0440
 9320W        W24451   3.696   3.380  13.893 -0.2742  0.0399  0.3632
 9321W        W24452   3.901   3.828  11.500 -0.1915  0.0245  0.4083
 9322W        W24453  17.772  16.098  10.929 -0.3329  0.1803 -0.0436
 9323W        W24454   8.327   7.984  15.042 -0.3744 -0.2712 -0.0364
 9324W        W24455   5.458   8.128   0.223 -0.1444 -0.1588  0.0842
 9325W        W24456  16.489  10.886  15.562  0.0689 -0.0122 -0.0864
 9326W        W24457  17.110   0.600   3.329 -0.1668  0.0596 -0.0900
 9327W        W24458   1.009  11.668  11.557 -0.1499 -0.4050  0.0002
 9328W        W24459  17.844   8.699   3.128  0.0804  0.1075 -0.0344
 9329W        W24460  13.764   5.877  10.697 -0.0459 -0.0298 -0.0654
 9330W        W24461  18.515  18.140  15.510 -0.0995  0.2113 -0.2192
 9331W        W24462   7.519   6.534  14.018 -0.0413 -0.3484 -0.1549
 9332W        W24463  14.517  14.531   1.830  0.2205 -0.1433  0.0661
 9333W        W24464   0.588  14.679  11.885 -0.2879  0.0913  0.3272
 9334W        W24465   6.310   7.918   3.477  0.1839 -0.2882  0.0964
 9335W        W24466  13.731  12.471  10.157 -0.1088  0.2111  0.3446
 9336W        W24467   6.570   1.429  15.066  0.0205  0.2263  0.3628
 9337W        W24468  11.658   8.648  14.403 -0.0830 -0.0525 -0.0340
 9338W        W24469   2.657   9.762  14.867  0.2745 -0.0555 -0.3952
 9339W        W24470   2.006   7.229  10.216  0.4059  0.2213 -0.1587
 9340W        W24471   0.359   0.314   4.677 -0.1410  0.5155 -0.2762
 9341W        W24472  15.254  18.088  15.331  0.1356 -0.0306  0.0811
 9342W        W24473  13.162   9.277   2.105  0.0161  0.2438  0.0011
 9343W        W24474   7.674  15.804   5.230  0.2363 -0.0420 -0.0712
 9344W        W24475  12.320  14.860   2.377  0.0972  0.2754  0.3810
 9345W        W24476   3.448   6.355   2.983  0.2764 -0.0376 -0.1189
 9346W        W24477   5.425   1.809   4.132  0.1358  0.1417 -0.2314
 9347W        W24478   9.696   7.937   2.873  0.0583 -0.1226 -0.1779
 9348W        W24479   1.031   2.606   0.251  0.0129 -0.1011  0.0370
 9349W        W24480   4.928   1.646   4.380 -0.3396 -0.2946 -0.1917
 9350W        W24481   3.110  10.041  11.673  0.1232  0.1480 -0.0827
 9351W        W24482  17.157   1.064   1.358  0.2967  0.1185 -0.2251
 9352W        W24483   1.264  12.758   5.397  0.1981 -0.2057  0.0580
 9353W        W24484   0.840   1.669   0.634  0.1265  0.0079 -0.0113
 9354W        W24485   2.652  11.281   9.942 -0.1819  0.0213 -0.2483
 9355W        W24486   5.389  18.007  12.353 -0.0801  0.1958 -0.1851
 9356W        W24487  10.157  14.578  14.839 -0.1629 -0.0184 -0.0207
 9357W        W24488   1.883   5.672  14.574  0.0821  0.2070 -0.0845
 9358W        W24489   3.640  10.841  13.020 -0.1795 -0.0504 -0.1021
 9359W        W24490   3.504  16.769   3.882 -0.0836 -0.2446  0.1872
 9360W        W24491  13.911   6.213   4.393  0.3316 -0.0773  0.1432
 9361W        W24492   2.861  11.600   5.347  0.1691  0.0041  0.1160
 9362W        W24493  17.222   6.172  12.814  0.3331 -0.1772  0.0871
 9363W        W24494   4.144   7.991  12.313  0.1006 -0.1841  0.0408
 9364W        W24495  16.504  17.526   3.983  0.0763  0.0382 -0.1566
 9365W        W24496   1.094   6.849   4.978 -0.2825 -0.1972 -0.5658
 9366W        W24497  18.005  16.880  13.523  0.0568 -0.3720  0.1839
 9367W        W24498   6.987  10.363   0.385 -0.0862  0.1357  0.2414
 9368W        W24499  11.152   3.694  13.868 -0.0478  0.1635 -0.0662
 9369W        W24500  14.589  14.820   2.966 -0.1365 -0.4480  0.1230
 9370W        W24501  14.365   7.748   1.709 -0.0513 -0.3245  0.4366
 9371W        W24502   2.151  11.603  14.010  0.1167 -0.0491  0.2141
 9372W        W24503   4.176   9.483  10.411  0.3604 -0.3657 -0.0054
 9373W        W24504  17.834   6.780   0.668  0.1165  0.2479 -0.1799
 9374W        W24505  18.074  15.975   2.788 -0.1730 -0.1749 -0.2617
 9375W        W24506   4.829  10.568  14.280  0.0050 -0.0939  0.2272
 9376W        W24507   7.605   2.153   0.890 -0.2513  0.1263  0.1870
 9377W        W24508   1.974   1.721  11.668  0.2039 -0.3227  0.3734
 9378W        W24509   1.936   8.073   3.000 -0.3622  0.1981  0.0084
 9379W        W24510  13.224  14.306   1.738  0.1394  0.5239  0.1625
 9380W        W24511   7.721  12.615   2.798  0.1686  0.0400  0.4523
 9381W        W24512   3.520   3.537   4.812  0.1019  0.0610 -0.3279
 9382W        W24513  13.239  16.031  12.338 -0.0354 -0.1022 -0.0217
 9383W        W24514  15.989   5.544   5.173  0.0607 -0.1752 -0.2198
 9384W        W24515   6.043  18.174   4.811 -0.1236  0.0583  0.0307
 9385W        W24516   4.432   2.377  12.865  0.1491  0.1585 -0.1180
 9386W        W24517   2.145  18.583   0.336  0.0413  0.0243  0.2394
 9387W        W24518  12.354   5.799   1.288 -0.0362  0.0876 -0.0151
 9388W        W24519   7.131   7.117   3.752  0.3677  0.1037  0.0880
 9389W        W24520   9.352  14.317  13.828 -0.0535 -0.1947  0.0474
 9390W        W24521  17.882  14.401  11.599  0.0502 -0.2243  0.0394
 9391W        W24522   9.079   9.643   9.989  0.0308  0.0667  0.0180
 9392W        W24523  11.779  13.920  14.052  0.2247  0.2071  0.1609
 9393W        W24524  17.570  10.854   3.803  0.0877 -0.3044 -0.0711
 9394W        W24525   6.490   3.720   2.402 -0.1980  0.0270 -0.0269
 9395W        W24526   2.946   9.906   0.852  0.2950  0.1619 -0.1697
 9396W        W24527   3.400  16.229  10.851 -0.2098 -0.0314 -0.3544
 9397W        W24528   8.281   0.132  11.891  0.2997 -0.0990 -0.0833
 9398W        W24529  16.422   0.576  11.673 -0.1408  0.0363 -0.3031
 9399W        W24530  10.692  18.726  13.289 -0.1000 -0.0189  0.0190
 9400W        W24531  12.015  15.577   0.105 -0.0432  0.0023 -0.1122
 9401W        W24532   4.783  17.360   0.422  0.0987  0.1934  0.0394
 9402W        W24533  12.243   5.543   3.043 -0.3160  0.0201 -0.1778
 9403W        W24534   5.503  14.051   3.789 -0.0677 -0.1423 -0.0275
 9404W        W24535   7.679   8.006   2.533 -0.1273  0.2790  0.0480
 9405W        W24536   0.575   5.366   1.800 -0.1453  0.1650  0.0253
 9406W        W24537  17.183  15.786  13.196  0.3601  0.1044 -0.0926
 9407W        W24538   8.318  13.372   4.476  0.0377 -0.0811  0.3344
 9408W        W24539   5.689   1.549  12.214  0.2795 -0.0232  0.1592
 9409W        W24540  12.562  17.452   0.852 -0.3191 -0.2784 -0.1341
 9410W        W24541  16.779  11.948  12.544 -0.3805  0.1185 -0.1879
 9411W        W24542   5.427   0.282   5.282 -0.2262  0.0395 -0.2045
 9412W        W24543  12.884  16.316  13.054  0.2164 -0.0219  0.3434
 9413W        W24544   4.827  13.163   3.091 -0.3179 -0.1949  0.2841
 9414W        W24545   0.924   6.382  11.024 -0.1383  0.1595  0.1308
 9415W        W24546  15.082   9.011  12.099  0.0528 -0.0824  0.1675
 9416W        W24547  12.032   5.243   5.252 -0.0212 -0.2213 -0.1047
 9417W        W24548  10.280   6.430  14.494 -0.2186  0.1304 -0.1778
 9418W        W24549   2.410  16.173  12.809  0.0795  0.0973  0.0060
 9419W        W24550  12.304   9.146   4.633 -0.0340  0.0672 -0.1768
 9420W        W24551  12.721  11.141   3.427  0.1866  0.3703 -0.1402
 9421W        W24552   9.566  11.476   0.812  0.0459 -0.5433  0.0319
 9422W        W24553   2.278  13.437  14.730 -0.3867 -0.1020 -0.0869
 9423W        W24554   0.744   4.934  14.657 -0.0043  0.1630 -0.0341
 9424W        W24555   5.780   5.291   0.267  0.3183  0.0952  0.0228
 9425W        W24556  16.317  16.830   4.243  0.0367 -0.1976 -0.2101
 9426W        W24557   4.704  17.859  14.518 -0.0596  0.1422  0.0703
 9427W        W24558  14.173  17.218   0.527 -0.0787  0.2401 -0.2158
 9428W        W24559   8.305   6.265   2.265 -0.1156  0.1085 -0.0812
 9429W        W24560   3.418  16.662   5.179  0.0379  0.3191  0.1041
 9430W        W24561   8.749  17.503   0.730  0.1281  0.0718  0.0612
 9431W        W24562   8.491   6.503  11.730  0.1990  0.2814  0.3773
 9432W        W24563   4.937   2.786   4.135 -0.0839 -0.2951  0.0979
 9433W        W24564  13.285  17.655  14.943 -0.0369  0.0815  0.0060
 9434W        W24565   9.400   9.071   1.380  0.0497  0.1836  0.3323
 9435W        W24566   6.519  12.183  15.064  0.3103  0.0573 -0.1334
 9436W        W24567   7.833   0.584   3.555 -0.1925  0.1790  0.0179
 9437W        W24568  14.512   7.697   4.256 -0.1304  0.0163 -0.0226
 9438W        W24569  18.395   2.671  11.994 -0.0088  0.2916  0.1330
 9439W        W24570  10.992   1.156   4.346  0.0332 -0.2459  0.3476
 9440W        W24571   7.906   0.566  15.432  0.0267  0.2038 -0.0492
 9441W        W24572   0.898   4.500  14.429 -0.3100 -0.2966 -0.2442
 9442W        W24573   0.330   8.704   2.367  0.4144  0.4077  0.2244
 9443W        W24574  17.009  14.000  11.562  0.0327  0.2008 -0.0158
 9444W        W24575   1.626   6.333   0.072  0.0641  0.2489 -0.1809
 9445W        W24576   2.137  14.403  14.922 -0.0981 -0.0672  0.1381
 9446W        W24577  15.938   5.700  14.033 -0.5321 -0.0093  0.2218
 9447W        W24578   3.912  13.303   2.470 -0.1203  0.1857 -0.0388
 9448W        W24579   5.482  15.594  15.367 -0.2327 -0.2484 -0.2439
 9449W        W24580   1.276  14.088   5.612 -0.0026 -0.0400  0.2557
 9450W        W24581   5.043   9.841   0.180  0.1025 -0.1417 -0.3685
 9451W        W24582  16.663   4.124  15.231 -0.0304  0.1738  0.0427
 9452W        W24583   1.071  13.391  15.719 -0.1771  0.3974  0.0969
 9453W        W24584   5.155  11.862  13.897 -0.0219 -0.2135  0.1298
 9454W        W24585  17.217   9.211  12.980  0.0528 -0.0705 -0.0937
 9455W        W24586   3.793  13.433   1.065 -0.0372 -0.0311  0.4720
 9456W        W24587  13.787  13.442   1.575  0.0004 -0.0537 -0.0100
 9457W        W24588   3.771   6.205  12.494 -0.3481  0.2356  0.2082
 9458W        W24589   4.714   6.164   1.035 -0.1986 -0.1776  0.1993
 9459W        W24590   5.500  10.008  10.679 -0.2299 -0.0128  0.0746
 9460W        W24591   7.684  18.045  10.948  0.1805  0.0349 -0.1039
 9461W        W24592  11.101   4.981  14.389 -0.2423 -0.1415 -0.4007
 9462W        W24593   0.658  15.642   5.415  0.3508 -0.3017 -0.1515
 9463W        W24594   8.717   1.916  12.014 -0.1196 -0.2134  0.0081
 9464W        W24595   8.751  11.628   4.642  0.0141  0.1236 -0.0146
 9465W        W24596  12.755  11.532   3.797 -0.2898  0.1025 -0.1438
 9466W        W24597  13.777   2.717   0.890  0.0179  0.1008 -0.3366
 9467W        W24598  13.497  15.758   2.923  0.3778 -0.2151 -0.3603
 9468W        W24599   1.284   9.910   5.120  0.0957 -0.0039 -0.1853
 9469W        W24600   1.359   0.300   5.177 -0.4922 -0.3109 -0.0766
 9470W        W24601   8.118  11.214  12.338 -0.1535  0.0968  0.4669
 9471W        W24602   2.544  12.053  15.800  0.3721 -0.0330 -0.2460
 9472W        W24603   1.899  11.724   3.755  0.2015  0.3897  0.1598
 9473W        W24604  14.379  14.440   4.488 -0.3034  0.0725  0.1377
 9474W        W24605   6.563  15.054   1.978 -0.0414  0.2327  0.0447
 9475W        W24606   3.843  15.279   4.642 -0.2965 -0.0294  0.0204
 9476W        W24607   4.880  10.473   4.402 -0.1686 -0.0426 -0.1110
 9477W        W24608   8.195   9.323   3.854 -0.3174  0.3293 -0.3658
 9478W        W24609   7.879   1.050   1.462 -0.0463 -0.0059 -0.2237
 9479W        W24610  14.288   9.528   3.787 -0.0309  0.1126 -0.0674
 9480W        W24611  16.801   7.359  15.578 -0.2664  0.3346 -0.2271
 9481W        W24612  12.230   8.530  10.603 -0.0755 -0.1549  0.0334
 9482W        W24613  11.570   5.494  12.805  0.1559  0.1361 -0.0874
 9483W        W24614   0.379   1.497  11.965  0.0669  0.0144 -0.3515
 9484W        W24615   3.103  15.082  14.904  0.1852 -0.0946 -0.2040
 9485W        W24616  17.824  17.033   1.341  0.0363  0.0847  0.1459
 9486W        W24617   6.571   0.113  15.577  0.0933 -0.0088 -0.1716
 9487W        W24618   4.587  14.563   2.858 -0.4542 -0.1244 -0.0152
 9488W        W24619  10.389  15.849   3.013  0.4964  0.3711 -0.1574
 9489W        W24620  16.055   1.854  11.299  0.2695 -0.0890 -0.4247
 9490W        W24621  16.621  11.173  12.714  0.3307 -0.0473  0.2193
 9491W        W24622   6.731   2.799   0.742  0.0905  0.0638 -0.1464
 9492W        W24623   7.319   4.168   2.060 -0.1187 -0.2504  0.1232
 9493W        W24624  16.222  18.675  15.021  0.0260  0.1718  0.2230
 9494W        W24625   4.650   3.585   0.075 -0.1149 -0.1074 -0.1264
 9495W        W24626  13.121  17.105  15.446  0.2439 -0.2612  0.0372
 9496W        W24627  16.051   0.810   1.719 -0.2412 -0.0425  0.0117
 9497W        W24628   3.149  11.628   3.192 -0.2480  0.0351  0.2676
 9498W        W24629   0.450  15.486  11.313  0.0542  0.3271  0.1453
 9499W        W24630   9.719  14.610   1.248 -0.2410  0.0345 -0.0860
 9500W        W24631   4.340   4.892  12.391 -0.0269  0.1997 -0.1223
 9501W        W24632  17.336   3.392   5.144 -0.1781 -0.0957 -0.2381
 9502W        W24633  16.928  12.877  12.214  0.2110 -0.0540 -0.1567
 9503W        W24634   0.207   4.424   1.599  0.2142 -0.0039  0.0521
 9504W        W24635   3.738  15.916   4.025 -0.0443 -0.0249 -0.2160
 9505W        W24636   8.543   6.948  13.986  0.2425  0.2515  0.0481
 9506W        W24637  16.534  10.271   9.781 -0.2963 -0.2290  0.2231
 9507W        W24638  11.887   1.788  15.763 -0.1067 -0.3418  0.0325
 9508W        W24639  16.395   2.377  15.160  0.0568  0.0519 -0.0522
 9509W        W24640   4.132   6.092   1.912  0.0839 -0.3113  0.0707
 9510W        W24641  13.327   0.993   0.914 -0.2580  0.1276 -0.2611
 9511W        W24642   0.569   2.903  11.829 -0.1127  0.1955 -0.2220
 9512W        W24643   5.173   6.685   1.759  0.0331 -0.2685 -0.1826
 9513W        W24644  14.375  13.198  11.169  0.4875 -0.0621  0.0141
 9514W        W24645  16.003  11.345  11.540  0.1254  0.1922 -0.1692
 9515W        W24646   1.053   6.926   1.446  0.1538  0.3717  0.0420
 9516W        W24647   3.826  11.320   3.432 -0.0687  0.2454 -0.1157
 9517W        W24648   1.259  14.643  12.858  0.0242 -0.0739 -0.0077
 9518W        W24649  10.133  17.308   5.654 -0.1213  0.0025 -0.1204
 9519W        W24650   7.456  13.147  14.784  0.2206  0.0004 -0.0624
 9520W        W24651  10.934  11.750   1.305  0.2607  0.2717  0.0343
 9521W        W24652  15.022   8.651  13.662 -0.1150 -0.1017 -0.2135
 9522W        W24653  13.975  10.485  13.909  0.2620 -0.3930 -0.0398
 9523W        W24654  10.548   2.958  13.877 -0.2005  0.0151  0.0244
 9524W        W24655   6.408   2.832  11.555 -0.0255  0.3678  0.1548
 9525W        W24656   3.286   9.503   2.814 -0.1012  0.0116 -0.1748
 9526W        W24657  14.422   3.870  12.421 -0.2077  0.1526  0.1077
 9527W        W24658  18.031   3.984  14.783 -0.1555  0.1075  0.5202
 9528W        W24659  13.154   7.718   1.311  0.0076  0.1897  0.2290
 9529W        W24660   9.268  15.283   1.180 -0.3955  0.0760  0.1528
 9530W        W24661  13.347  13.992   1.074  0.0063  0.5108 -0.0598
 9531W        W24662   5.763  12.497  12.826  0.0717 -0.0978 -0.2331
 9532W        W24663   2.109   6.522  11.334  0.0559 -0.4868 -0.1047
 9533W        W24664  12.911   6.218  15.379 -0.1060  0.0816 -0.4544
 9534W        W24665   6.331  11.168   4.240  0.2764 -0.0700 -0.0579
 9535W        W24666   5.204   2.897   1.059 -0.2559 -0.0406 -0.2816
 9536W        W24667   9.164   5.569  10.389 -0.1359 -0.0201 -0.4920
 9537W        W24668  10.703  10.450   3.130  0.1141  0.0251  0.0894
 9538W        W24669   1.755  15.483  11.233 -0.0530 -0.1582  0.2932
 9539W        W24670   9.003   6.577   1.217  0.2358  0.1188 -0.1554
 9540W        W24671   4.669   8.628   1.067  0.3331 -0.1150 -0.1045
 9541W        W24672  13.704  16.755  15.061 -0.1237 -0.0346 -0.1718
 9542W        W24673   9.834   0.483   0.589  0.0514  0.0712  0.2619
 9543W        W24674   7.510  11.594  14.126 -0.1443  0.1673 -0.3005
 9544W        W24675  17.470  14.476   3.391 -0.0721  0.2534  0.1232
 9545W        W24676   7.410   4.389  10.634  0.1800 -0.1284 -0.1118
 9546W        W24677   9.178   2.253   1.121  0.0078  0.2265  0.2712
 9547W        W24678  18.151  13.587  11.887  0.0910 -0.0182  0.0289
 9548W        W24679   7.718  11.020  11.216  0.0506  0.0160  0.0492
 9549W        W24680   8.984  12.560  12.401  0.2212 -0.0278  0.3015
 9550W        W24681   0.742   5.912  12.321  0.0856 -0.1792  0.0577
 9551W        W24682   0.792   1.030  14.921 -0.0457  0.1165 -0.1093
 9552W        W24683  15.789   4.842  12.019  0.1007  0.0523  0.0030
 9553W        W24684  11.536  15.606   2.150 -0.3354  0.0199  0.3336
 9554W        W24685  10.686  10.146  14.157 -0.0681 -0.1561 -0.1862
 9555W        W24686   2.556  12.441   4.360 -0.0609 -0.0635 -0.1704
 9556W        W24687  14.221   5.912   3.943 -0.0146  0.0250  0.1483
 9557W        W24688  14.425  17.697  14.115 -0.2436  0.1865 -0.0547
 9558W        W24689  16.981  11.195   1.503  0.3715 -0.0735 -0.0661
 9559W        W24690   1.135   9.626  14.287 -0.2536 -0.1787 -0.2206
 9560W        W24691   1.754   4.391   5.233 -0.0864 -0.0925  0.1048
 9561W        W24692  15.698   3.410  11.269 -0.2596 -0.3098  0.0099
 9562W        W24693  10.479   7.316  10.889  0.3742 -0.1503 -0.2521
 9563W        W24694   1.333   7.490  11.890  0.2173 -0.0333  0.1531
 9564W        W24695  14.061  12.348   3.715 -0.0353 -0.2589 -0.0085
 9565W        W24696   7.555   4.240   1.633 -0.3692  0.2392 -0.0021
 9566W        W24697  15.896   1.622   5.174  0.4558  0.2309 -0.1621
 9567W        W24698   3.851   0.416  11.430  0.0423 -0.3324  0.1459
 9568W        W24699  12.077  10.903   0.625  0.0163 -0.2780  0.0938
 9569W        W24700  17.963   0.166  11.682 -0.1880  0.2524 -0.0943
 9570W        W24701   2.326   9.133   4.266 -0.1706  0.0412  0.0689
 9571W        W24702  16.806  11.898  10.681 -0.1188 -0.1301  0.0409
 9572W        W24703  16.662  11.272  11.794 -0.0956  0.0091  0.0671
 9573W        W24704  17.516  11.926  11.717 -0.0536  0.0357 -0.0257
 9574W        W24705   5.513   8.560   1.463  0.2092  0.2825  0.1028
 9575W        W24706  13.204  10.700   0.113  0.3445  0.1911  0.3226
 9576W        W24707   8.564  15.072  13.407  0.0972 -0.1614 -0.0794
 9577W        W24708   9.724   2.575  15.274 -0.3001 -0.1034 -0.2185
 9578W        W24709  11.401   8.974   4.549 -0.1464 -0.0504 -0.1638
 9579W        W24710  10.911   2.679   4.644  0.3500 -0.2426 -0.0115
 9580W        W24711   6.744  11.396   0.212 -0.4863  0.1290  0.3269
 9581W        W24712  18.636   6.180   0.677  0.0454 -0.0319  0.0504
 9582W        W24713  14.320   9.330  15.216  0.1538 -0.2689 -0.0883
 9583W        W24714  10.529  15.909   9.934 -0.0932  0.0491 -0.1870
 9584W        W24715  11.682  11.155   3.680 -0.1056 -0.0898  0.1665
 9585W        W24716   4.169  14.076   9.725  0.1681 -0.3287 -0.1837
 9586W        W24717   2.245   7.424   1.547  0.0247  0.2952  0.2893
 9587W        W24718  16.939   8.152   3.731  0.1499  0.0839  0.0077
 9588W        W24719   6.849  18.665   2.137 -0.0651  0.3799 -0.1023
 9589W        W24720   5.263   6.474   3.426 -0.0882 -0.1474 -0.4377
 9590W        W24721  12.648   3.709   4.484  0.0529  0.0942  0.0271
 9591W        W24722  15.860   9.031  13.470 -0.0685 -0.0437 -0.0389
 9592W        W24723   9.148   7.858  10.770 -0.1676 -0.1109  0.1735
 9593W        W24724  16.613   4.578  11.472 -0.1920 -0.0080  0.0625
 9594W        W24725   1.745   8.813  12.437  0.0629  0.1191 -0.3843
 9595W        W24726  18.717  11.688   3.606  0.0207  0.2009  0.1192
 9596W        W24727   3.624   0.929   0.334  0.0444 -0.2848 -0.0359
 9597W        W24728   7.945  14.768  14.041 -0.1463  0.1609  0.2012
 9598W        W24729  14.482   4.148  10.428  0.0436 -0.0799  0.1868
 9599W        W24730  17.386  15.104   4.910  0.1807  0.1986  0.1917
 9600W        W24731   9.492  15.017   1.646 -0.0855  0.0881  0.5264
 9601W        W24732  13.180  11.447   1.084  0.0029  0.3182  0.2107
 9602W        W24733  18.109  17.890   4.698 -0.1480 -0.1423 -0.2175
 9603W        W24734   1.707  16.776  12.139  0.1523 -0.2104 -0.0828
 9604W        W24735   3.726  11.214  14.843  0.0279  0.1732  0.0740
 9605W        W24736   2.967  11.046  15.751 -0.1679 -0.1563  0.3591
 9606W        W24737  16.846   0.965   5.007 -0.0693  0.0512 -0.2395
 9607W        W24738   4.035  11.449   4.585 -0.1275  0.0617 -0.2417
 9608W        W24739   6.511  15.199   4.168  0.3004  0.0380 -0.0051
 9609W        W24740   7.913   7.929   1.174 -0.0954 -0.1285  0.3635
 9610W        W24741  16.418  14.248  12.787  0.1200  0.1490  0.2804
 9611W        W24742  10.332   8.168  11.623 -0.2034  0.0888  0.1193
 9612W        W24743   7.314  12.570   0.360 -0.0266  0.3327 -0.0375
 9613W        W24744   5.674  11.920  15.803 -0.0189 -0.1872 -0.1315
 9614W        W24745  15.757  10.197  12.911  0.1818  0.1721 -0.1091
 9615W        W24746  11.152  11.388  14.245  0.0348 -0.3899 -0.0249
 9616W        W24747   8.488   0.102  14.945  0.0394  0.0352 -0.1015
 9617W        W24748   6.000   3.537  15.324 -0.1134  0.2046 -0.1006
 9618W        W24749   1.739  16.293  12.822  0.1298 -0.1550 -0.1523
 9619W        W24750  10.895  10.997   3.835  0.0994  0.1061 -0.0430
 9620W        W24751  10.917  12.653   0.822 -0.1151 -0.1209 -0.0689
 9621W        W24752   2.169   6.380   1.940  0.0770  0.1539 -0.2298
 9622W        W24753  12.274   7.569  12.501 -0.2129 -0.2774 -0.1203
 9623W        W24754  15.620   2.902  13.193  0.1066  0.3015  0.5634
 9624W        W24755   7.794  11.626  11.038 -0.0651 -0.0534 -0.5000
 9625W        W24756   5.390  17.920   0.170 -0.0026 -0.1472 -0.0471
 9626W        W24757  12.207   5.629  11.921  0.2333  0.1869  0.2102
 9627W        W24758   9.857   4.660  12.807  0.0387 -0.0615  0.0077
 9628W        W24759   1.514  17.085  15.405  0.2205  0.0756  0.1454
 9629W        W24760  15.743   9.528   1.908  0.2323 -0.0258 -0.1288
 9630W        W24761  11.778   4.774  14.162 -0.0720 -0.1655 -0.0361
 9631W        W24762  12.214  14.285   5.077 -0.1790 -0.1133  0.1858
 9632W        W24763   8.856   6.024   2.240 -0.0106 -0.0113  0.3621
 9633W        W24764  15.103  16.002  12.320 -0.1593  0.1020 -0.1481
 9634W        W24765   4.441   7.368   1.936 -0.0085  0.2078  0.0091
 9635W        W24766   9.236   3.705   3.068 -0.0071  0.0113  0.0440
 9636W        W24767   3.229   5.492   0.880  0.1426  0.0055 -0.0014
 9637W        W24768   8.929   5.184   1.475 -0.2009  0.1487 -0.1227
 9638W        W24769  16.833  13.411  14.785  0.0259  0.3217 -0.2242
 9639W        W24770   5.608   4.598  13.254 -0.1694 -0.0700 -0.1854
 9640W        W24771   9.182  17.804  13.973 -0.0924 -0.1515  0.1900
 9641W        W24772   6.183  14.869   1.726 -0.0224  0.0006  0.1491
 9642W        W24773  17.483   1.090   6.022  0.1703 -0.0846  0.3231
 9643W        W24774   7.728  12.208  11.475  0.0133 -0.0863  0.1595
 9644W        W24775   1.341  10.456   1.915 -0.1566 -0.0187  0.0618
 9645W        W24776  16.391   8.284   0.697  0.0820  0.0699  0.0755
 9646W        W24777   9.819   2.936  11.793 -0.2048  0.0754 -0.1858
 9647W        W24778   8.753  14.312  10.711 -0.0247 -0.2396  0.0378
 9648W        W24779  13.354  15.535  11.033 -0.2342  0.0181 -0.0578
 9649W        W24780   1.899   8.322   0.621 -0.2072 -0.0417 -0.0599
 9650W        W24781   9.381   5.598  11.332 -0.1787 -0.0081 -0.1968
 9651W        W24782  15.012  17.197   2.316  0.3233  0.0519  0.1053
 9652W        W24783   6.850   7.007  15.201  0.0703  0.2713 -0.0718
 9653W        W24784   4.352   5.563   5.175  0.1502 -0.0774  0.1118
 9654W        W24785   9.544  12.805   2.888 -0.3168  0.1664  0.0637
 9655W        W24786   8.943   1.030  15.447 -0.1680 -0.0198 -0.1889
 9656W        W24787   0.802   9.326   2.910  0.0190 -0.0150 -0.3696
 9657W        W24788  18.159  13.085  14.343 -0.0762 -0.0590  0.2009
 9658W        W24789   6.494   2.058   6.147  0.2065  0.0490 -0.0839
 9659W        W24790  16.541  16.723   2.004 -0.1865 -0.1541 -0.1488
 9660W        W24791  15.450   3.745  13.452 -0.3028  0.0828  0.2454
 9661W        W24792  17.007   7.181  12.172  0.0865 -0.0833 -0.1284
 9662W        W24793   7.864  10.311  12.993  0.0910  0.4255  0.0527
 9663W        W24794   0.627  13.926  12.978 -0.1560 -0.2151 -0.0964
 9664W        W24795   6.764  16.022  12.220  0.0995 -0.1101 -0.0885
 9665W        W24796   6.346   9.425   1.339  0.2358  0.0119  0.1125
 9666W        W24797   8.764  15.186   2.041 -0.0529  0.0723  0.1447
 9667W        W24798   6.358   8.492  13.710  0.0475 -0.2839  0.0300
 9668W        W24799  13.048   7.821  11.413 -0.0131  0.2649 -0.1737
 9669W        W24800   8.224   4.738   9.989  0.5107  0.3790  0.1994
 9670W        W24801   8.100   2.220   4.978 -0.1309  0.0747 -0.0768
 9671W        W24802   6.937  15.663  11.817  0.1695 -0.1993 -0.0942
 9672W        W24803   5.493  15.103   0.019  0.0820  0.1709  0.0795
 9673W        W24804   1.993  11.253   2.891  0.1446 -0.2379  0.2147
 9674W        W24805   0.983  14.174   4.598  0.2021 -0.2039 -0.0240
 9675W        W24806  14.911   6.126   4.212 -0.4414  0.0535  0.1000
 9676W        W24807  15.641   4.999  14.778  0.0646 -0.2522 -0.0871
 9677W        W24808   6.005   1.872  11.812  0.2634 -0.2304  0.2143
 9678W        W24809  16.892   1.108   2.760  0.1519 -0.2367  0.0010
 9679W        W24810  18.645   0.019   4.802  0.0953  0.0713  0.1262
 9680W        W24811   7.338   9.344   3.078 -0.2300 -0.0726 -0.0641
 9681W        W24812  12.346   9.923   0.344  0.5364 -0.1206  0.0992
 9682W        W24813  12.124   3.088   1.094  0.1053  0.0875 -0.0617
 9683W        W24814  13.012   6.811   5.352 -0.0895 -0.0819 -0.4237
 9684W        W24815   3.768   8.045  11.949  0.3524  0.0434 -0.2485
 9685W        W24816  14.718  15.930  15.697 -0.3655 -0.3176  0.2557
 9686W        W24817  12.961  13.846   9.886  0.0517 -0.0901 -0.4243
 9687W        W24818   1.567   7.824  10.912 -0.0980 -0.0439 -0.0487
 9688W        W24819  11.779  11.105  14.804 -0.3803 -0.2061 -0.2627
 9689W        W24820   7.309   5.904   0.401  0.0098 -0.2642 -0.0120
 9690W        W24821   1.494   3.705   3.356  0.1954 -0.2165  0.1321
 9691W        W24822   7.481  16.250   0.470  0.0371  0.3170  0.0975
 9692W        W24823  16.299  11.596  11.972  0.3298 -0.2069  0.1705
 9693W        W24824  11.064   1.079   0.544 -0.2593  0.3830 -0.0243
 9694W        W24825  13.926   6.894  12.312  0.0916  0.0053  0.1088
 9695W        W24826   3.396  16.605   5.731  0.2940 -0.2357  0.0926
 9696W        W24827  16.859  18.351   4.329 -0.3142  0.0053  0.1354
 9697W        W24828  12.424   7.325   4.152 -0.0257  0.0392 -0.0351
 9698W        W24829   3.478   4.280  14.889 -0.0916  0.1203 -0.0264
 9699W        W24830  15.897  15.845  11.993 -0.1201 -0.1686 -0.2403
 9700W        W24831  11.918   7.685   2.036 -0.1535 -0.0238  0.1281
 9701W        W24832  16.057  11.781  14.227 -0.1043 -0.5267 -0.4033
 9702W        W24833   5.431   5.514  15.083  0.1018  0.0959  0.2376
 9703W        W24834  18.240  10.031   4.002  0.0757  0.2317 -0.2701
 9704W        W24835   3.209   1.895  12.390  0.0078  0.0699 -0.2027
 9705W        W24836   5.367  16.179  10.830 -0.2011 -0.1683  0.1817
 9706W        W24837  17.398  14.163   4.125 -0.1646  0.0370 -0.0533
 9707W        W24838   4.138  17.496  14.867 -0.4873  0.0394 -0.1955
 9708W        W24839   2.260  17.073  12.787  0.2247  0.0073 -0.4260
 9709W        W24840  12.703   3.849   9.685 -0.0060 -0.4232 -0.2694
 9710W        W24841   2.358   9.507   4.848  0.1285  0.1443  0.0528
 9711W        W24842   6.602  17.009  11.740  0.0867 -0.0920  0.1407
 9712W        W24843  14.572  17.440   3.156 -0.0555  0.0892  0.2043
 9713W        W24844   3.259  12.433  10.895  0.1042 -0.2584  0.1072
 9714W        W24845  15.532  10.939  14.879 -0.0718 -0.0361 -0.2931
 9715W        W24846  12.730   5.053   2.898 -0.1368 -0.3480 -0.1436
 9716W        W24847  13.279  12.189  14.675 -0.0817  0.0512  0.0639
 9717W        W24848  11.005  16.544   3.257 -0.0942 -0.0672  0.1108
 9718W        W24849  18.390   4.381   5.054 -0.0979  0.0226  0.0559
 9719W        W24850   0.187  11.913  10.968 -0.1750 -0.0049  0.2065
 9720W        W24851   7.347  16.694   0.219 -0.1909 -0.0849 -0.1315
 9721W        W24852  13.859  11.931  11.894  0.0566  0.1751 -0.0167
 9722W        W24853   9.009   0.703   4.804  0.1493  0.0643  0.1358
 9723W        W24854   8.800   9.058   2.861  0.1728  0.0778  0.1438
 9724W        W24855  15.657   9.855  13.613 -0.0649  0.1896  0.0788
 9725W        W24856   8.539  12.370   3.334  0.3482 -0.2926 -0.0865
 9726W        W24857   2.769   2.946   3.805  0.3002  0.0117 -0.1127
 9727W        W24858  18.389   2.317  15.780  0.1205  0.1876  0.0676
 9728W        W24859   3.829   8.378  12.370 -0.1589  0.1368  0.4597
 9729W        W24860  15.598   2.811   3.220  0.2238  0.2547  0.2199
 9730W        W24861  17.433   7.431  10.775 -0.0333  0.2550 -0.3185
 9731W        W24862   9.540  13.720  13.993  0.0649  0.1278 -0.1904
 9732W        W24863  14.353  18.538   2.417 -0.1099 -0.1977 -0.0229
 9733W        W24864  15.315  14.101   3.193  0.3281 -0.2285  0.0814
 9734W        W24865  15.794  12.413  13.627 -0.1619  0.2902  0.6227
 9735W        W24866  16.449  11.112   4.276  0.3046 -0.0331  0.1393
 9736W        W24867  17.160   2.733  15.542  0.3283  0.0808  0.3141
 9737W        W24868   2.418  15.338  14.050  0.0287 -0.3798  0.1316
 9738W        W24869   6.925  11.011  10.263 -0.4003 -0.0065  0.2631
 9739W        W24870  17.482  15.171  13.683  0.2238 -0.1003  0.1974
 9740W        W24871   6.640   3.684   0.446 -0.1323  0.0259  0.1016
 9741W        W24872  10.125  10.751  14.268  0.2305  0.1698 -0.0365
 9742W        W24873   0.526   1.043  11.652  0.4765  0.0115  0.1970
 9743W        W24874   8.654   6.320  14.137  0.3828 -0.0810  0.0710
 9744W        W24875   2.162   9.432   3.314 -0.1693  0.2064  0.3118
 9745W        W24876   1.103   9.496  11.065 -0.5198  0.0872 -0.3202
 9746W        W24877  17.075  16.043   5.322  0.3764  0.1934 -0.2615
 9747W        W24878   8.920  14.388  12.120  0.1051  0.1592  0.0327
 9748W        W24879  11.453   3.068  11.181 -0.2395 -0.2323  0.4759
 9749W        W24880   3.147  18.336  13.053  0.0068 -0.1652  0.3480
 9750W        W24881  16.747  15.021   4.566  0.2130  0.3008  0.4230
 9751W        W24882   6.987   9.491   1.500 -0.1597  0.2074 -0.0254
 9752W        W24883   2.914  16.208  11.883  0.2374  0.3471  0.0679
 9753W        W24884   9.948  10.132   4.157 -0.1104  0.2523  0.2110
 9754W        W24885   0.372   4.029   3.079 -0.4253 -0.2264 -0.0802
 9755W        W24886   7.820  11.136  14.718  0.2803 -0.2567  0.1331
 9756W        W24887   5.080  16.945  11.358  0.1963  0.0962  0.0006
 9757W        W24888  16.502   1.943  14.542  0.1053  0.0007 -0.0871
 9758W        W24889  11.440   9.541   3.972  0.2217 -0.4485  0.2144
 9759W        W24890   3.538   5.094   1.011 -0.1680  0.0243 -0.0849
 9760W        W24891   1.708   2.627  12.414 -0.0129 -0.1784 -0.2946
 9761W        W24892  16.231   6.435  13.124 -0.2689  0.0072 -0.0996
 9762W        W24893  14.201   1.705   3.007 -0.2196 -0.0370  0.1335
 9763W        W24894  11.806   0.382   3.301  0.2321 -0.1935 -0.1862
 9764W        W24895   1.609   3.910   5.179 -0.3957  0.2041 -0.1931
 9765W        W24896  14.990  13.516   3.296 -0.0697  0.1550 -0.0665
 9766W        W24897   5.668   5.079  14.346  0.0549  0.2322  0.1842
 9767W        W24898   1.875   9.100   3.601  0.2478  0.1606  0.1518
 9768W        W24899  13.259  14.379  11.826  0.2896  0.0402  0.1051
 9769W        W24900   9.842   2.300   4.563 -0.1524  0.0982  0.3076
 9770W        W24901  17.734  14.786   5.326  0.2040  0.2462  0.0525
 9771W        W24902  18.166  18.051  11.851  0.1338  0.0851 -0.0068
 9772W        W24903   7.772  16.145   2.840  0.4863 -0.0491  0.3015
 9773W        W24904  14.739  13.972   4.189 -0.0249  0.0357 -0.1140
 9774W        W24905   6.678   5.979   0.925 -0.0331 -0.1031 -0.1882
 9775W        W24906   0.545   9.518  15.436  0.1906  0.1104  0.1529
 9776W        W24907   5.706  17.667  13.261 -0.1426 -0.1825 -0.2370
 9777W        W24908  12.375   7.541   3.195 -0.1213  0.0202  0.2529
 9778W        W24909   8.255  17.430  14.165  0.0493 -0.3410 -0.4298
 9779W        W24910  15.356   5.313  11.443  0.0863  0.1200  0.2330
 9780W        W24911  15.209  17.284   3.456  0.1989  0.1427  0.1621
 9781W        W24912   3.715  15.303  12.558  0.0360 -0.0820 -0.1693
 9782W        W24913   7.257   1.517   2.198 -0.0796 -0.1316  0.2256
 9783W        W24914  13.582   3.514   2.735  0.1650  0.1695  0.3601
 9784W        W24915  11.465  18.017   2.489  0.1202  0.0603  0.1778
 9785W        W24916  17.682   9.304   3.916 -0.0032  0.2090 -0.1320
 9786W        W24917  18.138   1.989   5.035 -0.4087 -0.2903 -0.2811
 9787W        W24918  11.851   8.233  15.196  0.1807 -0.0124 -0.3056
 9788W        W24919   7.627  13.706  14.735 -0.0804 -0.0439 -0.1792
 9789W        W24920  17.787   5.911  10.057 -0.2504 -0.2075  0.1553
 9790W        W24921   0.521  12.094   5.502 -0.4254 -0.1921  0.1710
 9791W        W24922   2.677  14.404   3.190  0.0185 -0.0641 -0.0822
 9792W        W24923   2.599   7.519  14.406 -0.1122 -0.1398 -0.0288
 9793W        W24924  14.582  15.859  11.534 -0.3305  0.3914 -0.3424
 9794W        W24925  10.906   6.597   5.179 -0.0242  0.3699  0.1344
 9795W        W24926  11.789  14.681   5.030 -0.0571 -0.1211 -0.0206
 9796W        W24927   0.179   2.116   4.590  0.0527 -0.1828 -0.1608
 9797W        W24928  16.518   2.278   1.898 -0.1831  0.1306 -0.2623
 9798W        W24929   0.616  16.905  13.597 -0.0458 -0.1538  0.1864
 9799W        W24930   5.673   2.736  14.779  0.1961 -0.2263  0.0320
 9800W        W24931   8.511   9.737   1.079  0.0664  0.0224  0.0165
 9801W        W24932   6.354  16.327   0.604  0.0743 -0.0772  0.1643
 9802W        W24933   2.536   5.242  12.281 -0.4237  0.1056  0.1290
 9803W        W24934  17.962   9.744   0.154  0.1526 -0.1734 -0.2196
 9804W        W24935   7.417   8.945   0.208 -0.0798 -0.1822  0.0962
 9805W        W24936   7.485  16.275  13.976  0.0191  0.2783 -0.1008
 9806W        W24937   4.736  12.359   3.587  0.3247 -0.1284 -0.0441
 9807W        W24938  15.069   7.125  12.332 -0.3066  0.0202 -0.4106
 9808W        W24939   6.713   0.690   3.573 -0.0571  0.1924  0.0169
 9809W        W24940  14.593  17.021  10.356  0.2038 -0.0143 -0.3952
 9810W        W24941  13.310   0.574   2.744  0.1149 -0.0609 -0.3235
 9811W        W24942  13.273   4.182   2.810  0.1730  0.0783 -0.1239
 9812W        W24943  16.409  11.544  13.995  0.0180  0.0227  0.2320
 9813W        W24944   2.424  17.957  13.287  0.1134  0.0933 -0.2281
 9814W        W24945   4.914   7.481   0.237 -0.2001  0.0743 -0.2905
 9815W        W24946  16.801   8.247   0.425  0.0623 -0.2623  0.3997
 9816W        W24947  11.812  14.127  13.572  0.2475  0.2489  0.1075
 9817W        W24948  18.524  14.026   1.271  0.0569  0.1452 -0.1608
 9818W        W24949  14.884  12.961  13.702 -0.2686 -0.1024  0.1274
 9819W        W24950  13.087   2.740   0.501  0.0644 -0.0933 -0.0513
 9820W        W24951   0.170   7.993  15.631 -0.3199 -0.0012 -0.0250
 9821W        W24952   5.286   3.049   3.263  0.0541 -0.0870 -0.1770
 9822W        W24953  11.607  11.621   0.316  0.1125  0.1255  0.2106
 9823W        W24954   0.107  16.733   2.085 -0.2091 -0.0345  0.1245
 9824W        W24955  14.814  11.855   3.198 -0.0340  0.0500  0.0851
 9825W        W24956  15.687  12.295  10.003  0.1413  0.4216  0.2543
 9826W        W24957   7.037   3.406  14.578  0.0122  0.1228 -0.0864
 9827W        W24958   3.101  10.976  11.568 -0.2158  0.1178  0.0894
 9828W        W24959   3.619  15.309  11.548 -0.8086 -0.4642  0.1611
 9829W        W24960   7.083   8.565  14.692 -0.2186  0.2823  0.1946
 9830W        W24961  12.005   2.272  11.913 -0.0559  0.3416  0.0578
 9831W        W24962   2.226   5.078  13.789  0.0917 -0.1211 -0.0333
 9832W        W24963   0.863  16.117   2.575  0.0156  0.2349 -0.2054
 9833W        W24964   0.030   0.701   4.880  0.3395 -0.0957 -0.0983
 9834W        W24965  10.683  15.846  13.357  0.0790  0.2626  0.0778
 9835W        W24966   5.322   9.024   5.055 -0.0263  0.1602  0.1658
 9836W        W24967  10.826   9.258  14.746  0.0275  0.0903  0.0723
 9837W        W24968  11.538   8.972   0.453 -0.2685 -0.2664  0.0120
 9838W        W24969   8.247   8.124  14.206 -0.0463 -0.0596 -0.2572
 9839W        W24970   6.773   7.907   3.679  0.1476 -0.1594 -0.1990
 9840W        W24971   8.866   9.139   5.049 -0.1674  0.0378  0.2992
 9841W        W24972   9.799  10.305   5.326  0.1104  0.1122 -0.1833
 9842W        W24973   8.496   3.213   0.336  0.1418  0.2920 -0.0784
 9843W        W24974   7.570  14.009   5.543 -0.3004  0.0617  0.3373
 9844W        W24975  13.354   8.452   2.887  0.3917 -0.0665 -0.0472
 9845W        W24976  16.063   9.544   4.207  0.1366 -0.2085 -0.1055
 9846W        W24977  17.940   6.906  12.270 -0.0901 -0.1800 -0.2438
 9847W        W24978  11.090   8.589   4.607  0.1382  0.4540 -0.0828
 9848W        W24979   8.477  15.951   1.546 -0.1406  0.0124  0.0914
 9849W        W24980   3.627  13.100  11.505  0.1021  0.1387  0.0942
 9850W        W24981  16.531   4.790   5.113 -0.0872  0.0323 -0.0555
 9851W        W24982  10.025   4.835  12.334  0.2428  0.3767  0.1316
 9852W        W24983   1.471   9.495   4.993  0.1196 -0.0300  0.1251
 9853W        W24984   2.014   4.295  14.301  0.0999 -0.2801  0.1762
 9854W        W24985   0.823   3.773   4.169 -0.1052  0.1244  0.0078
 9855W        W24986  15.713  11.577   1.226  0.0675  0.0717  0.1755
 9856W        W24987   4.371   3.689   4.620 -0.1828 -0.0480 -0.0453
 9857W        W24988  16.331   1.866   4.885 -0.0444  0.1240 -0.0555
 9858W        W24989   2.729  17.260   3.194 -0.1607 -0.1563  0.0860
 9859W        W24990  16.552   7.965  12.436  0.0802  0.1740 -0.0994
 9860W        W24991  18.039   9.603  14.117 -0.1677 -0.0285  0.0175
 9861W        W24992   5.792  10.222   1.461 -0.0797  0.1147  0.1805
 9862W        W24993  10.004  10.877   3.954  0.3957 -0.4712 -0.2266
 9863W        W24994   5.080  10.188  14.709 -0.1645 -0.1157 -0.2210
 9864W        W24995   0.588   5.504  11.583  0.0836  0.1915  0.1355
 9865W        W24996  12.068  11.473  15.608 -0.2497  0.3396 -0.0037
 9866W        W24997   5.513   8.663  13.066 -0.2228 -0.0020 -0.0615
 9867W        W24998  16.350   6.186  14.586 -0.2169 -0.0846 -0.2476
 9868W        W24999   1.232   6.666   0.351  0.0278 -0.2035  0.0554
 9869W        W25000   2.332   8.826  12.335 -0.1293  0.0665  0.0427
 9870W        W25001  15.228  10.194  14.576 -0.0677  0.0714 -0.0485
 9871W        W25002   8.142   3.945   1.568 -0.5029 -0.0984  0.2089
 9872W        W25003   1.798   7.691  12.729  0.4105  0.2120  0.2364
 9873W        W25004   0.660   9.795   1.521 -0.1629 -0.4421  0.3075
 9874W        W25005   3.619   0.655   2.299 -0.1320 -0.2309  0.1970
 9875W        W25006  10.709   8.459   0.311  0.2490 -0.1079  0.0715
 9876W        W25007   8.486   0.783  14.984 -0.0934  0.1182 -0.1429
 9877W        W25008  11.423   3.997   9.730 -0.2487 -0.0586  0.4802
 9878W        W25009   1.295   6.103  15.397  0.0475 -0.1610 -0.0192
 9879W        W25010   0.226  16.770   4.594  0.1315  0.3260 -0.1403
 9880W        W25011   4.899  11.565  12.031  0.5085 -0.0286  0.5491
 9881W        W25012   3.870  18.427   5.083 -0.2231 -0.0006 -0.4113
 9882W        W25013  17.718  16.578   3.439  0.0158  0.3734  0.0070
 9883W        W25014  16.801  17.362   0.553  0.0666  0.2012 -0.3351
 9884W        W25015   6.076   8.740  13.236 -0.0592  0.2243  0.2747
 9885W        W25016   0.721   7.549   5.428 -0.0241 -0.3780 -0.0603
 9886W        W25017   1.625   0.252   6.054 -0.3187  0.0583  0.0154
 9887W        W25018   7.622  11.996   1.489  0.1516 -0.1834 -0.2794
 9888W        W25019   3.596   6.731  12.589  0.1715  0.0544  0.3183
 9889W        W25020  14.234  11.956  10.841 -0.1837  0.0018  0.1855
 9890W        W25021  14.848   8.294  10.602  0.0478  0.1527 -0.0470
 9891W        W25022   7.783  10.323  12.505  0.3768 -0.2613  0.4030
 9892W        W25023  11.092  14.637   3.731 -0.0364  0.2182 -0.0514
 9893W        W25024   8.007   7.582  14.096  0.0730  0.2113 -0.1058
 9894W        W25025   8.440   7.621  11.258 -0.0621  0.1233  0.0309
 9895W        W25026   3.933   0.256   2.531 -0.1743  0.1344  0.0442
 9896W        W25027   5.828  11.183   4.942  0.0521 -0.2197 -0.1267
 9897W        W25028  14.882  10.549  11.122  0.0464  0.1610 -0.1916
 9898W        W25029  16.609  11.099  13.896  0.1527 -0.1475 -0.3111
 9899W        W25030   3.030  12.700   3.170  0.1400 -0.0312 -0.1565
 9900W        W25031  18.533  17.845   2.026  0.2136  0.1571 -0.1087
 9901W        W25032   6.376   0.052  14.696 -0.1306  0.0960  0.3845
 9902W        W25033   3.636  13.162   0.188 -0.0069 -0.2051  0.1193
 9903W        W25034   5.505   2.782   0.546  0.2176  0.2839 -0.1939
 9904W        W25035  15.899   5.826   5.844  0.1025 -0.1255 -0.1611
 9905W        W25036  15.452   5.207   4.242 -0.2559 -0.3308  0.2280
 9906W        W25037  14.920   2.636  15.534  0.1356  0.1150 -0.0312
 9907W        W25038   7.428   7.764  12.087  0.0280  0.0503  0.2283
 9908W        W25039   2.153  17.985   0.211 -0.3574 -0.0252 -0.1581
 9909W        W25040  10.271   8.790   9.788 -0.0956  0.2008 -0.1920
 9910W        W25041  12.114  10.505   1.932 -0.3957  0.1909 -0.0225
 9911W        W25042   1.927  11.445   1.389  0.2303 -0.0525 -0.4758
 9912W        W25043  16.478   1.842   0.780 -0.0231  0.1652  0.2212
 9913W        W25044   8.174   8.637   4.296 -0.3513 -0.2743  0.3746
 9914W        W25045  14.054  13.041  13.900 -0.0762  0.3477 -0.0225
 9915W        W25046  18.104   8.363   1.275  0.0137  0.0710 -0.2159
 9916W        W25047  13.693   3.750   1.396 -0.1560 -0.2536 -0.1583
 9917W        W25048   8.021   4.726  11.927 -0.0444  0.1877  0.1030
 9918W        W25049   8.782  11.770   1.380 -0.1764 -0.3343 -0.0758
 9919W        W25050  11.659  15.523  14.221  0.2722 -0.0383 -0.1664
 9920W        W25051  18.297  10.479   9.892  0.1878 -0.3012  0.2073
 9921W        W25052  18.198   6.274  11.896  0.3278  0.2537  0.1561
 9922W        W25053   1.290   0.450   4.544  0.1419 -0.0437 -0.2245
 9923W        W25054  16.794  16.252   2.077 -0.1410  0.2540  0.1434
 9924W        W25055  12.995   9.617  14.639 -0.1725  0.2228  0.2314
 9925W        W25056   9.983  18.314   1.274  0.1765  0.2979 -0.0949
 9926W        W25057   1.976   5.927  14.127  0.0864  0.0948 -0.1004
 9927W        W25058   4.645   0.326   1.241 -0.2337 -0.3267  0.1276
 9928W        W25059   3.450  17.092   4.276  0.0976 -0.0158 -0.1150
 9929W        W25060  15.065  14.682  14.236 -0.0724  0.2569  0.0628
 9930W        W25061   4.299   6.030  12.453 -0.3514  0.3564 -0.1524
 9931W        W25062  14.319   8.726  14.633  0.2900  0.0078  0.0739
 9932W        W25063   9.989   9.535   4.130  0.1235 -0.2396  0.0891
 9933W        W25064  14.865   7.581   1.124 -0.0411 -0.3082 -0.0520
 9934W        W25065  10.284  13.318   3.870  0.0539 -0.2534  0.2431
 9935W        W25066  12.247  18.690   1.704  0.1734 -0.1341 -0.1385
 9936W        W25067  18.569  14.045  15.446 -0.1227  0.3126 -0.3661
 9937W        W25068  15.442   3.669  12.518 -0.0277  0.2201  0.3089
 9938W        W25069   6.175  17.064   0.285 -0.0815 -0.1892  0.5505
 9939W        W25070  12.741   6.771  15.679 -0.1167 -0.1304  0.2881
 9940W        W25071  17.484  17.752  13.996  0.2751 -0.2342  0.2064
 9941W        W25072   2.305  15.107   2.971 -0.0257 -0.0829  0.0482
 9942W        W25073  17.047   7.783  15.664 -0.0179  0.0621 -0.0888
 9943W        W25074   7.591   2.426  11.487  0.4091  0.1555 -0.2305
 9944W        W25075   2.832   8.797   5.645 -0.0054  0.0064  0.0447
 9945W        W25076  17.968  15.423  13.523 -0.0421 -0.4269  0.2007
 9946W        W25077  17.785   9.535  11.765 -0.1908 -0.2405  0.0342
 9947W        W25078   7.586  15.967   1.279  0.2348  0.0379  0.0658
 9948W        W25079   2.981   4.420   1.239  0.2740 -0.0322  0.2780
 9949W        W25080   3.940   7.131   1.266 -0.1935 -0.1458  0.0595
 9950W        W25081  11.459   3.343  11.680  0.0139 -0.2531 -0.2007
 9951W        W25082   9.605   3.730   2.650 -0.0488  0.2937 -0.1403
 9952W        W25083  15.283   8.796   3.305 -0.0935  0.0008 -0.0213
 9953W        W25084  10.904  16.213  11.086  0.0381 -0.6111 -0.2205
 9954W        W25085   5.218   3.249  13.358 -0.0681 -0.0509  0.0093
 9955W        W25086  14.310  12.480   3.267 -0.2000  0.1674 -0.0643
 9956W        W25087   1.582  11.527   2.783 -0.0154  0.1128 -0.2268
 9957W        W25088   9.333  17.222  12.705  0.2139 -0.0672  0.2310
 9958W        W25089  10.568   9.525  13.349  0.1626  0.0858 -0.1005
 9959W        W25090  14.600  12.053  14.333 -0.0638  0.1264  0.1396
 9960W        W25091  17.762  10.371   1.187  0.1174 -0.1102  0.1420
 9961W        W25092  11.905   0.042  11.021 -0.0224 -0.2160  0.1135
 9962W        W25093  11.694   8.621   5.439 -0.2254 -0.0142  0.0875
 9963W        W25094   8.418   2.818   0.627  0.0063  0.1006 -0.2441
 9964W        W25095  16.235  10.598   3.461 -0.0027 -0.1219 -0.0961
 9965W        W25096  16.538   1.748   3.120  0.0164 -0.1068  0.2777
 9966W        W25097  13.272   7.766   3.700 -0.0618  0.1366 -0.3049
 9967W        W25098  10.024  12.468   1.371  0.0909  0.1227  0.0376
 9968W        W25099  17.819   5.280  12.448 -0.1163  0.2432 -0.1964
 9969W        W25100  13.356   1.603   3.205 -0.3804  0.3157 -0.0428
 9970W        W25101   6.274  12.463   2.981 -0.1850  0.1462 -0.0030
 9971W        W25102   2.619  17.705  13.704  0.1461 -0.2014 -0.0625
 9972W        W25103  10.290  12.913  13.028 -0.1864  0.1609  0.2023
 9973W        W25104  12.809   9.428  15.419  0.0146 -0.1254 -0.0642
 9974W        W25105  17.277  15.718   3.911  0.2318  0.0433  0.1668
 9975W        W25106   8.013   3.091  12.594  0.0997  0.2282  0.1850
 9976W        W25107  13.439  10.576   5.045  0.2262  0.1319 -0.1893
 9977W        W25108  10.775   0.117   0.869  0.0524  0.1710  0.0092
 9978W        W25109  13.322   3.041   4.179 -0.0864  0.0560 -0.2282
 9979W        W25110  15.384  12.691   0.536  0.0606 -0.0161 -0.1802
 9980W        W25111  17.392  10.005   2.228 -0.0964 -0.1427  0.0417
 9981W        W25112  12.819  16.907  15.025 -0.2473  0.1133  0.0447
 9982W        W25113   3.344   0.820  14.790 -0.3583  0.1292  0.2050
 9983W        W25114   1.626  10.539  13.563 -0.0647  0.2033  0.0858
 9984W        W25115  13.813  13.943  10.767 -0.1120 -0.2665 -0.0996
 9985W        W25116   1.167  12.345   4.727 -0.1896 -0.0701  0.2091
 9986W        W25117  11.163  12.230  14.896 -0.6358  0.3219  0.0661
 9987W        W25118  15.051   6.158   2.474  0.0037  0.2130 -0.3926
 9988W        W25119  14.338   0.940  15.725 -0.1644  0.2177 -0.0356
 9989W        W25120  12.795   3.915   4.997 -0.1234 -0.2942  0.1680
 9990W        W25121   1.861  10.977  13.729 -0.3253  0.1707  0.1009
 9991W        W25122   1.294   9.286  10.628  0.1344 -0.0399 -0.0580
 9992W        W25123   0.374   3.432  12.864 -0.2459 -0.1072  0.4607
 9993W        W25124   0.057  12.907  14.470  0.0173 -0.0397 -0.2241
 9994W        W25125  14.807  11.509   0.898  0.1768  0.1083  0.1717
 9995W        W25126  16.198   9.174   3.378  0.4070  0.1463  0.2105
 9996W        W25127  16.425   0.389  12.137  0.1947 -0.0088 -0.1710
 9997W        W25128   2.010   8.223  15.291  0.2474 -0.0587  0.0084
 9998W        W25129  18.553  18.016   4.936  0.1347  0.3160  0.0844
 9999W        W25130   9.226   2.468  13.453  0.0696  0.2148  0.1775
10000W        W25131   0.884   3.973  14.886 -0.1252 -0.0182  0.1957
10001W        W25132   2.299  13.594   0.430  0.3266  0.2557  0.0650
10002W        W25133  14.399   3.691   3.381  0.2429 -0.1582 -0.0297
10003W        W25134  13.846  10.286   0.630 -0.2756 -0.1077  0.3196
10004W        W25135  16.559  10.788  11.991 -0.1388 -0.3851 -0.2926
10005W        W25136  16.398   3.327  12.129  0.0330 -0.0682 -0.2234
10006W        W25137  10.842  14.075   1.814 -0.2174 -0.2115 -0.2993
10007W        W25138  11.737   3.681  15.283 -0.2562 -0.2441 -0.2420
10008W        W25139   3.179   4.741  11.820 -0.1286 -0.0096 -0.0633
10009W        W25140  15.337   5.048  12.176  0.2639 -0.4530  0.0569
10010W        W25141   6.173   2.078  11.341 -0.1349 -0.3709 -0.1636
10011W        W25142  14.217   6.511  14.673  0.1796 -0.0410 -0.0456
10012W        W25143   1.590   8.273  10.185 -0.0374  0.0950 -0.0877
10013W        W25144  18.075   3.533   1.151  0.0711 -0.0660  0.1307
10014W        W25145  18.727   1.182  11.802 -0.0719  0.2027 -0.2256
10015W        W25146   0.268   6.933  13.533  0.0776  0.5806  0.1560
10016W        W25147  12.789   4.803   0.874  0.1522  0.3509 -0.0756
10017W        W25148   9.951   1.718   3.328 -0.0476 -0.2659 -0.3230
10018W        W25149  13.260   0.478   1.085 -0.1766  0.1950  0.0161
10019W        W25150   0.517  13.947  13.460  0.0535 -0.0382 -0.1060
10020W        W25151  16.724   4.546  13.431 -0.0500 -0.0820  0.0547
10021W        W25152  17.733  17.509   5.023  0.0597 -0.0831  0.1178
10022W        W25153  18.549   7.731  13.758 -0.1134  0.1623  0.0618
10023W        W25154   6.466  14.147   3.175 -0.0662 -0.3584  0.1529
10024W        W25155   2.613   6.960  14.480  0.2447  0.1212  0.2123
10025W        W25156  11.493  10.357   3.340 -0.1065  0.0567  0.2897
10026W        W25157   7.396   3.610   2.297  0.2000  0.0949 -0.1653
10027W        W25158   5.735   0.859   5.275 -0.3620  0.6278  0.1000
10028W        W25159  13.434   1.435  12.246 -0.1545 -0.1632  0.0888
10029W        W25160  16.350  14.755   4.506 -0.0391  0.2525 -0.0347
10030W        W25161  16.768  10.069  12.301  0.3879 -0.3331  0.1935
10031W        W25162   6.841  15.525  12.239  0.1273 -0.3735 -0.2397
10032W        W25163   6.187   0.854   0.115  0.0081  0.1392 -0.1085
10033W        W25164  11.224   3.279   1.207  0.2469  0.2994  0.0176
10034W        W25165  17.947   8.714   1.660  0.4500 -0.1880  0.2974
10035W        W25166  14.344  14.654  11.857 -0.0608  0.0514 -0.1686
10036W        W25167  11.551  11.992  15.792  0.1306  0.3296  0.2341
10037W        W25168  12.601  15.612  15.273  0.1766  0.1148 -0.0608
10038W        W25169   0.132  10.155   4.812 -0.1975  0.1141  0.2052
10039W        W25170   9.880   4.027  14.165 -0.2227 -0.2158  0.0240
10040W        W25171   0.350   4.959   5.310  0.1399 -0.2586  0.0538
10041W        W25172  11.006   6.923   2.528 -0.0783  0.1056  0.4574
10042W        W25173  11.839  13.619  10.589 -0.3000 -0.0784 -0.0172
10043W        W25174   7.197   7.477  14.613  0.2660  0.2002  0.1670
10044W        W25175   7.754   3.398  12.114  0.0212 -0.0674  0.0450
10045W        W25176   7.449   7.342   4.585  0.0718 -0.3269 -0.0622
10046W        W25177   0.584   5.192  13.486  0.1299 -0.0457  0.0882
10047W        W25178  10.988  18.253  13.148 -0.1034  0.2370  0.3123
10048W        W25179  12.531   9.718  11.570 -0.2393 -0.4066 -0.3995
10049W        W25180   5.919  10.628   2.048 -0.2739 -0.1977  0.2712
10050W        W25181  11.057  11.792  15.680 -0.1020 -0.0216 -0.3772
10051W        W25182   6.229   3.290   2.290 -0.1247  0.1283  0.3363
10052W        W25183   4.577   4.811  13.208  0.1742 -0.3512  0.2095
10053W        W25184  14.067   0.019  15.473 -0.1504  0.2126 -0.2514
10054W        W25185   1.542  11.396   1.820  0.4020 -0.2675  0.2913
10055W        W25186   7.025   3.037   5.402 -0.0676 -0.0637  0.0893
10056W        W25187   1.930  10.390   5.073 -0.0741 -0.1425  0.3908
10057W        W25188  13.434  17.424   1.641  0.0430  0.2939 -0.0278
10058W        W25189   9.651   1.345   1.118  0.0369 -0.1628 -0.0597
10059W        W25190   3.765   9.339   3.768 -0.2091 -0.1359 -0.2164
10060W        W25191  17.228   9.510  15.287  0.0614 -0.2136 -0.1628
10061W        W25192  12.766   7.297  12.278  0.0353  0.0978 -0.3576
10062W        W25193  15.648   6.303  13.980 -0.1457  0.0962 -0.2125
10063W        W25194   2.500   1.256  12.344 -0.1526 -0.2286  0.1130
10064W        W25195   5.876   6.310   2.419  0.0222  0.2029 -0.3181
10065W        W25196   4.116   8.392   0.041  0.2917 -0.1178 -0.0656
10066W        W25197  11.463   8.329   3.813  0.0204 -0.0392 -0.0773
10067W        W25198  14.351  18.341   3.242  0.2846 -0.1789  0.2231
10068W        W25199   6.030  13.249  14.579  0.0431  0.2063  0.0943
10069W        W25200  18.377  16.432   1.818  0.1301 -0.1440  0.0512
10070W        W25201   0.509   4.789  15.235 -0.1071 -0.2864  0.1924
10071W        W25202  14.546  15.241  10.800  0.0373 -0.1013  0.0348
10072W        W25203  10.672  13.731  15.300  0.3570 -0.2478 -0.0240
10073W        W25204   1.640   6.025   3.529 -0.2877 -0.0777  0.2084
10074W        W25205  17.739   0.308  13.565 -0.0717 -0.4292 -0.0976
10075W        W25206   5.068  18.131  13.522  0.0634 -0.1969  0.0459
10076W        W25207   5.856   5.162   0.741 -0.3668 -0.1630 -0.4678
10077W        W25208   5.097  12.402   3.265 -0.2438  0.2363  0.2298
10078W        W25209  11.549   6.961  12.794  0.1524  0.3871  0.2185
10079W        W25210   3.630  17.226  10.112  0.1061  0.1568 -0.3302
10080W        W25211  18.422   7.757  12.706 -0.0025 -0.2087  0.2566
10081W        W25212   8.137   7.308   0.027 -0.1361  0.1627 -0.0134
10082W        W25213  17.591   6.771   1.884  0.0172  0.2780 -0.4095
10083W        W25214   4.724   6.017   5.309 -0.3299 -0.0791  0.2367
10084W        W25215  17.619   4.403  12.027 -0.0331  0.1524  0.0205
10085W        W25216   9.824  17.049   0.076  0.1640  0.0357 -0.1586
10086W        W25217   6.293   5.006  15.283  0.1634 -0.2038 -0.3749
10087W        W25218  12.032  10.233  15.211 -0.1096  0.0094  0.1721
10088W        W25219   6.739  14.240  13.645 -0.2184 -0.0387  0.1272
10089W        W25220   7.266   6.820   1.422 -0.3569 -0.0045  0.0657
10090W        W25221  13.723   5.229  14.197  0.3019  0.1191 -0.1583
10091W        W25222  17.656   6.522  12.789  0.4820 -0.0804  0.2068
10092W        W25223  11.196  16.271   4.388  0.0005 -0.0677  0.0548
10093W        W25224  14.687   5.627   3.237  0.0383  0.1402 -0.0078
10094W        W25225  14.538   2.436  12.924 -0.0613  0.0840  0.1995
10095W        W25226   6.478  15.949  13.061 -0.1593 -0.1436 -0.0619
10096W        W25227  16.801   0.960  10.865  0.0214  0.3228  0.2430
10097W        W25228   1.378  11.661  11.186  0.1901  0.2023 -0.1191
10098W        W25229  11.134   5.836  11.124  0.3525  0.4481 -0.1412
10099W        W25230  10.390   1.669  10.593  0.0249  0.2375 -0.1740
10100W        W25231   1.854   7.110  11.691  0.0070 -0.1089 -0.1070
10101W        W25232   4.836  15.532  13.426  0.2187  0.1109  0.4767
10102W        W25233  11.633  15.003  12.403  0.1080  0.3506  0.3634
10103W        W25234   7.202   7.290   2.207  0.2442 -0.2439  0.0926
10104W        W25235  12.578  12.553  15.521 -0.3530  0.1094  0.1951
10105W        W25236  11.257   3.826  11.711 -0.0896 -0.1666  0.0270
10106W        W25237  13.394   8.356  10.725  0.0450  0.0540  0.0305
10107W        W25238   4.282  10.318   4.017  0.2763 -0.0341  0.0064
10108W        W25239   3.662  14.903  11.800 -0.0851 -0.0047  0.0368
10109W        W25240   2.553   7.209   4.565  0.1328 -0.0041 -0.2134
10110W        W25241  13.246  11.773   1.667 -0.0867 -0.2013  0.1911
10111W        W25242   9.583   6.615  13.141  0.0116  0.2664  0.0439
10112W        W25243  11.581   4.718  14.638 -0.0841 -0.1356 -0.0623
10113W        W25244   7.985   1.421  11.586 -0.1778 -0.3838 -0.0638
10114W        W25245  12.531   9.846  14.731 -0.2979  0.1426 -0.2150
10115W        W25246   8.621   7.253  11.603 -0.1626  0.3273  0.4738
10116W        W25247  12.677   2.250  15.164 -0.2659  0.1915  0.1026
10117W        W25248   1.144  11.045  12.873  0.0284 -0.2005 -0.2660
10118W        W25249   3.734   7.224  12.334 -0.0461 -0.1923  0.0204
10119W        W25250  12.524   6.609  12.907  0.0107 -0.0293 -0.2345
10120W        W25251  11.848   7.028  14.116  0.0141  0.2721 -0.2183
10121W        W25252   2.779   6.820   4.739  0.0072  0.0373  0.0719
10122W        W25253  15.382   3.807   5.488  0.0129 -0.4108 -0.0137
10123W        W25254   8.002  12.930  12.728  0.0774 -0.2144  0.3021
10124W        W25255   4.342  12.362  12.950 -0.3258 -0.0370 -0.0900
10125W        W25256  15.446  13.900  11.815  0.3090  0.3735 -0.2368
10126W        W25257   5.540  11.688   4.257  0.2274  0.3000  0.1031
10127W        W25258  15.964   7.225   3.708 -0.2484  0.6183 -0.0055
10128W        W25259  11.912   9.949  12.642  0.1419  0.0657  0.0095
10129W        W25260   2.631  16.166   4.020 -0.0056  0.0425 -0.2132
10130W        W25261  10.958   2.538  10.700  0.0061  0.0468 -0.0473
10131W        W25262   8.155   2.515   3.359  0.0346  0.2155  0.0085
10132W        W25263   8.939   1.372   5.574 -0.0406  0.0844  0.0955
10133W        W25264  13.530  12.816   2.508  0.0226  0.1651 -0.1632
10134W        W25265  12.534  18.346   0.881  0.2824  0.4523 -0.1842
10135W        W25266  12.349   9.493   2.707 -0.0519 -0.0120  0.2511
10136W        W25267   4.328  12.800   5.393  0.2302 -0.0149  0.0065
10137W        W25268  11.712  16.898   3.804 -0.2844 -0.2293 -0.0681
10138W        W25269  10.872  10.809   1.094  0.2338 -0.0912  0.0818
10139W        W25270   1.583   6.359  12.563  0.3355 -0.0750 -0.0827
10140W        W25271   9.073   2.922  13.700  0.5082 -0.0308  0.0268
10141W        W25272  10.599   1.811  13.607  0.1130 -0.0227  0.2509
10142W        W25273  17.742   7.189   0.916  0.3102 -0.1106  0.0886
10143W        W25274   4.343  16.290  10.998  0.0793  0.0521 -0.0589
10144W        W25275  17.313  18.714  13.738 -0.1735  0.2918  0.0544
10145W        W25276   8.285  16.061  11.343  0.1706 -0.1975 -0.1174
10146W        W25277   8.485   5.876  14.838 -0.1612  0.1944  0.1136
10147W        W25278  11.754   0.581  12.072  0.3246 -0.1750 -0.2340
10148W        W25279   2.953  13.183  14.704  0.3258  0.0154  0.0530
10149W        W25280  12.264   5.352   1.682  0.1662 -0.2754 -0.1185
10150W        W25281  18.261   7.632  11.313  0.0803  0.3476 -0.2136
10151W        W25282   7.873  11.491  13.765 -0.0757 -0.0377  0.2233
10152W        W25283   3.683  14.798   1.394  0.0440 -0.2995 -0.2354
10153W        W25284  12.711  10.942  10.841  0.1456  0.1478 -0.0878
10154W        W25285  14.478  16.306  11.678 -0.3576 -0.0974 -0.0057
10155W        W25286  10.343  11.716   1.243  0.0056 -0.1765  0.0240
10156W        W25287   3.410  15.488  12.157 -0.1247 -0.0934 -0.2744
10157W        W25288   9.326   6.336  10.362  0.0359 -0.1050  0.1435
10158W        W25289  17.491  14.614  13.001 -0.1431  0.0347 -0.2625
10159W        W25290   8.697   1.327   3.301  0.0207  0.2074  0.0096
10160W        W25291  10.301  11.203  13.932 -0.2295  0.0631  0.0689
10161W        W25292   1.515   6.787   2.357  0.2669 -0.1025  0.2403
10162W        W25293  13.184  10.980  14.972 -0.0587  0.2385  0.2201
10163W        W25294   9.905   0.833   3.477 -0.3155 -0.0001  0.1489
10164W        W25295  16.601   7.241   1.476 -0.0486 -0.0486  0.1271
10165W        W25296   1.754  14.182  13.701 -0.1701  0.2001  0.0295
10166W        W25297  16.502  17.428  12.870 -0.0116 -0.1599  0.1097
10167W        W25298   0.786   5.555  15.557 -0.0869  0.1335 -0.2902
10168W        W25299  11.927   3.855   2.260  0.0172 -0.3670  0.0414
10169W        W25300   9.434  15.084  12.279 -0.3908 -0.0028  0.2540
10170W        W25301  13.182  17.381   3.910  0.1695 -0.2713  0.0907
10171W        W25302  13.862  17.108  11.367 -0.1072  0.3397 -0.1843
10172W        W25303   7.606   1.524   0.461  0.1761 -0.4149 -0.0952
10173W        W25304  15.581  12.516   3.290 -0.2220  0.0179  0.2404
10174W        W25305   7.059  11.359   5.662  0.0352 -0.0994  0.0787
10175W        W25306   0.885  13.534  14.426  0.2359 -0.1728  0.0660
10176W        W25307   1.364  13.245   5.966 -0.3947  0.1274  0.1836
10177W        W25308  11.642  17.688  11.691  0.1086  0.0811  0.4646
10178W        W25309  15.396  18.615  15.178  0.1214  0.0271 -0.1464
10179W        W25310   5.894   4.749  11.510 -0.1010 -0.2042 -0.2365
10180W        W25311   2.721  13.561  11.561 -0.2202  0.0305  0.0814
10181W        W25312  12.275   6.653   0.386  0.1684 -0.1417 -0.1522
10182W        W25313   7.359   7.374   9.285 -0.0074 -0.0184  0.1232
10183W        W25314  13.321  15.520  14.505  0.4185 -0.1057  0.0664
10184W        W25315   8.200  17.042   1.448  0.0142  0.0227  0.2098
10185W        W25316   4.608   9.610   1.177 -0.1676  0.2113  0.5263
10186W        W25317   7.115  12.663  12.848 -0.0924 -0.1746  0.1130
10187W        W25318   7.269   3.695  12.934  0.0028 -0.1287 -0.4294
10188W        W25319   5.343  12.904   3.110  0.1732  0.2759  0.1960
10189W        W25320  10.845  10.015   1.976  0.2316 -0.1307  0.0306
10190W        W25321  11.886  18.420  13.257 -0.0337 -0.1506 -0.1805
10191W        W25322   9.395   3.076  14.134  0.0283 -0.1233 -0.2545
10192W        W25323   1.712   9.753  11.536  0.2875  0.1195  0.2041
10193W        W25324  12.144   0.693   4.595  0.1844  0.1409  0.2717
10194W        W25325  12.623  13.522  12.028 -0.4066  0.1703 -0.0337
10195W        W25326  12.879  13.892   0.585  0.2885 -0.2792 -0.4842
10196W        W25327  17.888  10.252   0.455  0.2220  0.3311  0.1626
10197W        W25328   5.567  15.453   4.899  0.0985 -0.1693  0.0414
10198W        W25329  17.155   1.648   4.672  0.0282 -0.0556 -0.0093
10199W        W25330   2.403   1.390  11.809 -0.0148  0.3455 -0.0106
10200W        W25331   8.064  14.987   5.397 -0.1494 -0.0083 -0.3585
10201W        W25332   5.267   9.433  13.150  0.0011  0.4204  0.0016
10202W        W25333  11.741   2.363   5.291 -0.1544  0.2080  0.2265
10203W        W25334  17.194   8.670   5.530 -0.0066 -0.0110 -0.0141
10204W        W25335   3.170  10.392   1.059  0.3425 -0.2079 -0.1870
10205W        W25336   6.842  13.791   4.188 -0.0085 -0.1407  0.3147
10206W        W25337   4.562   5.331   2.170 -0.3595 -0.1417 -0.0992
10207W        W25338   2.029  12.739  12.458 -0.1322  0.0717 -0.1200
10208W        W25339  15.676  18.211   2.527  0.1191  0.0426  0.0165
10209W        W25340   0.801   2.383  11.743  0.2186  0.2636  0.3561
10210W        W25341   2.096   4.232   3.913  0.1162 -0.4113 -0.1055
10211W        W25342   5.498  10.311   4.033  0.3426 -0.1452  0.2775
10212W        W25343   5.958  12.443   4.298  0.0167 -0.0845 -0.0875
10213W        W25344   9.916  14.969  10.455  0.0253 -0.0786  0.0036
10214W        W25345   0.192   6.044  14.110 -0.0017  0.0113 -0.0831
10215W        W25346  12.095   8.972  11.224  0.2475 -0.0557 -0.1721
10216W        W25347   1.433  15.160  12.189 -0.3594  0.2917  0.0303
10217W        W25348   7.822   9.677   3.251  0.2452  0.1340  0.2953
10218W        W25349   4.733  16.650  15.336 -0.1791  0.0589 -0.0665
10219W        W25350   9.666  11.603   2.414 -0.1391 -0.3575 -0.3665
10220W        W25351   9.480   6.798   2.225  0.0320 -0.0608 -0.0463
10221W        W25352  12.074  15.029  11.188 -0.0213  0.1279 -0.1305
10222W        W25353  12.663  15.310  11.360 -0.0082  0.0084 -0.3916
10223W        W25354  18.182   8.101  14.490 -0.1075 -0.1370 -0.2621
10224W        W25355   7.962  17.686  13.462  0.0276 -0.1292 -0.1013
10225W        W25356   1.270   1.455  14.326  0.0059 -0.0951  0.0380
10226W        W25357   3.177   4.211  13.401 -0.2310 -0.3492  0.1361
10227W        W25358   0.622   9.271  15.039  0.1637  0.1291  0.1361
10228W        W25359   3.905   4.649   3.212 -0.0729 -0.3626  0.0491
10229W        W25360  12.297   2.893  11.107 -0.1287 -0.1480 -0.1343
10230W        W25361  14.364   9.347  12.210 -0.0015  0.0721 -0.2779
10231W        W25362  13.540   4.718  11.677  0.3031  0.0160  0.0326
10232W        W25363   1.058  15.861   3.937  0.0751  0.1047  0.0139
10233W        W25364  13.452   2.544  10.235 -0.2704 -0.1729  0.2370
10234W        W25365   4.377   0.263   4.346  0.2046 -0.0348  0.0235
10235W        W25366   7.081   7.468   4.858 -0.0789  0.0185 -0.3733
10236W        W25367  14.161   9.152  10.625 -0.1096 -0.4895 -0.2537
10237W        W25368  13.165   6.391  13.770 -0.0008 -0.3104  0.0195
10238W        W25369  17.429   8.243  13.781 -0.0577  0.0409  0.1072
10239W        W25370   7.417  17.792  14.683  0.1241  0.0376 -0.0305
10240W        W25371  18.442  18.531   2.689 -0.1584  0.1092  0.1494
10241W        W25372   7.320   6.401   4.862 -0.0100 -0.1127 -0.3600
10242W        W25373   4.034   8.266   2.468  0.0150 -0.1025  0.0403
10243W        W25374  18.197  16.019  14.323 -0.3890 -0.0862  0.0977
10244W        W25375   2.550  16.880  14.127 -0.2039  0.3026  0.0183
10245W        W25376  15.085   3.066   1.822 -0.0752 -0.0736 -0.3964
10246W        W25377   0.650   6.289   2.660  0.0951  0.2286  0.0519
10247W        W25378   6.795  15.922   4.329  0.0982 -0.2154  0.1764
10248W        W25379   3.479  14.746   0.852 -0.1352  0.2179  0.0857
10249W        W25380   5.979   0.070   2.993 -0.0603  0.1199 -0.2212
10250W        W25381   0.523  14.872  14.960 -0.2204 -0.1190  0.2105
10251W        W25382  12.097   7.545  13.590 -0.0044 -0.1544  0.0466
10252W        W25383   0.292   6.675   2.751 -0.0958 -0.1227  0.0880
10253W        W25384  16.039  15.294   1.346 -0.0111 -0.0564 -0.1761
10254W        W25385   5.165  12.854   0.379  0.2706 -0.1907  0.1454
10255W        W25386   3.788  10.073  12.567 -0.1250  0.0176  0.1091
10256W        W25387   3.170   6.468   0.291 -0.1907 -0.0628 -0.0215
10257W        W25388   1.856   2.810   1.427 -0.1060  0.3025 -0.2864
10258W        W25389   8.590   6.036   2.687  0.0864 -0.1128 -0.2437
10259W        W25390  18.237   7.823   2.955  0.0768 -0.2857 -0.0097
10260W        W25391   8.207   4.245  12.739 -0.0381  0.1755  0.2315
10261W        W25392   2.067  10.621   2.622 -0.1138  0.1647 -0.0079
10262W        W25393   0.724  11.636  13.293 -0.1986 -0.2425 -0.1292
10263W        W25394  17.377   7.907   3.514 -0.3058 -0.0669  0.0392
10264W        W25395  11.039   5.633   3.550  0.2311 -0.1400 -0.1877
10265W        W25396   0.500   1.093  15.552  0.0595  0.1571 -0.3127
10266W        W25397  15.465   9.897  15.540  0.3101 -0.0245 -0.0353
10267W        W25398   9.971   7.082   0.946 -0.0815  0.0400  0.2357
10268W        W25399   5.390   0.166  14.179  0.1178  0.4004 -0.0059
10269W        W25400  10.445   1.607   0.583  0.3358 -0.2418  0.1651
10270W        W25401  16.350   1.609   5.369  0.0693 -0.1290 -0.1139
10271W        W25402  13.646  18.061  10.649  0.0274 -0.0031  0.1439
10272W        W25403  12.804   9.585   2.519 -0.2257  0.1153 -0.0328
10273W        W25404  13.226   6.598   9.849  0.2333  0.3999  0.1677
10274W        W25405   0.602  10.979  12.066 -0.1425 -0.2054  0.0761
10275W        W25406  14.401   1.567   0.954 -0.0919  0.0891  0.0643
10276W        W25407   8.723  14.711   0.985 -0.0913  0.0564  0.3083
10277W        W25408  16.259   9.504  15.166  0.1026 -0.1116 -0.2418
10278W        W25409   6.733   2.173   5.524 -0.2054  0.1481 -0.2032
10279W        W25410   8.856   2.214  15.129  0.3479 -0.0095  0.1716
10280W        W25411   8.257   3.298  15.738  0.3433 -0.0192  0.1086
10281W        W25412   7.790   7.440  14.564 -0.1556  0.2739 -0.1677
10282W        W25413   9.467  15.559   5.741 -0.1932  0.2833 -0.0787
10283W        W25414  17.315   2.649  13.368 -0.0176 -0.2275 -0.0823
10284W        W25415  11.321   1.095  13.257 -0.0033  0.0966 -0.3412
10285W        W25416   6.438   6.172  15.626  0.2092 -0.0456 -0.0445
10286W        W25417   2.423   2.567   4.845 -0.3293  0.0072  0.0868
10287W        W25418   0.185  12.284   4.367 -0.2876  0.1861 -0.0962
10288W        W25419   7.993  11.127  15.247 -0.1668 -0.1696  0.1646
10289W        W25420  16.861   7.442  13.622  0.1254  0.1383 -0.0822
10290W        W25421   4.724   0.581  11.167 -0.1620  0.1088  0.3181
10291W        W25422  14.303   5.820   9.664 -0.2982 -0.0297 -0.0438
10292W        W25423  17.212   3.381  14.840 -0.1931 -0.2850  0.1779
10293W        W25424  11.872   9.418   4.411  0.3069 -0.0014  0.2049
10294W        W25425  10.720   0.821  10.171  0.0012  0.0734  0.2265
10295W        W25426   7.869   6.916  13.049 -0.0450  0.2001 -0.1408
10296W        W25427   6.047   9.060  13.625 -0.0934  0.1085 -0.3558
10297W        W25428  18.718  15.918   4.567 -0.1951  0.0169 -0.2777
10298W        W25429   2.175   7.679  14.237 -0.0387  0.0237 -0.2139
10299W        W25430  10.973  17.771  12.415  0.0699 -0.1044  0.1843
10300W        W25431  14.829   7.926  11.127  0.0948 -0.1724 -0.0136
10301W        W25432   3.263  10.159   2.852 -0.1427  0.2526  0.0865
10302W        W25433  12.597   6.840   4.006  0.1564  0.0021 -0.0623
10303W        W25434  17.546   7.001   3.290 -0.0027  0.1320  0.0326
10304W        W25435  16.054   0.582   2.830  0.2203 -0.1451  0.0070
10305W        W25436  15.876  13.429   0.093  0.2060  0.2425  0.0864
10306W        W25437   6.998   1.508   3.280  0.1378 -0.1118 -0.1140
10307W        W25438   8.118  11.215   1.882 -0.3706  0.2625  0.0765
10308W        W25439  16.620  15.958   1.387  0.3798 -0.1701  0.0459
10309W        W25440  14.494   0.702   0.672  0.2067 -0.0006 -0.0816
10310W        W25441   2.588   0.981  14.488 -0.1662  0.2521 -0.1360
10311W        W25442   1.862  10.160   0.130  0.0165  0.1429  0.1994
10312W        W25443  12.671   7.026  11.388 -0.0215 -0.1757 -0.3199
10313W        W25444  15.147  16.590   1.118 -0.1805  0.0298  0.3284
10314W        W25445  15.887   8.161  13.698  0.1010  0.0559 -0.2917
10315W        W25446  10.532   9.668  14.659 -0.0409 -0.3202  0.2110
10316W        W25447  16.480  16.888  14.614 -0.0138 -0.0291  0.1713
10317W        W25448  10.343  11.043  10.889 -0.0693  0.3268  0.0248
10318W        W25449   0.138   4.911  13.283  0.0095 -0.5101  0.1138
10319W        W25450  10.646  12.186   4.486  0.2840  0.0645 -0.0025
10320W        W25451  16.808  10.251  11.131  0.0107  0.3088 -0.3611
10321W        W25452   6.116  18.494  10.565  0.2133 -0.0307 -0.1185
10322W        W25453   6.644   2.980   3.028 -0.0263  0.1594  0.0099
10323W        W25454   1.337   9.932  14.689 -0.1659 -0.3302  0.1271
10324W        W25455   7.340   9.018   4.142  0.4953  0.1560 -0.0853
10325W        W25456  17.819   0.765   4.008 -0.0908  0.2318  0.1886
10326W        W25457  13.086  15.321  11.910 -0.0183 -0.2872  0.0101
10327W        W25458  10.097  13.775   3.999  0.2832  0.0223 -0.0095
10328W        W25459   2.733   3.983   5.117 -0.2608  0.0924 -0.2475
10329W        W25460  13.654   4.591   1.143  0.1642  0.1801  0.2037
10330W        W25461   5.885   9.102  11.732 -0.1721  0.0764 -0.4022
10331W        W25462   3.571   7.074  15.128 -0.1746  0.1892  0.0444
10332W        W25463  12.646   7.836  13.311 -0.0160  0.0251 -0.0889
10333W        W25464   6.568  11.436   2.915 -0.1778 -0.1341 -0.0972
10334W        W25465  15.086   3.218  12.450 -0.1172 -0.0738 -0.0099
10335W        W25466   0.400  14.710  14.474 -0.1343  0.0570  0.1348
10336W        W25467  13.877   5.937   3.526 -0.1735 -0.2774  0.0030
10337W        W25468  15.067   2.887  13.741  0.0917  0.3584  0.0313
10338W        W25469   9.186   6.858   2.694  0.0717  0.4585  0.0145
10339W        W25470  15.077  16.793   3.594 -0.3074 -0.1071  0.0401
10340W        W25471   3.128  16.807  15.476  0.1037 -0.0793  0.0180
10341W        W25472  11.764   5.630   1.429  0.4224 -0.1335 -0.0670
10342W        W25473  18.408   6.181  12.325 -0.0374  0.1560 -0.2794
10343W        W25474   3.893  14.831  15.150  0.0210  0.4596 -0.1935
10344W        W25475  14.534  10.890  10.902  0.1185 -0.0927  0.2922
10345W        W25476  14.335  15.648  14.119  0.0932 -0.1104 -0.0283
10346W        W25477   6.290  11.566   3.345 -0.5246  0.2883  0.3587
10347W        W25478   7.286   9.855  12.381 -0.0381 -0.0016 -0.0877
10348W        W25479  11.284  13.330  13.468  0.0738 -0.1183 -0.1432
10349W        W25480  14.051  17.093   2.576  0.1873 -0.0086  0.1473
10350W        W25481   8.144  10.457   1.924 -0.2001  0.0674 -0.0720
10351W        W25482   5.303  15.196   0.499 -0.0066  0.0007 -0.0766
10352W        W25483   1.008   5.648   2.639  0.0722 -0.0038  0.0079
10353W        W25484  11.291  14.461   0.264 -0.0048 -0.1095 -0.2208
10354W        W25485   0.312  15.737  13.890  0.0784  0.1569  0.2525
10355W        W25486  15.336   1.997   5.766  0.0221  0.1989 -0.0797
10356W        W25487   5.309   4.772  12.859  0.0427  0.2388 -0.1127
10357W        W25488   4.871  16.192   5.902 -0.2652  0.1633 -0.1905
10358W        W25489  17.850  10.924   9.580 -0.1604  0.2885 -0.1978
10359W        W25490  11.746   9.275  11.422 -0.3950  0.1323 -0.1510
10360W        W25491   9.432  15.807   1.504  0.3894 -0.0738  0.3748
10361W        W25492  13.688   4.902  13.295  0.0004 -0.2058 -0.2123
10362W        W25493  13.628  10.149   4.341 -0.2767  0.1056 -0.0837
10363W        W25494   0.352   7.220   4.601 -0.0020 -0.1653  0.3325
10364W        W25495  11.726   3.408   2.049  0.2474  0.1715 -0.1630
10365W        W25496  17.148   9.733   2.982 -0.0047 -0.4964  0.2136
10366W        W25497  12.726   9.696  12.067  0.2445  0.0238  0.0565
10367W        W25498  17.798   0.317  15.210  0.1164 -0.2008  0.1911
10368W        W25499  14.843   0.664   2.858  0.1238 -0.1065  0.0637
10369W        W25500  13.135  12.816   1.998  0.1377  0.2545  0.1833
10370W        W25501   9.725   5.391   4.387 -0.3040  0.0164 -0.1305
10371W        W25502  16.860   2.709   1.675 -0.1592 -0.1509  0.1572
10372W        W25503   9.684   2.854  10.230  0.2007 -0.0462 -0.0623
10373W        W25504   2.149  17.747  13.851 -0.0179 -0.1456 -0.2534
10374W        W25505   3.933  18.363  14.985 -0.1520 -0.1627 -0.3450
10375W        W25506  14.326   4.946  13.802  0.1870  0.1063  0.1496
10376W        W25507  12.132  17.638  13.108  0.0613 -0.1793  0.0849
10377W        W25508  13.034   5.164  12.876  0.3120 -0.0476  0.0081
10378W        W25509   6.779  18.205   4.255  0.2025  0.0457 -0.1605
10379W        W25510  12.456   6.730   3.456  0.0568 -0.1152  0.0592
10380W        W25511  11.120  14.062   0.465  0.1263 -0.2906 -0.0667
10381W        W25512  11.339  12.073  13.581 -0.3267  0.1446  0.0093
10382W        W25513  13.552   1.824   5.611 -0.0021 -0.1793 -0.0509
10383W        W25514  18.528   5.522  10.475 -0.0828  0.1601  0.0608
10384W        W25515  11.464   3.967   3.553 -0.2391  0.1500  0.3088
10385W        W25516  15.990   3.535  11.635  0.1947 -0.1196  0.1578
10386W        W25517  10.703   3.327   0.969 -0.1422 -0.0646  0.0993
10387W        W25518   1.577   4.410  14.420 -0.0771 -0.2362  0.1209
10388W        W25519  16.801  12.470  10.927  0.0572 -0.3037 -0.1902
10389W        W25520   6.904   5.587  10.934  0.3423  0.1487  0.0401
10390W        W25521   7.591  12.169  14.381 -0.0670 -0.3090 -0.2917
10391W        W25522  15.727   4.631  10.804  0.1293  0.1315  0.0648
10392W        W25523  12.520  15.157  11.826  0.1473 -0.1002 -0.4474
10393W        W25524  15.153  11.150  15.353  0.1799 -0.2565 -0.0192
10394W        W25525   3.657  14.744  12.722 -0.0372  0.2931 -0.3108
10395W        W25526   3.759   7.905  11.400 -0.0234 -0.1052 -0.2398
10396W        W25527  14.507   8.404   5.603 -0.1157  0.0118 -0.2954
10397W        W25528  16.433   9.705  14.737  0.6284  0.1862  0.0439
10398W        W25529  12.675  16.745  12.924 -0.1143 -0.0082 -0.1492
10399W        W25530   9.958  15.201   1.840  0.2695 -0.0791  0.2169
10400W        W25531  11.608   7.384   1.503 -0.0638 -0.0637 -0.1637
10401W        W25532  18.420   1.579  10.573 -0.2614 -0.2064  0.2816
10402W        W25533   8.177   4.445  13.972  0.0805 -0.0526 -0.0290
10403W        W25534  17.336   6.798  12.089  0.2171 -0.0020  0.1344
10404W        W25535   6.191   9.344  12.349  0.4400  0.0339 -0.0824
10405W        W25536   5.041  18.124  12.754 -0.3344  0.1270  0.0129
10406W        W25537  16.068   4.631  12.854 -0.0331  0.1376  0.3869
10407W        W25538   9.199   9.865   3.498  0.0045 -0.0405 -0.0546
10408W        W25539  14.737   5.861  15.103 -0.1543 -0.0181 -0.4020
10409W        W25540   5.641  13.393  14.897 -0.0320  0.0546 -0.3921
10410W        W25541   5.573  16.811  13.381  0.1043  0.2563  0.0117
10411W        W25542   2.542   0.157   0.002 -0.3740  0.0346  0.2117
10412W        W25543  12.089  13.690   4.248  0.2011  0.1917  0.1060
10413W        W25544  17.753   6.961  15.719 -0.3210 -0.0209 -0.2189
10414W        W25545   8.525  14.584  13.501  0.0343  0.1278 -0.4088
10415W        W25546  12.396  15.082  14.026  0.1455  0.1703  0.2605
10416W        W25547   2.995  10.872   9.721 -0.0374  0.1487 -0.0799
10417W        W25548  12.643  16.101  10.471 -0.0493  0.1197  0.3075
10418W        W25549  11.189   9.103   1.492 -0.2403  0.1814 -0.0398
10419W        W25550  10.832   5.802   2.922  0.0951  0.1996  0.1139
10420W        W25551  10.826   0.651  11.454 -0.0884 -0.0422 -0.3060
10421W        W25552   1.694   3.717   6.033 -0.3485 -0.2771  0.2719
10422W        W25553   4.265   3.916  14.172 -0.2858  0.1345 -0.3470
10423W        W25554  18.183  13.143   2.011  0.0387 -0.0522 -0.1612
10424W        W25555   5.801  10.807   3.062  0.4336 -0.2806  0.3844
10425W        W25556   0.646  11.017  13.010 -0.0734 -0.2637 -0.0166
10426W        W25557   4.481   3.216   2.746 -0.0365  0.2452 -0.1471
10427W        W25558  12.739   2.613  10.880 -0.0307  0.2142  0.1483
10428W        W25559   0.569   8.888  12.169  0.1397 -0.0951 -0.1677
10429W        W25560  11.926   4.456  11.324  0.0870  0.0455  0.4298
10430W        W25561  13.014   8.107   3.955  0.2217 -0.3119 -0.0213
10431W        W25562   2.312  12.955   4.851 -0.2921  0.1179 -0.5008
10432W        W25563   7.552   2.997  12.361  0.0829 -0.0691  0.0571
10433W        W25564  13.057   5.508  14.624  0.1781  0.0342 -0.0537
10434W        W25565   2.192  12.671   4.001 -0.1810  0.0735  0.0139
10435W        W25566  11.107  13.801  14.956 -0.1277 -0.1999  0.0588
10436W        W25567   9.855   8.624   0.746 -0.0308 -0.0334 -0.3786
10437W        W25568  16.372  12.687  10.832 -0.0178 -0.2203  0.1035
10438W        W25569  12.804  10.440  10.755 -0.0687  0.0197  0.3652
10439W        W25570   4.431  16.281   4.720 -0.0130 -0.1897  0.0709
10440W        W25571   3.329   5.590  11.114 -0.3216  0.2302  0.1456
10441W        W25572  11.208  16.810   5.136 -0.1981 -0.1284 -0.3916
10442W        W25573   1.485  13.762  13.574  0.1517  0.4982 -0.1563
10443W        W25574  11.099  11.719   3.213  0.0081  0.0616 -0.1817
10444W        W25575  10.774   0.687  12.487 -0.1523 -0.0349  0.4090
10445W        W25576  13.009  10.490   2.727 -0.0936 -0.4050  0.1609
10446W        W25577  14.745  17.185  14.468  0.1764 -0.1081 -0.0638
10447W        W25578   6.676   2.689   5.219  0.0788  0.0821  0.1587
10448W        W25579  14.848   0.567   2.135 -0.1200 -0.0711  0.2498
10449W        W25580  18.143  14.465   5.218 -0.0230  0.1348  0.4694
10450W        W25581   6.155  14.257   5.603 -0.0054  0.4337 -0.0626
10451W        W25582   0.402   2.353  13.029 -0.2143 -0.3712  0.1403
10452W        W25583   1.883  16.726   3.931  0.0408 -0.0820 -0.1141
10453W        W25584  13.349   9.787  11.291  0.2614  0.0120  0.1094
10454W        W25585   2.517  10.018   1.530  0.0277  0.2831  0.1730
10455W        W25586   3.981  10.905   2.631 -0.2197  0.2037 -0.0883
10456W        W25587   3.552   3.240  13.348  0.1421  0.2143 -0.0370
10457W        W25588  10.152   5.177   2.769  0.1921 -0.2549  0.2931
10458W        W25589   7.443  18.471   0.329  0.2005  0.3669  0.0776
10459W        W25590   4.666   9.196  13.438 -0.2846  0.0918  0.1380
10460W        W25591  16.312   3.872   1.862 -0.2105  0.1110  0.0878
10461W        W25592  17.320  11.837   5.150  0.3317 -0.1101 -0.2767
10462W        W25593  14.138   6.822  10.038  0.0299 -0.1225 -0.0115
10463W        W25594   7.601  11.224  11.988  0.1805  0.0738 -0.1914
10464W        W25595  15.801   7.760   0.388  0.2682 -0.1369 -0.0804
10465W        W25596   0.900  18.711   1.901  0.2405  0.2813 -0.0761
10466W        W25597  16.584   6.698   1.385 -0.0220  0.1044 -0.0048
10467W        W25598  12.218  14.515   3.331  0.0861  0.1499  0.1380
10468W        W25599   0.411   4.431   3.499  0.1560  0.2290 -0.2844
10469W        W25600  12.871   8.190  15.118  0.0065 -0.0765  0.0885
10470W        W25601  17.144  13.006   4.750  0.1206  0.0634  0.0646
10471W        W25602  13.033   3.664  12.017  0.1439  0.0245  0.1225
10472W        W25603   6.197  11.885  14.795 -0.1023 -0.2367 -0.0586
10473W        W25604  18.416  12.845  11.276  0.0149  0.2582  0.1893
10474W        W25605  18.568  15.510  13.843  0.1197  0.3101  0.2572
10475W        W25606  14.349  14.931  15.185  0.1177 -0.2960  0.0911
10476W        W25607   5.222  13.153  13.486 -0.0301  0.3164  0.3570
10477W        W25608  17.274  12.229   4.849  0.1363 -0.1337 -0.2563
10478W        W25609   8.190   1.396   4.809 -0.1365 -0.0370  0.2528
10479W        W25610  17.414  12.776  15.556 -0.0697  0.1917  0.1940
10480W        W25611   9.168  17.787   4.567 -0.1327  0.0459 -0.0903
10481W        W25612   8.254   1.048   0.192  0.3033  0.0854 -0.0564
10482W        W25613   6.713  14.545  13.172 -0.0744 -0.2393  0.0554
10483W        W25614  15.582  10.347   1.026 -0.2730  0.0001 -0.0362
10484W        W25615  12.974   2.583   1.337 -0.2263 -0.1800 -0.0129
10485W        W25616   7.197  14.646   3.738  0.0688  0.2286 -0.2278
10486W        W25617   6.237  16.982  11.021 -0.0622 -0.0275 -0.2372
10487W        W25618   4.788   7.882  15.790 -0.0885  0.2502 -0.2119
10488W        W25619  16.927   8.298  15.674  0.3684  0.1942  0.4881
10489W        W25620   0.856  13.567  11.724  0.0729 -0.1468 -0.0584
10490W        W25621  18.272  12.324   2.034 -0.2051  0.1417 -0.0583
10491W        W25622   0.448  10.387   1.034  0.3159 -0.3633 -0.0975
10492W        W25623   6.945   8.116   1.285 -0.2304  0.1522 -0.2000
10493W        W25624   2.125  16.173   6.034  0.1593 -0.2195  0.1262
10494W        W25625   4.904   4.931  15.527  0.2394  0.0601 -0.2130
10495W        W25626  12.837  11.694  14.750  0.2214 -0.0029  0.0972
10496W        W25627  10.554  13.700  15.784 -0.4064 -0.3258 -0.0460
10497W        W25628   3.317   0.424   6.651 -0.3206  0.1516  0.1402
10498W        W25629   5.627   8.067  14.521  0.0538 -0.1923 -0.5918
10499W        W25630   2.796   2.085  13.676 -0.1426 -0.0491  0.3865
10500W        W25631   0.319   3.318  11.960  0.0298 -0.0363 -0.2013
10501W        W25632  17.406   4.471   3.598 -0.2033  0.0541  0.1223
10502W        W25633  14.698  11.912  13.325 -0.0692  0.0529  0.0128
10503W        W25634   7.289   5.540  11.222 -0.1848 -0.1475 -0.3375
10504W        W25635   3.005  11.433  11.885  0.0816  0.1843 -0.1429
10505W        W25636   3.682   2.362  11.546  0.4879 -0.2406 -0.0054
10506W        W25637   1.054   7.468   3.614  0.0318 -0.1208  0.0774
10507W        W25638   2.841  11.196   3.349 -0.0975  0.1773 -0.2601
10508W        W25639   3.687  14.790  14.253  0.0919 -0.2225  0.4330
10509W        W25640  18.108   4.820   4.228  0.0086  0.3450 -0.0797
10510W        W25641  14.221   1.730  11.856  0.0344 -0.0146 -0.2147
10511W        W25642   0.511   0.804  10.379  0.0911  0.4244 -0.5454
10512W        W25643  14.231  13.296   5.261 -0.2291  0.0171 -0.0417
10513W        W25644   8.707   3.908  10.971  0.1101 -0.0405 -0.0727
10514W        W25645   8.104  10.782  11.965  0.1690  0.0500 -0.0722
10515W        W25646  14.057  12.584   2.343 -0.0160 -0.0868 -0.2343
10516W        W25647  18.215   4.686   2.235  0.2752  0.2030  0.1147
10517W        W25648  17.540   9.422   2.086 -0.1898  0.0436 -0.1473
10518W        W25649  14.849  11.406   2.923  0.2088  0.3209 -0.0764
10519W        W25650   8.495   6.515   1.361 -0.2146 -0.2292 -0.0239
10520W        W25651  14.415  17.086  12.566 -0.1358  0.0203 -0.1920
10521W        W25652  11.353  15.222   2.363 -0.1228 -0.4430  0.0967
10522W        W25653  18.626  13.059  15.046  0.1269  0.1010  0.1101
10523W        W25654   1.682  17.675   2.542 -0.1455 -0.2477 -0.1865
10524W        W25655   2.103   2.687   3.754 -0.1551  0.1012 -0.1822
10525W        W25656   6.716   4.822   6.592  0.3270 -0.0701  0.0562
10526W        W25657   2.897   9.412  12.247  0.1858  0.0648  0.4763
10527W        W25658   9.269   7.337  13.495 -0.1145  0.2010 -0.0510
10528W        W25659   1.439   7.308  11.019 -0.0782  0.2178 -0.0324
10529W        W25660  15.313  14.071  13.082 -0.1143  0.4033  0.5352
10530W        W25661   9.257  15.193  10.651 -0.1074 -0.3560 -0.1116
10531W        W25662  18.246   1.772   2.879 -0.2476  0.1986  0.0621
10532W        W25663  12.900   7.284  14.768  0.1246 -0.0361  0.0533
10533W        W25664  16.546   8.840  13.129 -0.0249  0.1500 -0.1871
10534W        W25665  17.549  11.702   2.980  0.0501 -0.1338 -0.0564
10535W        W25666   1.514  18.493  10.499 -0.0693  0.1378  0.1474
10536W        W25667   2.107   6.825   4.182 -0.2331 -0.2422  0.0792
10537W        W25668   5.247   3.528   2.484  0.4230 -0.3641  0.0029
10538W        W25669  15.371  17.761   5.326 -0.2813 -0.0238  0.1016
10539W        W25670  11.321   6.375  12.615  0.2389 -0.2056  0.1214
10540W        W25671   4.233  13.908  15.034 -0.0565  0.0739  0.1644
10541W        W25672  10.741  16.722   5.106  0.1328 -0.1519 -0.1190
10542W        W25673  15.795   8.521  12.784  0.1459  0.2565  0.0928
10543W        W25674  12.614   7.592  13.914  0.1463  0.0991 -0.1998
10544W        W25675  13.222   2.123  14.028  0.1504 -0.0383 -0.2297
10545W        W25676  15.241   4.059  14.336  0.2809 -0.0157  0.2832
10546W        W25677  14.648  13.300  14.657  0.0170 -0.1968  0.1504
10547W        W25678  16.480   0.653   2.638  0.0521  0.0044  0.2460
10548W        W25679  13.169  13.215   2.311 -0.0141  0.2171  0.0043
10549W        W25680   8.885   7.381   9.793  0.2498 -0.0908 -0.1484
10550W        W25681  15.803   6.383   2.261  0.1586  0.0678 -0.2104
10551W        W25682   1.109   7.268   4.085 -0.0171  0.0015 -0.0653
10552W        W25683   7.086  14.535  12.838 -0.1399  0.2874 -0.0496
10553W        W25684   3.744  18.225  12.986  0.0816  0.0576  0.2851
10554W        W25685  17.338   5.600  15.555 -0.3313  0.1335  0.0662
10555W        W25686  16.095  17.744  13.044 -0.0060 -0.1571  0.3662
10556W        W25687  10.929  17.421  14.294  0.1762  0.4603 -0.0067
10557W        W25688   2.168  17.058  14.394 -0.0422  0.3135  0.0468
10558W        W25689  17.820   2.054  11.243  0.0630 -0.0395 -0.2429
10559W        W25690  14.068  14.354   1.137 -0.0342  0.1188  0.1690
10560W        W25691  17.005   4.939   2.827 -0.2296 -0.0914  0.0699
10561W        W25692   8.699   0.726   4.340  0.0214  0.4004 -0.2510
10562W        W25693   5.009  15.891  11.038  0.1546  0.0055  0.0568
10563W        W25694  14.254  16.078   1.823  0.0073  0.2359  0.3565
10564W        W25695  14.368   3.914  13.961  0.3565 -0.0178 -0.0427
10565W        W25696  10.276   9.969   1.094  0.2672  0.0041  0.0001
10566W        W25697  15.024   3.586  15.143 -0.2643 -0.4928  0.0718
10567W        W25698   1.914  18.457   3.392 -0.1208  0.1536  0.2822
10568W        W25699  15.359   0.341  12.821 -0.0347  0.0786  0.0460
10569W        W25700   2.213   2.885  14.685  0.1393 -0.0198  0.0472
10570W        W25701   0.338   2.389   0.571 -0.1259  0.0400 -0.1274
10571W        W25702  18.177  15.062  14.380 -0.1717  0.0862 -0.0820
10572W        W25703   8.827   7.936   2.989  0.0666 -0.1115 -0.2444
10573W        W25704   9.873   9.421  15.496  0.0589 -0.0896 -0.2334
10574W        W25705  13.723  11.788  14.745  0.0095  0.0965 -0.1909
10575W        W25706   5.973  10.287   3.908  0.1177 -0.0049 -0.0010
10576W        W25707  14.433  11.698  15.714  0.1035 -0.0513 -0.1041
10577W        W25708  12.192  16.440  15.579 -0.3757  0.1658  0.2511
10578W        W25709  16.302   4.190  11.383 -0.1395  0.1321  0.1671
10579W        W25710   9.798   6.263  14.103  0.0440 -0.1402 -0.1845
10580W        W25711  10.228  10.340   3.296  0.2068  0.0699 -0.3110
10581W        W25712   2.677   4.080   5.602  0.0958 -0.1521  0.0877
10582W        W25713   8.462  12.180   2.298  0.2111  0.0589 -0.1575
10583W        W25714   3.690  12.329   3.471  0.0626  0.0090  0.5112
10584W        W25715  12.951   6.013  11.200 -0.0613 -0.5182 -0.1167
10585W        W25716   7.763   8.579   0.166  0.2517 -0.1728 -0.0251
10586W        W25717  14.064   2.794  13.358  0.0105  0.0444 -0.3101
10587W        W25718   9.963   2.139   2.227 -0.1073 -0.5320 -0.0329
10588W        W25719  11.732   7.338   4.860 -0.0542 -0.1399 -0.0460
10589W        W25720  15.068  15.918  13.712  0.3507  0.0640  0.1762
10590W        W25721   2.685   9.577   0.380  0.2754  0.0560  0.1495
10591W        W25722   8.393  18.402   4.678 -0.3182  0.2316 -0.4062
10592W        W25723   6.236  17.832  12.028  0.0832  0.0313 -0.1044
10593W        W25724   6.639  13.949   3.772 -0.0561 -0.0867  0.0134
10594W        W25725  10.013  12.866  15.595  0.1124 -0.1164 -0.1332
10595W        W25726  12.238  16.976   0.471  0.0096 -0.2533  0.0373
10596W        W25727   4.075   5.771   0.982  0.0456  0.1507  0.3393
10597W        W25728   8.946  18.378  15.534  0.0428 -0.0571 -0.2260
10598W        W25729   5.868   7.876  11.500 -0.0453 -0.2726  0.1002
10599W        W25730  15.316   4.449  12.066 -0.1137 -0.0711  0.3946
10600W        W25731   2.565  16.438   2.722  0.0177 -0.1036  0.0917
10601W        W25732  17.870  10.878   2.043 -0.0920  0.1781 -0.0345
10602W        W25733  12.540  10.848  14.213 -0.1242  0.1002  0.0056
10603W        W25734   3.999   7.582  10.997 -0.0076 -0.2605 -0.1868
10604W        W25735   6.343   0.322  11.389  0.0259  0.2980  0.0612
10605W        W25736   4.396   0.011  15.652 -0.2106  0.2856  0.2948
10606W        W25737  17.029  16.339   3.288 -0.1896  0.0629  0.0486
10607W        W25738  16.054  11.176  13.973 -0.0634  0.1432 -0.1806
10608W        W25739   6.043   6.806   2.676  0.1402  0.1198 -0.1440
10609W        W25740  15.943   2.897   0.043 -0.1422  0.0163 -0.0876
10610W        W25741   4.292  16.565  11.520 -0.0729 -0.0082 -0.0171
10611W        W25742   3.183   1.120   0.427 -0.3484  0.2286 -0.0398
10612W        W25743  11.863  10.203  11.564 -0.1205 -0.1168  0.1127
10613W        W25744   7.675  14.764   4.523  0.2089 -0.2134  0.0343
10614W        W25745  11.516  16.542   1.054 -0.1761  0.1316  0.1091
10615W        W25746   6.670   3.722  14.838 -0.4374 -0.7845 -0.1425
10616W        W25747   6.734   0.891   1.939  0.1222 -0.0591  0.1148
10617W        W25748   3.433   3.689   0.181  0.0344  0.3729  0.3288
10618W        W25749   4.208   2.283   6.235  0.2036 -0.3960 -0.4103
10619W        W25750   8.825   5.149  14.201 -0.3007 -0.0139  0.1038
10620W        W25751   0.540   2.674   0.220 -0.1656  0.3375 -0.2385
10621W        W25752   1.926   7.464   5.224  0.2908 -0.1416 -0.0895
10622W        W25753   4.806   3.537  11.920 -0.4060 -0.2009 -0.0732
10623W        W25754  14.254  16.110   9.776 -0.1701  0.2541  0.1080
10624W        W25755  14.240   2.581  15.368  0.0691 -0.0350  0.2452
10625W        W25756  13.971   3.294   0.424 -0.1422 -0.1050 -0.2609
10626W        W25757   8.813   6.658   0.356  0.0530  0.0119  0.0679
10627W        W25758   5.725   1.343  11.271  0.0563 -0.2381  0.3090
10628W        W25759   5.062   7.324  11.407 -0.0427  0.0321  0.1277
10629W        W25760   8.452   8.758  14.241 -0.1988  0.2941 -0.0881
10630W        W25761  12.497  14.259   0.419 -0.2670  0.4365  0.1931
10631W        W25762   8.502  10.780   1.053  0.3844 -0.0410 -0.0800
10632W        W25763   8.486  18.654  15.725 -0.1876  0.4802  0.1651
10633W        W25764  17.034  10.797  11.023  0.2507  0.0577  0.1533
10634W        W25765   2.438  13.543  15.692 -0.0190  0.5509  0.1829
10635W        W25766  15.276   6.934   2.337 -0.1015 -0.0461 -0.0216
10636W        W25767  17.878  16.618   5.255  0.1659 -0.0138 -0.0118
10637W        W25768  18.123   2.749  13.079  0.2966  0.3093  0.2637
10638W        W25769  15.505   9.335  11.277  0.0130 -0.0211 -0.0413
10639W        W25770  14.621  12.480  12.995 -0.0044 -0.0478 -0.1616
10640W        W25771  10.203   3.105   3.110 -0.0331 -0.0886 -0.0554
10641W        W25772  14.729   8.010  13.339 -0.1936  0.0664 -0.1099
10642W        W25773   2.961   0.729   0.849 -0.0328  0.0317  0.5924
10643W        W25774  13.393   0.086  10.283  0.0411 -0.0218 -0.1648
10644W        W25775   8.441   2.011  12.789  0.1426  0.0844  0.1290
10645W        W25776   2.773   2.094  11.677 -0.1135 -0.1416  0.1253
10646W        W25777   8.299   6.499  14.941 -0.3830 -0.0368  0.0943
10647W        W25778  13.017   2.609  14.191 -0.4332 -0.4108  0.1147
10648W        W25779   6.913   4.474   2.321 -0.0731  0.2400  0.0463
10649W        W25780   3.535   8.069   6.070  0.4200 -0.4899  0.1808
10650W        W25781  13.802   6.446   3.392  0.2395 -0.1478 -0.1600
10651W        W25782  16.710   7.868   1.842  0.1273 -0.0577  0.0221
10652W        W25783   7.615   8.520  14.782 -0.3130  0.0117 -0.1076
10653W        W25784  15.524   5.317  12.872 -0.3081 -0.1852  0.2020
10654W        W25785  12.215   9.136  11.665 -0.1560  0.0197  0.2607
10655W        W25786   6.548   2.120   4.334  0.1935 -0.1552 -0.1695
10656W        W25787   7.378   4.301   0.839  0.0652 -0.0999 -0.0629
10657W        W25788   6.375  18.310  13.009  0.0612  0.0637 -0.1146
10658W        W25789  18.005  18.022   1.360  0.1520  0.0200 -0.2755
10659W        W25790  18.342   3.524   1.571 -0.2272  0.1869  0.0973
10660W        W25791   5.243   1.318   1.240  0.0634 -0.0674  0.0762
10661W        W25792   9.538  11.250   2.839 -0.1117  0.2058  0.2756
10662W        W25793  14.151  15.106  13.748  0.5982  0.0949 -0.0001
10663W        W25794   3.880  13.869  13.039  0.3071  0.3666 -0.0379
10664W        W25795   3.448   1.543  14.012 -0.2025 -0.1762 -0.1361
10665W        W25796  10.619   7.385  10.465 -0.0085  0.4518 -0.1871
10666W        W25797   3.566   8.470  12.947  0.2649  0.3476 -0.1901
10667W        W25798  11.153   6.795   2.042 -0.1019  0.2371 -0.2926
10668W        W25799   5.834  16.917   1.680  0.3808 -0.2417 -0.0403
10669W        W25800   7.698   5.698   3.953  0.1607  0.4024  0.2886
10670W        W25801   5.604  17.569   1.110  0.0598 -0.0345  0.2632
10671W        W25802  17.298  15.042  11.222 -0.0585  0.0960 -0.0038
10672W        W25803   6.811  12.633   1.720  0.0078  0.0908 -0.0384
10673W        W25804  11.235   9.627   0.215 -0.0217  0.0624 -0.0738
10674W        W25805  18.308  14.461  15.216  0.2085  0.0053  0.1779
10675W        W25806   3.433  18.155  12.246 -0.1031 -0.2099 -0.2160
10676W        W25807   1.398   7.058  14.885  0.0257 -0.0615 -0.2302
10677W        W25808  15.181  15.399  13.686  0.0424 -0.1079 -0.1762
10678W        W25809   0.176   6.231  13.028 -0.1977 -0.1347 -0.4026
10679W        W25810   6.293   4.103   3.649 -0.0052 -0.3996 -0.0539
10680W        W25811   4.245   0.835  14.200  0.0181  0.1078 -0.0337
10681W        W25812   7.896  11.430   9.457  0.2887  0.1493  0.0335
10682W        W25813  10.505  10.885   5.363 -0.0727 -0.1351  0.4457
10683W        W25814  11.879   0.084  12.352 -0.0214 -0.0999 -0.2298
10684W        W25815   0.711  14.012   2.251 -0.0596 -0.0123 -0.1337
10685W        W25816   8.250   7.749  12.635  0.1927  0.2582  0.4216
10686W        W25817  10.056   5.562  11.861  0.0583  0.0610 -0.0356
10687W        W25818   7.268   8.255  14.238  0.1976  0.1165 -0.3607
10688W        W25819   1.596   2.560   4.008  0.0251  0.0817 -0.2277
10689W        W25820   3.741   6.130   5.110 -0.0415  0.1491 -0.2585
10690W        W25821  10.689   7.462   3.044 -0.0646 -0.0662 -0.2279
10691W        W25822   4.688   7.696  14.910  0.2993 -0.4570 -0.0048
10692W        W25823  16.662   3.459   0.177 -0.2961  0.1375  0.0127
10693W        W25824   8.998   5.790   4.244  0.0848 -0.1273 -0.0375
10694W        W25825  11.237  10.679   3.655 -0.0601  0.1951 -0.1541
10695W        W25826   6.579   4.129   2.725  0.2407 -0.0411 -0.1033
10696W        W25827  12.150   8.862  14.536  0.1512  0.2438 -0.0912
10697W        W25828   3.684   4.563   1.733 -0.1571  0.1514  0.2222
10698W        W25829   2.940   5.480  14.542 -0.1325 -0.1639  0.1722
10699W        W25830   0.102   3.974   1.737 -0.1255 -0.3206  0.0326
10700W        W25831  10.537  12.053  11.098 -0.1149  0.1675 -0.1331
10701W        W25832   5.197  16.503   0.161  0.0869  0.2532  0.3511
10702W        W25833   0.904   7.111   3.225  0.0651  0.1225  0.0259
10703W        W25834   2.764  10.688   3.246 -0.1773  0.0791  0.3870
10704W        W25835   7.249  17.672  15.536  0.2033 -0.0164  0.2516
10705W        W25836   8.691  10.566  12.922 -0.3419 -0.2328 -0.0527
10706W        W25837   6.341  11.049   4.881 -0.3341  0.2763  0.2927
10707W        W25838  18.457  16.268  15.663 -0.2382  0.1192  0.1554
10708W        W25839   5.888  17.901  13.870  0.1059 -0.1397 -0.1998
10709W        W25840  11.353  18.068  12.087 -0.2500  0.1332 -0.0115
10710W        W25841  16.821  10.891  14.241  0.2138 -0.1589 -0.3593
10711W        W25842   1.106   7.852  14.357 -0.1579  0.0005  0.3266
10712W        W25843   2.665   0.169   3.775 -0.0778  0.2369 -0.0850
10713W        W25844   6.775   5.364   9.883  0.0431 -0.0693  0.1451
10714W        W25845   5.814  12.939  12.032 -0.0007 -0.0883  0.0146
10715W        W25846   8.518   0.968   2.145 -0.1993  0.0625 -0.0545
10716W        W25847  10.909   7.162  15.064 -0.3957 -0.0785  0.1981
10717W        W25848   4.439   6.456   2.214 -0.2134 -0.1254 -0.0802
10718W        W25849  14.164  15.781   3.723 -0.0093  0.1532  0.0084
10719W        W25850  16.895  17.031   1.899  0.0673 -0.1836  0.1365
10720W        W25851  11.481  12.992   5.734  0.1355 -0.1478  0.0214
10721W        W25852  18.465  12.883   4.281 -0.0997  0.1666 -0.0701
10722W        W25853   6.219  11.187  13.643 -0.0534 -0.1339 -0.4446
10723W        W25854  16.374  15.870   1.831 -0.0481  0.1247 -0.0212
10724W        W25855   1.530   5.583   4.941  0.3132 -0.3419 -0.0758
10725W        W25856   6.588  12.923  15.712  0.3911  0.0745  0.3884
10726W        W25857   4.155   7.136   4.975  0.3661 -0.1208 -0.2645
10727W        W25858  15.691   7.882   3.392  0.0398 -0.2682 -0.2847
10728W        W25859  12.513  16.929  15.786  0.2028 -0.2355  0.0029
10729W        W25860   6.935   4.130   0.406 -0.1520  0.1539 -0.1554
10730W        W25861   2.220   2.212   2.665  0.1163  0.1432  0.0526
10731W        W25862   4.279   7.491   3.643  0.0715  0.0329  0.1892
10732W        W25863   4.175   8.132   5.322 -0.2401  0.3986  0.0404
10733W        W25864  17.448   6.249  13.400 -0.1301 -0.1628 -0.0312
10734W        W25865   6.554   8.492  13.158  0.0778  0.3505  0.1476
10735W        W25866  12.059   5.943   2.172 -0.3673  0.3298 -0.2438
10736W        W25867  16.293  17.187   1.918 -0.3869  0.0230  0.2615
10737W        W25868  17.417  10.716  12.247  0.0315 -0.2567 -0.1197
10738W        W25869  12.798  10.690  12.862  0.1922  0.0566 -0.0428
10739W        W25870  15.099  13.249  12.722 -0.1987 -0.1726 -0.1149
10740W        W25871   1.550   4.408  12.676  0.0420 -0.1006 -0.1184
10741W        W25872   9.040   3.549  13.876  0.1405 -0.3130  0.0498
10742W        W25873  16.574  12.685  14.178  0.0003  0.1071 -0.0227
10743W        W25874   3.174  12.755  14.427 -0.1425 -0.2392 -0.0600
10744W        W25875   1.509   4.546  13.179 -0.0860  0.0943 -0.1076
10745W        W25876  12.939  16.850   4.605  0.0434  0.1097  0.0019
10746W        W25877   0.453  16.959  13.051 -0.3277  0.0947  0.0169
10747W        W25878  18.560   5.268   9.927  0.2831 -0.1130 -0.0652
10748W        W25879   2.341   1.730   3.574 -0.2173 -0.1119  0.1595
10749W        W25880   2.203   5.130  15.214 -0.2551 -0.1374  0.2736
10750W        W25881   7.024  17.334  13.945 -0.0469 -0.1429 -0.2394
10751W        W25882   2.802   2.561   4.149 -0.1495  0.0212 -0.2903
10752W        W25883   6.160  10.733  11.123  0.0401  0.1474 -0.2392
10753W        W25884   8.555   9.244  12.495 -0.0187  0.1446  0.0761
10754W        W25885   7.112   4.924   2.985  0.0050 -0.1280 -0.0522
10755W        W25886   6.452  13.881   5.089  0.1752  0.0363  0.1118
10756W        W25887  12.493  11.117  12.992  0.1996 -0.0971 -0.1237
10757W        W25888   8.800   8.481  12.509 -0.2455 -0.3072 -0.0195
10758W        W25889  16.731   2.845  15.088 -0.1319  0.1780 -0.0193
10759W        W25890   7.039   1.014   3.102  0.0416  0.0134 -0.0815
10760W        W25891  18.410   6.460  15.314 -0.1011  0.1256  0.1284
10761W        W25892   5.505   1.331   3.854 -0.1928  0.3851  0.1392
10762W        W25893  13.032   0.644  13.639 -0.0210 -0.2893 -0.2683
10763W        W25894   4.974   0.367  15.684 -0.2798  0.1853 -0.0439
10764W        W25895  17.912   9.260  13.714 -0.3543  0.2182  0.0244
10765W        W25896  16.498   7.289   3.610 -0.0031  0.0017 -0.1860
10766W        W25897  14.986   6.633   3.607  0.0990  0.1099  0.4568
10767W        W25898  11.806  14.283  14.430  0.0748 -0.3266 -0.2527
10768W        W25899  13.943   2.145  15.050 -0.1895  0.0438  0.3344
10769W        W25900  14.879  12.038  11.883  0.5212 -0.2772 -0.2249
10770W        W25901  16.044   7.957  15.776  0.1958 -0.1621 -0.1332
10771W        W25902   5.511   2.503  12.544  0.2433  0.2950  0.3506
10772W        W25903  12.416   1.473  14.606  0.0651  0.1736 -0.1000
10773W        W25904   5.705  11.679   2.710  0.0417  0.0297  0.0729
10774W        W25905   0.837  14.672   0.884 -0.1142  0.6036 -0.1204
10775W        W25906   5.236  14.569   0.468 -0.0500  0.3441  0.4662
10776W        W25907   3.223   6.812   2.561 -0.1304 -0.0414 -0.0484
10777W        W25908   9.253   4.221   4.695  0.0040 -0.2152 -0.2064
10778W        W25909   7.848   1.034   0.426 -0.0392 -0.0770  0.2005
10779W        W25910   9.824   0.916   1.423  0.3258  0.1579 -0.1150
10780W        W25911  14.483   4.232   2.018  0.1249  0.0699 -0.0597
10781W        W25912   7.861   4.712  15.299 -0.0129  0.3973 -0.3611
10782W        W25913   2.112  15.457   4.388  0.1376  0.1197  0.1811
10783W        W25914  13.068   0.264  13.291  0.1375 -0.2691 -0.2634
10784W        W25915  16.198   3.253  15.619  0.2578  0.0136 -0.1791
10785W        W25916  15.849   9.399   3.711  0.0780 -0.0365  0.2236
10786W        W25917   5.702   3.247  14.003  0.0392  0.1733 -0.1236
10787W        W25918   5.395  10.357  13.402 -0.3144  0.0223  0.1911
10788W        W25919  17.476   1.449   2.252 -0.0523  0.0707 -0.2189
10789W        W25920   5.764  13.097   1.274  0.0134 -0.2242 -0.0985
10790W        W25921   4.382  14.691   0.828 -0.1354 -0.1777  0.0822
10791W        W25922  11.542   4.847   3.125 -0.4904 -0.0430  0.0633
10792W        W25923   2.081   2.457   5.704 -0.0014 -0.1314  0.0463
10793W        W25924   0.637   1.927   5.319  0.2368 -0.0494 -0.1614
10794W        W25925  15.470  13.737   2.370  0.0588  0.1966 -0.1695
10795W        W25926   5.146   2.467   3.264 -0.1285  0.2020  0.0140
10796W        W25927  10.001  14.966  12.931  0.0678 -0.0892 -0.0793
10797W        W25928   0.332   8.837  10.219 -0.3125  0.1381 -0.0801
10798W        W25929   8.252   9.086  12.006  0.1072  0.0959 -0.0620
10799W        W25930  12.334   5.091   5.773  0.0397 -0.0288 -0.0361
10800W        W25931   9.482  11.803  10.970  0.2864 -0.2271  0.0402
10801W        W25932   5.499  18.646  11.083  0.0484  0.1558  0.1801
10802W        W25933  12.719  10.627   0.026 -0.0004 -0.0002  0.1183
10803W        W25934   8.489   5.640  11.220 -0.2974 -0.3677 -0.1002
10804W        W25935  17.607   8.774   3.930 -0.1182  0.1670  0.0303
10805W        W25936   9.671   1.983  11.560 -0.1062 -0.0595  0.1245
10806W        W25937   5.969   0.794   4.466 -0.0071 -0.0347 -0.0366
10807W        W25938  15.053  12.318  11.436  0.2787  0.0965  0.1392
10808W        W25939  14.482  15.825   1.000  0.3767  0.3099 -0.0946
10809W        W25940   8.089   9.010   0.202  0.2411  0.3071 -0.4253
10810W        W25941   6.115  17.765   1.144  0.0085  0.1824 -0.0829
10811W        W25942   0.935  13.087   5.524  0.1174  0.0580 -0.1622
10812W        W25943   8.380  11.531  15.221 -0.4874 -0.0334  0.1805
10813W        W25944  13.915   2.415  14.581 -0.0368 -0.0151 -0.1463
10814W        W25945   7.509  15.263   1.748  0.0467 -0.2256 -0.3363
10815W        W25946  17.212   8.938   4.890  0.2836 -0.1853  0.0978
10816W        W25947   2.157   7.865  15.034  0.0510 -0.2219  0.3050
10817W        W25948   3.532  13.200  14.585  0.0745  0.2918 -0.1907
10818W        W25949   9.108  16.512  11.200  0.0212  0.2387  0.2400
10819W        W25950  15.089   3.600   1.625  0.0416 -0.1150  0.0955
10820W        W25951   2.553   7.417   0.102  0.2061  0.3676  0.0093
10821W        W25952  16.748   6.916   5.366  0.1280 -0.0823 -0.0538
10822W        W25953   6.986  17.483   2.285  0.1478 -0.2309 -0.0778
10823W        W25954   6.442   6.817   9.785  0.2855 -0.1995  0.3787
10824W        W25955  15.843  13.353   4.658  0.0740 -0.1125  0.1121
10825W        W25956  16.215   3.356   2.046  0.0382  0.1959  0.1805
10826W        W25957   3.486   8.802  12.554 -0.1110  0.3986 -0.0021
10827W        W25958  17.490  12.738   5.063  0.1766  0.0843 -0.2533
10828W        W25959  15.261  14.622   3.454 -0.0700 -0.2886 -0.4313
10829W        W25960  10.543   7.646   3.527 -0.1644 -0.1379  0.1064
10830W        W25961   9.748   3.812   1.645  0.0036 -0.1559 -0.0131
10831W        W25962   6.088  15.564  14.629 -0.3206 -0.0792  0.0153
10832W        W25963  15.980  10.343   1.825  0.0408  0.1294  0.2978
10833W        W25964   5.336   2.773   1.832 -0.0210 -0.1984  0.3841
10834W        W25965  17.801  14.146   2.449  0.0818 -0.1874 -0.0103
10835W        W25966   4.773  10.330   1.430 -0.1744  0.0283 -0.0188
10836W        W25967  18.170  16.505   0.232 -0.1034 -0.0927 -0.1435
10837W        W25968   4.729  16.293  10.680  0.1761  0.1076  0.0422
10838W        W25969  15.507   0.768   0.506 -0.0706  0.2324  0.1303
10839W        W25970   7.321   4.728   4.412 -0.0600  0.0388  0.0599
10840W        W25971   0.119   1.640   0.004  0.1274  0.0169 -0.0977
10841W        W25972   9.460  13.092   4.254 -0.0652  0.0831 -0.0512
10842W        W25973   0.211   7.830  15.072 -0.1198 -0.1144 -0.0261
10843W        W25974   9.041   8.729  10.199 -0.2563  0.0806  0.1463
10844W        W25975  13.378   6.518  11.130  0.1183 -0.0575 -0.1944
10845W        W25976   5.275  15.693  13.659  0.1005  0.0511  0.3481
10846W        W25977   1.762  14.075   6.121  0.0224  0.0699  0.2129
10847W        W25978   0.586  17.549  12.616  0.3757 -0.1131 -0.0512
10848W        W25979  15.700  14.000  12.282 -0.0472 -0.1832  0.2396
10849W        W25980  13.238  11.928   1.115  0.3502 -0.2819  0.2561
10850W        W25981   5.903  17.792   2.074  0.3609 -0.0594  0.0797
10851W        W25982  13.899  13.582   0.033 -0.0291  0.3848  0.3004
10852W        W25983  10.545   9.363  14.070 -0.3903 -0.0383 -0.2944
10853W        W25984   9.432   3.067   0.652  0.0147 -0.1645 -0.3227
10854W        W25985   9.956  15.951   3.244 -0.3887  0.0212 -0.2241
10855W        W25986  14.363   9.819  14.716 -0.2586  0.1664 -0.3247
10856W        W25987   1.429   3.070   1.771  0.4532  0.3108 -0.1585
10857W        W25988   0.529  12.878  11.123  0.2086  0.0812  0.1784
10858W        W25989  16.483   7.714  10.888 -0.0468 -0.0165  0.0442
10859W        W25990  14.819   8.163  13.778  0.0571  0.2166  0.0763
10860W        W25991   9.400  10.176  14.762 -0.0185  0.0081  0.2289
10861W        W25992  11.147   8.779  13.064  0.2629  0.1400  0.1066
10862W        W25993   1.420  15.213  10.015  0.0364 -0.2726  0.2299
10863W        W25994   4.776   5.747   9.335 -0.1481  0.3330 -0.1858
10864W        W25995   0.724   0.345   1.336 -0.2084  0.0937 -0.1919
10865W        W25996   3.790  10.767   3.081 -0.0490  0.0780  0.3999
10866W        W25997  14.074   3.781   4.647 -0.3024  0.0684  0.3210
10867W        W25998   6.645   3.672   4.312  0.3478  0.2511 -0.2245
10868W        W25999  16.923   5.591   2.663 -0.1390 -0.1769  0.0489
10869W        W26000  10.796   5.897   1.892 -0.0556  0.2640 -0.3291
10870W        W26001  12.872  16.605   1.721  0.0923  0.0849 -0.0255
10871W        W26002   0.179  17.957  12.150  0.0495  0.4264  0.1257
10872W        W26003  17.471  15.097  14.417 -0.3259 -0.0341  0.1584
10873W        W26004   0.954   0.829   2.308  0.0611  0.0916  0.1020
10874W        W26005  10.034   9.326   1.841  0.2214  0.0834  0.0980
10875W        W26006   1.246  14.686  10.888  0.1268 -0.0033 -0.0292
10876W        W26007   1.193   7.976  15.417  0.1343 -0.3542  0.0920
10877W        W26008   5.114   9.615  10.538 -0.1116 -0.0206  0.1781
10878W        W26009  15.254  17.612   2.555 -0.0480 -0.4266  0.2682
10879W        W26010   3.885  16.485   4.132 -0.1463 -0.0263  0.1188
10880W        W26011   3.721  16.734   2.887 -0.1872  0.2291 -0.0290
10881W        W26012  14.170   6.080  15.573 -0.0789  0.1535  0.4623
10882W        W26013   3.242   7.287   3.713  0.2424  0.0839 -0.0200
10883W        W26014  13.644  11.300   2.894  0.0708 -0.1415 -0.1561
10884W        W26015  17.019   7.176   1.204 -0.1094  0.1289  0.0731
10885W        W26016  12.330   3.208   4.511  0.3605 -0.0654 -0.0153
10886W        W26017  14.943  17.417  13.221  0.3394 -0.1048  0.0291
10887W        W26018   4.172  17.488   2.474  0.2918 -0.3120  0.0627
10888W        W26019  17.998   7.091  14.743  0.0919  0.1111  0.0763
10889W        W26020  16.063  10.229  13.621 -0.2767  0.2141  0.1937
10890W        W26021  13.975   0.625   3.811  0.0856 -0.3086  0.1399
10891W        W26022  10.385   5.925   0.351  0.0976 -0.4347 -0.2466
10892W        W26023  15.959   4.880   1.958 -0.0008 -0.3948  0.0517
10893W        W26024   6.669  13.001   1.419 -0.0101  0.0721  0.1213
10894W        W26025  14.239   9.970  10.803 -0.2008  0.2717  0.2475
10895W        W26026   9.241   3.497  14.377  0.0583  0.1099 -0.1335
10896W        W26027  18.552   5.857  12.747 -0.2076 -0.0874 -0.1686
10897W        W26028   3.159   3.927  12.442 -0.2231  0.2112  0.1167
10898W        W26029   1.219  14.626   2.143 -0.1366 -0.2853  0.0460
10899W        W26030   3.918  13.717   4.416  0.1847  0.0867 -0.0752
10900W        W26031   8.705   0.225   3.350 -0.2113 -0.2896 -0.0855
10901W        W26032   2.342   8.659  10.680 -0.0721 -0.4824  0.1332
10902W        W26033   4.490   7.438  12.368  0.5076 -0.0208 -0.0805
10903W        W26034  15.189   6.361  14.359  0.0152  0.1121  0.3303
10904W        W26035   4.559  15.425   2.353  0.0649  0.3126 -0.0579
10905W        W26036   3.219  16.742   4.549  0.1086 -0.2050 -0.3177
10906W        W26037  12.688   1.497   5.835  0.1085  0.2653  0.0029
10907W        W26038   8.716   4.061   5.311 -0.1588 -0.0727  0.1212
10908W        W26039   9.592  10.702   2.079 -0.5620 -0.1568 -0.2012
10909W        W26040  18.182  14.930   0.179  0.0785  0.4380 -0.0302
10910W        W26041  16.658  14.111  12.366  0.2576 -0.1908 -0.2447
10911W        W26042  17.248  17.086  12.494  0.1774 -0.2446  0.1576
10912W        W26043   7.334   5.755  14.370  0.1091  0.1478  0.0555
10913W        W26044  10.720   3.620  11.725 -0.1165 -0.0819  0.1404
10914W        W26045  15.323  15.930  13.272 -0.0581 -0.0954 -0.3554
10915W        W26046   8.165   3.569  11.801 -0.2467  0.0932  0.0798
10916W        W26047   0.572  11.318   0.245 -0.0601 -0.2473  0.2369
10917W        W26048   4.893   1.330  11.832 -0.3249  0.0964 -0.1702
10918W        W26049   0.980  12.794  13.238 -0.2375 -0.3276 -0.2102
10919W        W26050   5.106  18.405   2.875 -0.2214 -0.3329 -0.0291
10920W        W26051  18.597  11.540  10.928  0.0322  0.1306  0.3023
10921W        W26052  14.929   9.011  12.725 -0.2504 -0.0441  0.0898
10922W        W26053  11.896   7.785   0.207  0.2200 -0.1776 -0.0735
10923W        W26054  13.080  16.697  11.316 -0.0837  0.2523  0.1504
10924W        W26055   2.165   3.970  11.069 -0.2024 -0.2013  0.0244
10925W        W26056   4.232  12.311  14.905  0.0541  0.3218 -0.1351
10926W        W26057   1.589   7.502   0.332  0.0006  0.0397 -0.2253
10927W        W26058   4.880   2.576   1.167  0.3073  0.2166 -0.2050
10928W        W26059   9.917  17.499  13.256 -0.3429 -0.1397 -0.3403
10929W        W26060   6.360  10.990  12.047 -0.2054 -0.0913  0.0392
10930W        W26061  15.480   1.844   2.728  0.2929  0.0240  0.0622
10931W        W26062  10.250  16.883   1.705  0.0031  0.0320 -0.3668
10932W        W26063  15.003   5.659  15.507 -0.3726 -0.1650 -0.0994
10933W        W26064  11.452   7.965   2.366 -0.2970 -0.1859  0.2745
10934W        W26065  15.669   8.736   5.296 -0.0917  0.1543 -0.2377
10935W        W26066   0.267   1.407   1.958  0.1118 -0.1940 -0.2319
10936W        W26067   8.278   8.525   3.823  0.0293 -0.0751  0.1261
10937W        W26068  16.450  13.747  15.650  0.0946  0.2957  0.0510
10938W        W26069  10.262   7.434  15.789 -0.1380  0.1739 -0.0832
10939W        W26070  16.343   8.270   4.541  0.0673 -0.0426 -0.1474
10940W        W26071   1.805  14.300   0.286 -0.1931  0.0353  0.0867
10941W        W26072   7.225   8.973   2.800  0.2433  0.1775 -0.0407
10942W        W26073   4.500   1.776   1.213  0.1051 -0.1015 -0.0680
10943W        W26074   4.590   3.568  14.531  0.0248 -0.3812  0.5127
10944W        W26075   2.271  13.350  12.057 -0.2233 -0.0354 -0.1360
10945W        W26076  16.595   4.651  11.957  0.1761  0.1244  0.1930
10946W        W26077   7.414   9.370   2.189 -0.0231  0.2415  0.0299
10947W        W26078   5.253   5.895  13.176  0.0518 -0.2566 -0.1890
10948W        W26079  14.090   7.753   3.895 -0.0230 -0.0478 -0.0097
10949W        W26080   3.711   2.182   0.957  0.0177 -0.1010  0.1507
10950W        W26081   9.856  10.070  15.370  0.0534 -0.3243  0.0304
10951W        W26082   3.995  17.871  13.292  0.0554  0.0372  0.0785
10952W        W26083  16.387   3.092   5.452 -0.3838  0.1003  0.5217
10953W        W26084  10.988   4.857   3.354  0.1604 -0.0983 -0.1604
10954W        W26085  12.029  17.360   2.665  0.1683 -0.2986  0.1798
10955W        W26086   7.059  18.007   5.148  0.2791 -0.0780  0.0400
10956W        W26087   3.888  13.452   0.496 -0.1317  0.1044  0.0352
10957W        W26088  13.043   6.315  10.263 -0.1509  0.0925 -0.1556
10958W        W26089  11.004   0.555   2.554  0.0715  0.0650  0.1852
10959W        W26090   9.634  15.031   0.966  0.0420  0.0748 -0.2020
10960W        W26091  14.076   8.420   2.198  0.0636  0.1524  0.0744
10961W        W26092   3.637  11.440  13.983 -0.0948 -0.2890  0.2924
10962W        W26093   7.568  11.784  15.751 -0.2105 -0.0571 -0.0019
10963W        W26094  17.008  13.531   2.452 -0.1492 -0.1725 -0.1387
10964W        W26095   0.982  15.113  14.196 -0.1665  0.1914 -0.2301
10965W        W26096  11.113   8.930   3.213  0.0723  0.2457  0.2250
10966W        W26097   0.377  15.822   5.103  0.3815  0.0104  0.2628
10967W        W26098  12.808  17.586   2.554 -0.1583 -0.0698  0.3605
10968W        W26099  17.538  14.171   1.571 -0.0968 -0.1109 -0.2676
10969W        W26100  11.429   3.470   4.940  0.0126 -0.0759  0.2318
10970W        W26101   9.158  12.915   4.628  0.2766  0.0748 -0.1260
10971W        W26102  10.509  15.109  13.666 -0.3378 -0.1852  0.2151
10972W        W26103   4.103  14.356   5.749  0.3303  0.3998 -0.2514
10973W        W26104  15.985  11.034   2.270  0.1862  0.0086 -0.1450
10974W        W26105  18.083   4.941  14.927  0.1358 -0.0892  0.2040
10975W        W26106  11.177   9.561  15.509 -0.1450 -0.0423 -0.0425
10976W        W26107   0.722   4.454  11.529 -0.4494 -0.1149  0.0321
10977W        W26108   3.755   1.448   4.700  0.0016  0.1407  0.3354
10978W        W26109  12.141   6.017   3.267  0.0841 -0.0201 -0.0125
10979W        W26110   4.034  17.534   4.143  0.2655  0.0413  0.1300
10980W        W26111  12.441  10.640  15.326 -0.0904  0.1983  0.1112
10981W        W26112  15.361   1.393  13.665  0.0678 -0.3868 -0.0027
10982W        W26113  15.062   7.958   3.030  0.2398  0.3433  0.0648
10983W        W26114  12.259   1.106   3.008  0.1183 -0.0337 -0.0187
10984W        W26115  11.153   8.684   0.257  0.1998 -0.1721  0.0570
10985W        W26116  15.078  18.072  13.140  0.0193 -0.2463  0.0427
10986W        W26117   4.318  16.307   1.024  0.2640  0.1074 -0.1194
10987W        W26118  10.441   6.831   1.235  0.4085 -0.0325 -0.1760
10988W        W26119  13.133   1.147  15.656 -0.3567 -0.1215 -0.4337
10989W        W26120   7.664  15.855  14.828 -0.1425  0.1374 -0.0035
10990W        W26121  16.378   2.693  14.214 -0.0032 -0.1617  0.0837
10991W        W26122   3.413  11.625  14.765 -0.0205  0.1708 -0.1914
10992W        W26123  17.954  14.563  10.526  0.2775  0.0568 -0.2138
10993W        W26124   3.793  10.053   2.363  0.1001 -0.1820  0.1430
10994W        W26125   7.454  16.413   3.161  0.1726  0.3439  0.3662
10995W        W26126   8.748   5.082  15.446 -0.0667 -0.0137 -0.0590
10996W        W26127   0.493   4.039  12.801 -0.2102  0.0223  0.0240
10997W        W26128  15.450   1.002   4.097 -0.0116 -0.1289 -0.4236
10998W        W26129   1.046   1.240  15.495 -0.0831  0.0786 -0.0035
10999W        W26130  17.107   4.410  12.990  0.2528  0.2621  0.0159
11000W        W26131   4.262  14.076   4.410 -0.0551  0.1109  0.5319
11001W        W26132   6.404   0.336   2.832 -0.0518  0.0387 -0.2418
11002W        W26133   7.945  10.664  14.626 -0.0752 -0.4030  0.1242
11003W        W26134   9.273  11.811   2.133 -0.0607  0.0703 -0.0266
11004W        W26135   2.942   7.948   3.149  0.3365  0.1760  0.1994
11005W        W26136   7.697  13.869   4.676  0.0083  0.0335  0.0566
11006W        W26137   0.732  12.847   0.821  0.1361  0.1017 -0.0618
11007W        W26138   6.916  16.698  12.595 -0.2647 -0.0318 -0.2617
11008W        W26139  12.167  11.884  12.449  0.2933 -0.0559 -0.0114
11009W        W26140   7.839  12.341  14.820 -0.1403 -0.4174 -0.1911
11010W        W26141   0.124  10.084  11.036  0.1756 -0.1242 -0.2289
11011W        W26142  12.107   9.412   0.525 -0.2352  0.1924  0.0180
11012W        W26143   2.755  16.912   4.353  0.0135 -0.3707  0.3056
11013W        W26144  11.885   8.881   4.443  0.0204  0.1684  0.2564
11014W        W26145   1.887  11.364  13.081 -0.0372 -0.2433  0.0062
11015W        W26146  13.883  13.434   4.364 -0.1635  0.3795  0.2493
11016W        W26147   9.811   2.050  13.967 -0.2265 -0.1767 -0.3425
11017W        W26148  18.724   8.476   4.805  0.1043  0.0239 -0.0335
11018W        W26149  16.126   7.219  11.381  0.1029 -0.0410  0.2065
11019W        W26150  18.640   6.729   1.070  0.0660 -0.3959  0.2050
11020W        W26151   4.564  16.004   2.519 -0.0944 -0.1856  0.1477
11021W        W26152   7.418   0.109   0.780 -0.0124 -0.3168  0.1384
11022W        W26153   0.609   9.209  14.172 -0.1159  0.0955 -0.1449
11023W        W26154   9.422   7.193  11.244  0.1814 -0.2442 -0.0742
11024W        W26155   0.727   6.791  15.294  0.1646 -0.1645 -0.3450
11025W        W26156  10.507   3.292  11.474 -0.4673  0.0426 -0.2649
11026W        W26157  18.434   0.662   2.957  0.0060  0.1724  0.0449
11027W        W26158  17.215  14.410   5.258 -0.1851 -0.3057  0.2176
11028W        W26159   9.015   8.288  11.618 -0.3011  0.0151  0.2308
11029W        W26160   4.188  15.262   5.494  0.2390 -0.0930 -0.0825
11030W        W26161  18.439   1.739   3.987 -0.2219 -0.3692 -0.2501
11031W        W26162   1.456  17.236   1.714  0.3253  0.1653 -0.1982
11032W        W26163  13.404  18.322  13.045 -0.0250  0.2308 -0.2575
11033W        W26164   6.405  12.052   3.206 -0.1754  0.0450  0.0296
11034W        W26165   3.065   4.303   2.864  0.0459 -0.0027 -0.2869
11035W        W26166   8.058  17.070   4.274 -0.2355 -0.0543 -0.2546
11036W        W26167  14.639  12.722  11.346 -0.2230 -0.2742 -0.0533
11037W        W26168  18.341  16.185   4.366 -0.0927  0.1071  0.0317
11038W        W26169   8.325   9.324   2.346  0.2202  0.0775 -0.2602
11039W        W26170  11.977   8.732   4.965 -0.1834 -0.0274  0.2700
11040W        W26171   8.121  14.814  14.609  0.1928  0.0564  0.1755
11041W        W26172   3.272   6.938   4.911 -0.2388 -0.4570 -0.0270
11042W        W26173   2.657   6.190   1.949  0.1224 -0.0776 -0.0900
11043W        W26174  12.941   5.454  11.259  0.0557 -0.4814  0.0467
11044W        W26175  11.977   3.329  13.065  0.3103  0.4272 -0.1634
11045W        W26176  14.676   4.435  13.185  0.0082 -0.1914 -0.0010
11046W        W26177  17.284   0.356  15.205  0.2019  0.6045 -0.1971
11047W        W26178  11.866   7.983  13.827 -0.0773 -0.0959 -0.1032
11048W        W26179  12.524  13.114  11.086  0.0856  0.1818  0.4536
11049W        W26180   0.627   3.555  11.635 -0.1043 -0.3091 -0.1847
11050W        W26181   3.553   3.270   0.523 -0.1171  0.0376 -0.0052
11051W        W26182   8.008  14.716   1.574  0.1529  0.0188  0.0259
11052W        W26183  11.937   9.699  10.732 -0.1096 -0.3673  0.1107
11053W        W26184  13.994   1.058   5.566  0.2332  0.1600  0.0758
11054W        W26185   8.839   7.057  13.466  0.1099 -0.0753  0.0350
11055W        W26186   3.775  16.421   6.301  0.0824  0.0954 -0.2101
11056W        W26187   1.186   4.968   2.170 -0.0159  0.0151 -0.3155
11057W        W26188  12.396   8.111  14.559  0.1377 -0.0313 -0.2212
11058W        W26189   3.253   3.133  14.226  0.0421  0.1874 -0.2221
11059W        W26190   1.112  12.684   3.743 -0.2827  0.1426  0.0810
11060W        W26191  10.783  17.109  11.851  0.0744 -0.1791  0.1207
11061W        W26192   5.943  17.423   0.719  0.1119  0.1525  0.0903
11062W        W26193   7.190  14.126   1.974 -0.1116  0.0269  0.0185
11063W        W26194   3.925  14.934  12.278 -0.0136  0.3049  0.3249
11064W        W26195   2.192  12.775   2.567 -0.5845 -0.0001  0.0328
11065W        W26196   2.794   5.241   0.673  0.0963 -0.2245 -0.0469
11066W        W26197  16.252   3.146  14.509 -0.0611  0.0056  0.2333
11067W        W26198  17.391   1.088  15.082  0.0348 -0.2500 -0.2165
11068W        W26199  11.276  12.422  15.680 -0.0492 -0.1691  0.2914
11069W        W26200  12.368   0.266  12.463 -0.0761  0.0945  0.4652
11070W        W26201  11.417  10.666  11.012 -0.1313  0.1329 -0.0915
11071W        W26202  15.154  15.792   3.246 -0.0382 -0.1596 -0.1235
11072W        W26203   5.840  13.187  15.381 -0.2325  0.2442  0.0081
11073W        W26204  14.016   6.420   1.131 -0.1203  0.2020  0.2208
11074W        W26205   0.565  14.079   0.702  0.1423  0.0639 -0.1910
11075W        W26206   8.408  16.792  10.688 -0.0889  0.2596  0.3492
11076W        W26207   2.182   8.852   2.449 -0.1657  0.1636  0.1318
11077W        W26208  10.068  16.892   0.605  0.0022 -0.2116 -0.3841
11078W        W26209   4.092   6.178   5.904  0.0617  0.1555 -0.2013
11079W        W26210   4.172   8.135   0.612  0.1145  0.2356  0.0147
11080W        W26211  11.044  11.847   2.403 -0.0788 -0.0154  0.2696
11081W        W26212   4.435   9.466   4.368 -0.0617 -0.1341  0.1952
11082W        W26213  12.327   4.016   0.809  0.1233  0.0853 -0.0697
11083W        W26214   5.900   7.455  13.012  0.2304  0.2901  0.3365
11084W        W26215  10.620  12.452  13.084  0.1585  0.2633  0.1738
11085W        W26216  12.026   2.518  14.156 -0.0533  0.0778  0.1720
11086W        W26217   3.915  14.094   0.275 -0.0037 -0.1997  0.1416
11087W        W26218  13.620   7.738   5.132  0.2385  0.3212  0.1177
11088W        W26219  16.794   7.558   0.317 -0.4441 -0.0350  0.1290
11089W        W26220   4.539  15.165   1.544  0.2139  0.0554 -0.1741
11090W        W26221   5.792  11.535  15.573  0.0778  0.3482  0.1345
11091W        W26222  18.442  17.539  12.819 -0.2427 -0.0602  0.1730
11092W        W26223  13.968  12.580   1.696 -0.0576  0.2678 -0.0491
11093W        W26224   7.869  11.056  14.125  0.0430 -0.1895 -0.2554
11094W        W26225   5.649  10.026   5.641 -0.3427 -0.0878 -0.0304
11095W        W26226   9.499   5.611  15.745  0.2494 -0.1438  0.0388
11096W        W26227  14.422   6.256   1.490  0.1833  0.0588  0.2186
11097W        W26228   3.446   6.193   4.390  0.0702  0.0127  0.0821
11098W        W26229  11.009  16.715   5.573  0.1641  0.2166 -0.0895
11099W        W26230  14.653  10.778   0.803 -0.1075 -0.0745  0.0258
11100W        W26231  12.603   3.232  11.318 -0.0457  0.0846 -0.0395
11101W        W26232  10.303  14.215   3.486 -0.3020 -0.1135  0.3193
11102W        W26233  11.724   1.369  13.199  0.3480  0.0220 -0.2257
11103W        W26234  12.374  10.456  12.452  0.3238  0.1907  0.0298
11104W        W26235  13.773  18.467   4.860 -0.3729 -0.0033  0.3213
11105W        W26236   8.250   2.885   1.267  0.0212 -0.1042 -0.4170
11106W        W26237   6.211   5.873  14.517  0.0321  0.2700 -0.1128
11107W        W26238   7.958  11.274   1.428 -0.0911 -0.2607  0.1362
11108W        W26239  16.558  12.257   4.695 -0.4121  0.0611 -0.0734
11109W        W26240   3.037   6.951   3.332  0.1216 -0.0872  0.0939
11110W        W26241  17.105  14.832   3.333  0.0791 -0.1525  0.1262
11111W        W26242  16.574   5.500  12.816  0.3154 -0.2673 -0.1643
11112W        W26243  18.389  15.741   3.692  0.0498  0.1191 -0.1543
11113W        W26244  17.611  16.431  11.226 -0.0916 -0.0551 -0.1819
11114W        W26245   0.954  18.533   3.258  0.1397  0.2539  0.1330
11115W        W26246   9.330  17.336   3.608  0.0030 -0.1481  0.2140
11116W        W26247  12.881   5.485  13.515 -0.1907 -0.1565  0.0030
11117W        W26248   3.648   0.340  12.781 -0.0158  0.1634 -0.1645
11118W        W26249  11.185   6.198  13.045 -0.1372 -0.1635 -0.1516
11119W        W26250   3.697   1.931   0.443 -0.0423 -0.0795 -0.1392
11120W        W26251   3.975   5.208  12.751  0.0531  0.1628 -0.1993
11121W        W26252  17.120   6.347  11.915 -0.0997  0.0354 -0.1588
11122W        W26253   6.311  13.639  10.817 -0.0745  0.0046  0.1889
11123W        W26254   9.609   6.825  15.552  0.1463 -0.1669 -0.0172
11124W        W26255  17.126   3.132  10.652 -0.0777  0.3859 -0.0537
11125W        W26256   5.902  14.271   3.325  0.0612  0.0255 -0.2850
11126W        W26257   2.409  10.301  13.713  0.0263 -0.1647  0.0474
11127W        W26258   3.312   3.872  14.614  0.0395 -0.2923 -0.1353
11128W        W26259  10.179   2.268   0.150  0.1577  0.1888 -0.1171
11129W        W26260  17.754   2.618   0.018 -0.2195  0.0722  0.2436
11130W        W26261  10.936   0.252  14.566  0.2670  0.1027 -0.1143
11131W        W26262   8.675  13.013   4.689  0.0127  0.0436  0.2377
11132W        W26263   7.801   1.390  15.394 -0.3632  0.0639 -0.0611
11133W        W26264   5.474  16.233  14.229  0.0937  0.1036  0.3942
11134W        W26265   4.108   9.088   4.941 -0.1535 -0.2171 -0.2960
11135W        W26266   5.790  13.287   3.237 -0.2457  0.1587 -0.0414
11136W        W26267  12.696  18.509   1.426 -0.3487 -0.0973  0.0076
11137W        W26268   4.652   1.166  15.714 -0.3003 -0.0546  0.4246
11138W        W26269  15.441   6.226   1.250  0.5279 -0.2942  0.0341
11139W        W26270   0.690   0.197   2.902 -0.3330  0.0019 -0.0213
11140W        W26271  18.602   9.981   4.386 -0.3269  0.0940  0.3149
11141W        W26272  14.679  17.811  10.815  0.2265 -0.1619 -0.0466
11142W        W26273   8.104   2.320  13.137  0.1390 -0.1018 -0.0215
11143W        W26274  14.590   7.877   3.813  0.0629  0.3734 -0.2254
11144W        W26275   7.651   9.879   3.659 -0.2832  0.4242 -0.2455
11145W        W26276  11.234  10.535  12.304  0.1694  0.1578  0.0191
11146W        W26277   7.862   9.741   4.119 -0.2597  0.4067 -0.1395
11147W        W26278   0.863   5.067   5.082 -0.0468  0.1215  0.0660
11148W        W26279   5.032  12.306  13.949 -0.1072 -0.0323 -0.3695
11149W        W26280   8.760  15.989   0.594  0.0805 -0.2483 -0.1309
11150W        W26281   4.899   4.819  10.878  0.0312 -0.2737 -0.1711
11151W        W26282   6.629  16.694  14.570  0.1500  0.0675  0.0372
11152W        W26283  16.880   4.972   4.134  0.3706 -0.1372 -0.1598
11153W        W26284   8.062  12.944  11.690  0.0620 -0.0963 -0.0012
11154W        W26285  15.937  15.680   5.770 -0.2260  0.1717  0.0241
11155W        W26286   4.018   4.802  10.334  0.2868 -0.1206 -0.1845
11156W        W26287  15.464   9.651   0.551  0.0481 -0.3180  0.0984
11157W        W26288   2.041  13.762   5.338 -0.1835  0.2650  0.1700
11158W        W26289  12.419   4.829  12.362 -0.2010 -0.4045 -0.0684
11159W        W26290  13.455  16.657  15.784  0.2082 -0.1276 -0.0089
11160W        W26291  10.678  11.522  13.811 -0.0735 -0.0520  0.2103
11161W        W26292   2.552   0.264   3.050  0.1380  0.3288  0.1940
11162W        W26293   5.571  16.614  13.874  0.0603 -0.4492  0.1836
11163W        W26294   2.754  17.094   0.848  0.3481  0.0407  0.0852
11164W        W26295   5.016   4.452   3.122 -0.0354 -0.2405  0.1609
11165W        W26296   6.348   4.542  13.839 -0.0603 -0.2094  0.1453
11166W        W26297   2.554   1.059   5.941 -0.2202 -0.1374 -0.0810
11167W        W26298   1.695  12.009  14.190  0.2338 -0.1540  0.0816
11168W        W26299   8.720   1.987   4.524 -0.2798  0.3112  0.0770
11169W        W26300  15.647   2.589   2.340 -0.0589 -0.0531  0.1269
11170W        W26301   3.442  15.067  13.100  0.1593  0.0554  0.1748
11171W        W26302   7.280   4.690   1.226 -0.4328 -0.1554 -0.0884
11172W        W26303  18.555   8.280   0.070 -0.0874 -0.2094 -0.0421
11173W        W26304   5.005  18.414   4.674  0.0668 -0.0993 -0.2038
11174W        W26305   4.743   0.686  15.138 -0.1739  0.1077  0.0522
11175W        W26306   8.815   1.330  12.888 -0.1265  0.0156 -0.1119
11176W        W26307  14.052  14.459   2.256 -0.3453 -0.3322 -0.0037
11177W        W26308  10.009  14.890  11.358 -0.1871  0.4931  0.2045
11178W        W26309  17.342   0.011   2.206 -0.0132 -0.3273 -0.2645
11179W        W26310  15.483  14.210   2.630 -0.1550 -0.2701  0.1627
11180W        W26311   4.130  18.291  15.516 -0.2084  0.1143  0.0744
11181W        W26312  14.836  12.719  14.109  0.0350  0.0631  0.3360
11182W        W26313   0.557   7.491   4.183  0.0678 -0.0453  0.3587
11183W        W26314   4.259  17.435  11.835  0.1672 -0.0215  0.3893
11184W        W26315   2.399   2.748   4.396 -0.1486  0.0298 -0.2236
11185W        W26316  15.893  10.874   5.524  0.0428 -0.1014 -0.1496
11186W        W26317   1.732  13.292   0.350 -0.1700  0.1104 -0.1061
11187W        W26318  16.649   4.311   3.347  0.0148 -0.2969 -0.2581
11188W        W26319   5.512  15.486  11.083  0.2576  0.1784  0.1667
11189W        W26320  16.259   3.776  15.308 -0.0150 -0.0139 -0.1579
11190W        W26321   3.808  12.572   0.020  0.1172 -0.0470 -0.2586
11191W        W26322   9.512  13.290   2.971  0.1601 -0.1954 -0.0650
11192W        W26323   9.889   9.187   1.221  0.2435  0.1307  0.1420
11193W        W26324   6.567  15.014  14.745  0.3439  0.0040 -0.0122
11194W        W26325  10.317   7.937  13.660 -0.2927  0.2384 -0.2773
11195W        W26326  18.375  12.505   3.481 -0.1960 -0.2604  0.2495
11196W        W26327  17.730  13.100   3.389  0.0686  0.0300  0.2012
11197W        W26328   3.639   4.516  13.574 -0.0222 -0.0674  0.2509
11198W        W26329   9.075  15.447  11.223  0.0494 -0.1395 -0.6882
11199W        W26330   9.833   4.399   4.132  0.1158  0.0112  0.4166
11200W        W26331   9.752   2.301  11.166  0.1229  0.0279  0.2018
11201W        W26332  16.883  18.308   0.828 -0.1846  0.2351 -0.0790
11202W        W26333  17.270  14.956   2.588 -0.2890  0.1438  0.2763
11203W        W26334  18.409  10.682  12.133  0.2479 -0.2410 -0.1405
11204W        W26335   8.117   6.134   1.473  0.0202 -0.1484  0.0572
11205W        W26336  18.638  17.037  15.246 -0.0496  0.0647 -0.1865
11206W        W26337   3.646  10.756   2.224 -0.0092 -0.0902  0.2535
11207W        W26338   5.374  17.813   3.601 -0.2901  0.1796 -0.0987
11208W        W26339   7.517   0.487  14.106 -0.1759  0.2621 -0.1300
11209W        W26340   3.360   9.026   3.696  0.2304  0.1731 -0.0111
11210W        W26341  12.092   4.084  11.678  0.1788 -0.1148 -0.3238
11211W        W26342   7.702  17.514   3.256 -0.2096  0.1306 -0.0513
11212W        W26343  13.916  14.678  14.399  0.3018 -0.1162  0.0504
11213W        W26344  15.921   9.985  11.862 -0.0381  0.1243  0.1072
11214W        W26345   1.687  15.233  15.341  0.1843  0.2225  0.0590
11215W        W26346  11.399  14.803   2.023  0.0509 -0.2417 -0.4032
11216W        W26347   7.972  18.505   5.199 -0.2423 -0.2389 -0.0339
11217W        W26348   7.836   9.438  11.967  0.0677  0.4458  0.1239
11218W        W26349   4.898  12.973  12.043 -0.1509 -0.3367 -0.0337
11219W        W26350  11.224   2.237   1.999 -0.1192  0.1462  0.1774
11220W        W26351  14.700   7.912   4.851  0.1373  0.0517  0.0121
11221W        W26352  17.758   9.006  11.614 -0.2331  0.3780  0.0144
11222W        W26353   6.728   3.457  13.226  0.2638 -0.0909 -0.0052
11223W        W26354  18.223  16.884   4.070  0.0850 -0.2464 -0.0607
11224W        W26355  11.879  12.758   5.328  0.3910  0.0480  0.2311
11225W        W26356   6.353   2.284  12.810 -0.1959 -0.0901  0.2047
11226W        W26357   0.483  16.211  12.716 -0.1842  0.3280 -0.2392
11227W        W26358   5.736   6.072  13.397 -0.0793  0.0879  0.1168
11228W        W26359  11.657  10.180  14.366  0.1204 -0.0669  0.0040
11229W        W26360   6.607   1.189   1.407 -0.1210 -0.1285  0.0977
11230W        W26361   5.686  10.922  13.451 -0.0704 -0.1401  0.1217
11231W        W26362   2.234   9.363  15.022 -0.1056  0.1803  0.1250
11232W        W26363  11.171  11.984  12.660  0.0085  0.0044 -0.1092
11233W        W26364  13.460   7.238  15.202  0.1757 -0.0213  0.1295
11234W        W26365   3.022  12.670   4.930  0.2864 -0.3206  0.3747
11235W        W26366   0.023   2.074   0.775 -0.0539 -0.1778  0.3433
11236W        W26367  11.706  12.030   0.506  0.2650  0.2380  0.0255
11237W        W26368   2.105  17.984  11.102 -0.0973 -0.1726  0.3071
11238W        W26369   8.109   3.990  13.719 -0.1402 -0.0225 -0.2169
11239W        W26370   6.563  18.340   2.419 -0.1468  0.0333 -0.0564
11240W        W26371  15.198   3.215   3.097 -0.1567 -0.0250 -0.2848
11241W        W26372   2.633  12.801  14.532 -0.0069  0.2486  0.2062
11242W        W26373  10.784  10.182  14.624  0.0632 -0.3770 -0.2333
11243W        W26374   0.292  14.857   4.048  0.1391  0.0949  0.0072
11244W        W26375  15.221   7.579  11.101 -0.2451 -0.0753 -0.1891
11245W        W26376  17.690   3.005   1.932 -0.0114  0.1123 -0.4126
11246W        W26377  15.231   2.945  12.904  0.1096  0.0519  0.0864
11247W        W26378  18.625  15.167   0.021  0.1846 -0.2388  0.1049
11248W        W26379  18.183   9.750   5.293 -0.0584  0.1294 -0.0809
11249W        W26380  10.753  13.441   4.126 -0.3411  0.1462 -0.0381
11250W        W26381  11.423  13.913   3.244 -0.2649  0.3488 -0.3055
11251W        W26382   4.283   8.181   4.624 -0.0501  0.3256 -0.0948
11252W        W26383  17.743  11.175   4.159 -0.2751  0.3340  0.1007
11253W        W26384   5.330  10.052  13.749 -0.1338 -0.2832  0.1760
11254W        W26385  15.478  11.912  13.006  0.0285 -0.1684  0.1327
11255W        W26386  10.325  12.109  15.053  0.1849 -0.3192  0.1756
11256W        W26387   5.327   6.355  13.536 -0.3152  0.0504  0.4750
11257W        W26388  16.941   1.715  14.646 -0.1409 -0.3669  0.2240
11258W        W26389  11.405   7.207  10.732  0.1221  0.0602 -0.2459
11259W        W26390   1.094   4.799   0.778 -0.3182  0.1288 -0.2446
11260W        W26391   5.116   8.872  13.321  0.1572  0.0790 -0.0293
11261W        W26392  15.050   8.671  14.951 -0.2311 -0.1425  0.0656
11262W        W26393  15.280   2.314   2.501  0.1899 -0.1161  0.1109
11263W        W26394   0.429  10.064  14.777 -0.7437 -0.2760 -0.0534
11264W        W26395   3.722  17.249   3.096 -0.0919  0.1089  0.2504
11265W        W26396   4.692  11.733   2.368  0.1159  0.0960  0.2702
11266W        W26397   1.374   9.074   2.176  0.1462 -0.5303 -0.1761
11267W        W26398   9.631   8.297   4.155 -0.3491 -0.0284  0.2336
11268W        W26399   5.257   9.237  15.186 -0.0913  0.1877  0.0682
11269W        W26400  16.661  16.919   0.641  0.0113 -0.2447  0.1539
11270W        W26401   7.155  11.370   2.213 -0.1010 -0.1236  0.0389
11271W        W26402   8.910  14.212   3.529  0.1117 -0.1596 -0.2422
11272W        W26403   5.812  17.474   2.852  0.3254  0.1227 -0.2004
11273W        W26404   9.582   6.644  11.692  0.0847  0.0199 -0.1363
11274W        W26405  16.457   6.806  11.317 -0.2238 -0.0613 -0.1079
11275W        W26406  18.334   3.808   2.020  0.1903 -0.0800 -0.1326
11276W        W26407   3.092  17.722  13.575  0.2157  0.1043 -0.2093
11277W        W26408   6.353   5.860   1.262  0.1516  0.2096  0.1505
11278W        W26409  13.603   3.596  12.804  0.1987  0.3720  0.1196
11279W        W26410   8.393  11.502   4.238 -0.3643  0.2718 -0.3688
11280W        W26411  11.139  12.638  12.912 -0.0550 -0.1762  0.1977
11281W        W26412   2.793   3.665   0.898  0.2699 -0.0811 -0.1062
11282W        W26413   8.782   7.539  13.360  0.4128  0.0852  0.1296
11283W        W26414   6.658   0.295   3.226 -0.1158  0.1975 -0.1214
11284W        W26415  16.498   4.803   3.615  0.1843  0.0706  0.1167
11285W        W26416   4.776   1.972  12.680 -0.1007  0.3488 -0.2742
11286W        W26417   3.888   6.769  15.756 -0.1032  0.1660  0.1147
11287W        W26418   6.529   7.264  11.366 -0.2504 -0.0804  0.1737
11288W        W26419   0.998  12.470  12.505  0.1130  0.0840  0.3965
11289W        W26420   6.734  15.742   1.749  0.2712 -0.0316 -0.1220
11290W        W26421   5.794   9.798   5.221 -0.1026  0.3416 -0.0687
11291W        W26422  12.625  16.521   2.260  0.3652 -0.0941  0.1457
11292W        W26423  14.121   8.395  14.991  0.2702  0.1641  0.1144
11293W        W26424  13.724   7.476  12.929 -0.1765 -0.2201 -0.1105
11294W        W26425   5.610   0.056   3.939  0.1975  0.0109  0.4747
11295W        W26426  16.879  17.205  11.513 -0.1282 -0.0629 -0.2115
11296W        W26427   3.141   0.210   0.849  0.0257  0.0798 -0.0727
11297W        W26428  11.563   4.409   0.051  0.0350  0.0608 -0.1928
11298W        W26429   1.071   8.332  13.567  0.1363 -0.0083 -0.1468
11299W        W26430  18.363   3.372  10.265  0.0106  0.3144  0.3165
11300W        W26431  17.958  11.348  12.985 -0.0749 -0.0774 -0.1061
11301W        W26432  12.075  12.122  13.378  0.2379  0.1210  0.2535
11302W        W26433   0.148  13.162  12.987  0.0336 -0.2206 -0.3586
11303W        W26434   0.471   1.105  13.334  0.0481  0.4248 -0.1512
11304W        W26435  10.255   1.161   1.696 -0.2822 -0.1123  0.3701
11305W        W26436  16.335   1.176  13.138 -0.4832  0.0904  0.2049
11306W        W26437  12.384  11.064  14.939 -0.2641  0.1770 -0.1897
11307W        W26438  13.054   4.659  14.584 -0.0065 -0.4137  0.1401
11308W        W26439   1.163   0.390   0.028 -0.1404 -0.0683 -0.2115
11309W        W26440   6.108  16.042  11.565 -0.0444  0.2642  0.0516
11310W        W26441  10.302  15.038   3.921  0.1880  0.1666 -0.2631
11311W        W26442   8.293   3.431  14.911  0.1485 -0.0266  0.0277
11312W        W26443  17.804  10.410   6.025  0.0172  0.1579 -0.0414
11313W        W26444   1.891  12.785   0.388 -0.0480 -0.0360 -0.1023
11314W        W26445   2.985   1.421   1.810  0.0434  0.6315  0.1588
11315W        W26446  10.327   3.609  10.993 -0.0041  0.1538 -0.2806
11316W        W26447   3.149  11.967  10.965  0.0354 -0.1148  0.2812
11317W        W26448   5.442   5.960   3.473 -0.1522 -0.0424  0.2077
11318W        W26449   6.641  11.378   5.038  0.0167  0.1033  0.0731
11319W        W26450   0.052   2.567  10.944 -0.0351 -0.3150  0.1223
11320W        W26451   5.295   5.434  14.461 -0.0885 -0.1188  0.2760
11321W        W26452  16.960  13.403   4.509  0.2301  0.0595  0.1438
11322W        W26453   0.939  17.767  14.576  0.2524  0.2448  0.0904
11323W        W26454   2.880   2.962  11.621  0.2727 -0.1815  0.1906
11324W        W26455   5.089   9.447   9.277  0.0246  0.0473 -0.0850
11325W        W26456   5.344  12.336   1.325  0.0173  0.0708  0.1367
11326W        W26457   9.505  17.819   3.730  0.1674 -0.2130 -0.0083
11327W        W26458  13.859  13.740   2.018 -0.2598  0.1394  0.0989
11328W        W26459   3.520  18.659  13.048 -0.0268  0.3896 -0.2164
11329W        W26460  17.829   7.175   5.244 -0.0650  0.0416  0.2431
11330W        W26461   7.978   1.113   0.959  0.1184  0.2521 -0.0205
11331W        W26462  13.172  12.399   4.885 -0.3241  0.2786  0.2847
11332W        W26463  18.500   4.456  13.017  0.4871 -0.2863  0.0712
11333W        W26464   1.501  13.618   2.898 -0.0957  0.0994 -0.0543
11334W        W26465   3.300  14.047  13.135  0.2790 -0.2014 -0.1314
11335W        W26466   0.955  13.605   2.012 -0.0466 -0.1026 -0.1694
11336W        W26467  12.245   1.355   5.528  0.1414 -0.0525  0.0889
11337W        W26468  14.324  15.754  11.091 -0.1342  0.0010 -0.0471
11338W        W26469   8.871  18.426   1.395 -0.0745  0.5119  0.0035
11339W        W26470   2.428  18.000  11.859  0.1765  0.2098  0.1160
11340W        W26471   8.784  18.393   5.203 -0.0648  0.0209  0.1689
11341W        W26472  11.890   5.519   4.638 -0.3905 -0.0247 -0.0310
11342W        W26473   6.144  12.542  13.201 -0.0923 -0.1975 -0.0853
11343W        W26474   8.937   6.209   3.981  0.0975 -0.0766  0.2299
11344W        W26475   1.771   0.076  12.942 -0.2456  0.2621  0.2958
11345W        W26476   5.069   0.777  12.815 -0.0851 -0.3913 -0.1459
11346W        W26477  15.582  11.072   4.401  0.1282 -0.4093 -0.1280
11347W        W26478   3.500   9.522  15.631  0.0542  0.1881  0.0983
11348W        W26479  16.314   9.273  10.448  0.1155  0.1260  0.1835
11349W        W26480  10.301   6.811  11.143  0.2424 -0.0961  0.1673
11350W        W26481   1.109  15.666  12.534  0.4027 -0.5087 -0.0296
11351W        W26482   0.881  11.276  11.156  0.3052  0.0362 -0.1666
11352W        W26483  13.830   1.015  12.291 -0.0555  0.3846 -0.4129
11353W        W26484   6.234   1.990  15.290  0.6143 -0.2475 -0.0196
11354W        W26485   2.302   9.385  12.198  0.2424 -0.1351  0.4026
11355W        W26486  17.320  18.326   5.052  0.0722 -0.0031  0.2346
11356W        W26487  11.884   5.793  15.554  0.1311 -0.3068  0.3136
11357W        W26488  11.293   2.735   3.189  0.1757 -0.1341 -0.3103
11358W        W26489   5.838  12.650   4.961  0.0849 -0.4436  0.3409
11359W        W26490  12.166   6.860  11.382  0.0078 -0.0483 -0.0667
11360W        W26491   6.812  16.800   5.654  0.1581 -0.4251 -0.1201
11361W        W26492  10.529  17.599  11.221 -0.1525  0.2349  0.0864
11362W        W26493   3.227  18.376   4.346 -0.1084 -0.0870  0.2757
11363W        W26494  11.365   5.511  10.880 -0.1037  0.0803 -0.1422
11364W        W26495   0.886  14.418   0.394 -0.2344  0.0302 -0.1158
11365W        W26496  18.115  16.310  10.654 -0.2446  0.0230  0.0403
11366W        W26497  12.211  18.654   5.239 -0.0228 -0.0269  0.1718
11367W        W26498   7.419  17.474  13.453  0.3737 -0.0996 -0.0384
11368W        W26499  11.029   2.684  11.375  0.1757  0.1106 -0.0471
11369W        W26500  13.438  10.796  13.622  0.1113  0.1093  0.1697
11370W        W26501   9.892  12.581   0.760 -0.0591 -0.2959 -0.0121
11371W        W26502   9.153  10.650  13.041 -0.0150  0.0879  0.0537
11372W        W26503  16.214  10.187   5.782  0.1388  0.0037 -0.0601
11373W        W26504   7.790  18.723  14.853 -0.1893  0.0511  0.1516
11374W        W26505  11.821   6.024   4.216 -0.2026 -0.0979  0.0136
11375W        W26506   2.081  15.014   0.663  0.0405  0.1582 -0.2421
11376W        W26507  14.483   6.142   0.896  0.0147  0.1962 -0.0236
11377W        W26508   5.088   4.431   2.633  0.1197  0.1019 -0.1931
11378W        W26509   3.780   4.387  15.224 -0.1097 -0.3877  0.1447
11379W        W26510   4.960   6.594  14.430 -0.2099  0.2080 -0.1643
11380W        W26511  16.051   5.139   3.729 -0.4219  0.0869  0.2386
11381W        W26512   5.303   5.135  12.030 -0.1629 -0.2548 -0.1246
11382W        W26513  14.436  14.491  12.440  0.0419  0.1388 -0.0065
11383W        W26514  10.626  18.690  14.217  0.0046  0.0222 -0.0869
11384W        W26515  16.029   8.697   4.413  0.0652 -0.2156  0.0968
11385W        W26516  13.633   0.625  14.751 -0.0051  0.0876  0.1982
11386W        W26517  14.767  12.147  15.787  0.4454 -0.3283  0.0109
11387W        W26518  11.345   2.814  11.705  0.2617 -0.2119  0.0350
11388W        W26519   1.704   3.560  12.355  0.3146  0.2139  0.2493
11389W        W26520  16.475  13.954  14.474  0.3997  0.2163  0.0804
11390W        W26521   0.580  10.973   2.774  0.2843 -0.2108 -0.0795
11391W        W26522   0.956  16.789   3.975  0.0220 -0.5125  0.0952
11392W        W26523  17.543   1.893   4.870  0.1355 -0.1351  0.0684
11393W        W26524   4.275  16.185   0.075  0.0932  0.0985  0.2865
11394W        W26525   7.152  13.001   1.658  0.1442 -0.5059  0.1552
11395W        W26526  11.352   8.979  12.053 -0.1446  0.1942  0.1183
11396W        W26527   1.235  15.940  14.192  0.1628 -0.0614  0.1301
11397W        W26528  11.434   6.119  15.375 -0.0698  0.3731  0.3703
11398W        W26529  16.745   5.029  12.565  0.0120  0.2698  0.2347
11399W        W26530   0.252   7.388  14.166 -0.0355  0.1011  0.0115
11400W        W26531  17.717   5.644  14.499  0.0900 -0.1946  0.1768
11401W        W26532   9.218   9.494   4.526 -0.0899  0.2294  0.2481
11402W        W26533   2.796   5.228  13.214 -0.0664  0.2353 -0.0180
11403W        W26534   4.571   0.885  10.754  0.1532  0.3069 -0.1735
11404W        W26535   4.305   1.284   0.972  0.0635 -0.1194  0.1632
11405W        W26536   2.451   8.023   4.199  0.2141 -0.0407 -0.0456
11406W        W26537   2.872  18.091  11.622 -0.0161 -0.1699  0.0087
11407W        W26538   3.947  10.918  11.189 -0.1218  0.3477  0.0552
11408W        W26539  18.456   6.270  14.008 -0.2673  0.1112  0.0698
11409W        W26540  17.672   9.692   5.271  0.2205  0.3940 -0.1776
11410W        W26541   5.138   1.139   4.688 -0.0041 -0.2447  0.0793
11411W        W26542   4.175   7.858   2.700  0.2790  0.1112 -0.4409
11412W        W26543  13.658  11.228   3.490  0.0088 -0.1316  0.1958
11413W        W26544   6.583  16.530  11.044  0.1382 -0.0765  0.2437
11414W        W26545  11.095  17.158   4.813 -0.2766  0.2838  0.2237
11415W        W26546   7.781  11.312   0.142  0.0845 -0.1323  0.1506
11416W        W26547   9.994  16.095  12.798 -0.0182 -0.0542  0.2294
11417W        W26548   6.016  16.120   0.319 -0.1966 -0.4420  0.3047
11418W        W26549   6.704   8.219  14.987 -0.1268 -0.2542  0.0036
11419W        W26550   6.849   9.543   9.580 -0.2065  0.2721 -0.4502
11420W        W26551  14.496  18.363  11.917 -0.4610  0.0296 -0.0717
11421W        W26552  18.533  12.682   2.466 -0.1471  0.1084  0.1423
11422W        W26553  15.714   8.784   3.613 -0.0180  0.0711 -0.0750
11423W        W26554   7.242  10.423   1.490 -0.1484 -0.0880  0.1174
11424W        W26555   2.965  10.458   4.819 -0.0257  0.0086  0.0751
11425W        W26556  17.987   9.036   9.863  0.2802  0.2662 -0.1202
11426W        W26557   3.110   2.714   2.187 -0.2767  0.1448 -0.1730
11427W        W26558  16.765   6.212  14.995 -0.0203  0.4002  0.1056
11428W        W26559   6.773   8.755   2.094  0.1293 -0.0305  0.3829
11429W        W26560   2.739  12.981   5.184 -0.2332 -0.1005  0.1120
11430W        W26561  15.023   0.893   1.468  0.4844  0.2763 -0.1309
11431W        W26562  10.538  10.623  13.304  0.2674 -0.0724  0.3111
11432W        W26563  15.601  10.578  15.306 -0.0848  0.1775 -0.1067
11433W        W26564  12.947  13.103  11.329  0.1131  0.0169 -0.2124
11434W        W26565   8.053  15.671   1.513 -0.2743 -0.4387  0.1343
11435W        W26566  17.731   7.799   0.158  0.0200 -0.4133 -0.0635
11436W        W26567   3.829   9.203  14.177 -0.0329 -0.0075 -0.2491
11437W        W26568  13.084   5.291   5.477 -0.2566 -0.0917 -0.1239
11438W        W26569  14.325   0.830  12.270 -0.1501 -0.2422 -0.2140
11439W        W26570   4.996   2.114   5.379  0.1352 -0.0579  0.1944
11440W        W26571  15.847   8.133  15.327  0.1859 -0.1475 -0.1274
11441W        W26572  13.133   5.643  12.517 -0.3281 -0.0994  0.0100
11442W        W26573   2.107   6.975   2.839  0.2763 -0.0809 -0.3607
11443W        W26574   9.004  10.517  12.379  0.0347  0.0279 -0.2773
11444W        W26575   0.619  18.339   2.943  0.0730 -0.0858  0.3331
11445W        W26576  11.373   7.818   0.482 -0.1947 -0.2110 -0.0771
11446W        W26577  14.920  12.317  15.297 -0.0181  0.0710  0.1231
11447W        W26578   1.888   9.652  12.427  0.1452 -0.0147 -0.1003
11448W        W26579   7.566   1.084  13.392 -0.1469  0.3255 -0.3522
11449W        W26580  17.939  16.714  11.991  0.2183 -0.2198 -0.0986
11450W        W26581   1.547   2.513   0.439 -0.0393  0.0370  0.1641
11451W        W26582  10.550  10.251  10.748 -0.2561 -0.3881  0.2943
11452W        W26583   4.925   1.526  15.419  0.2401  0.0315  0.2994
11453W        W26584   3.283   2.486  14.228 -0.1523 -0.0906  0.0148
11454W        W26585   9.886  12.717   4.574 -0.2798 -0.3803 -0.1614
11455W        W26586  18.404  10.717   3.327  0.3192  0.1214 -0.1708
11456W        W26587   4.015   7.182  11.319  0.1827 -0.1366  0.3370
11457W        W26588   8.259   7.294  13.093 -0.5086 -0.2842  0.2431
11458W        W26589   2.472  16.155  12.323  0.2452 -0.1379 -0.2789
11459W        W26590  10.753   5.386   1.670  0.2645  0.0678 -0.2359
11460W        W26591  12.378  16.110  11.805  0.0725 -0.0539  0.0853
11461W        W26592   8.081   5.845  12.236  0.0129 -0.0827 -0.3094
11462W        W26593  10.827  15.760   1.550 -0.2000 -0.2226 -0.1139
11463W        W26594   3.084  16.557  12.971 -0.1150 -0.0602  0.2997
11464W        W26595   4.489  10.775   4.230 -0.2841  0.0738 -0.0089
11465W        W26596   9.721  12.084  15.040 -0.1891  0.2143 -0.3340
11466W        W26597  13.635   2.376  15.641 -0.1755 -0.0037 -0.1379
11467W        W26598   4.820  12.444   1.915 -0.1850  0.1361  0.1617
11468W        W26599  14.419  10.872   1.873  0.2172 -0.1899  0.1591
11469W        W26600   1.599   7.452   4.334  0.2461  0.3327 -0.1456
11470W        W26601   0.290   2.023   1.300  0.2098 -0.4955 -0.0286
11471W        W26602   3.976  14.863   3.655  0.0007  0.0252  0.0028
11472W        W26603  10.113  10.625   4.352 -0.0577 -0.0722  0.0430
11473W        W26604  16.222  14.970  15.510  0.0448 -0.4005  0.3879
11474W        W26605   4.011  17.074   4.505 -0.2609 -0.2213  0.1579
11475W        W26606   7.975  11.253  10.748 -0.1697 -0.0325 -0.1705
11476W        W26607  16.246   8.003   5.701 -0.2166  0.3725 -0.0343
11477W        W26608  11.599   2.095  12.389 -0.1785 -0.0154  0.1132
11478W        W26609  15.001   2.534   5.627 -0.2582  0.0030 -0.1735
11479W        W26610  14.398  13.935  13.860 -0.1316 -0.1952  0.0683
11480W        W26611  10.939   4.523   1.018 -0.2031  0.1985  0.0835
11481W        W26612   2.506   5.340   2.046  0.3932  0.1715 -0.2222
11482W        W26613   5.382  13.352   0.311 -0.1209  0.0167  0.0032
11483W        W26614   6.940  14.606   6.099 -0.2317  0.2262 -0.0331
11484W        W26615   2.725   4.849   5.208  0.2412 -0.1606 -0.0328
11485W        W26616   0.541  12.104  13.894  0.3234 -0.1149 -0.0584
11486W        W26617  17.418   5.419   4.874  0.1455 -0.0557 -0.0964
11487W        W26618   3.979   0.180   4.012 -0.2609  0.2079  0.0022
11488W        W26619   8.026   2.015   3.190 -0.1594 -0.0473  0.1696
11489W        W26620   4.114  14.512   4.186  0.3759 -0.4131  0.1114
11490W        W26621   3.125   8.509   2.482  0.1124 -0.4135  0.2090
11491W        W26622   4.008   8.670  14.202 -0.3515  0.0541 -0.1537
11492W        W26623   0.869  12.260   0.789  0.0475  0.0710 -0.1717
11493W        W26624   0.207  15.513   4.326  0.0172  0.0690  0.0811
11494W        W26625  16.980  11.530  13.462  0.0427  0.0630 -0.0481
11495W        W26626  18.479  14.748   4.160 -0.0973  0.1588  0.1504
11496W        W26627   1.793   6.747   4.615 -0.0198  0.0484  0.0604
11497W        W26628  17.013  17.516   0.034 -0.1928 -0.0359  0.1444
11498W        W26629  16.717   4.528   2.834  0.1008 -0.2669  0.3336
11499W        W26630   5.311   9.342  15.752 -0.1378  0.1271  0.1007
11500W        W26631  13.620   3.563   4.076 -0.1904 -0.5364  0.2775
11501W        W26632  15.615   5.903  10.291  0.1086 -0.1057 -0.2751
11502W        W26633   3.259   6.940  12.023 -0.3176 -0.3290 -0.1744
11503W        W26634   6.212  16.074  10.961  0.1751 -0.2286 -0.0623
11504W        W26635   2.654   7.874  10.855 -0.0789 -0.4568  0.0374
11505W        W26636  10.445  16.789  14.389 -0.2122  0.3231  0.1185
11506W        W26637   0.268  13.114   1.601 -0.0029  0.2613 -0.2250
11507W        W26638  11.934  16.239  11.594  0.0520 -0.1347 -0.2946
11508W        W26639   6.986  17.843  14.869  0.5533 -0.0110  0.2292
11509W        W26640   9.705   3.194  15.130  0.4624 -0.0111 -0.0214
11510W        W26641   2.293   9.540  15.770 -0.1212 -0.0393  0.0969
11511W        W26642  12.625   2.933  12.084  0.6402  0.0323 -0.0620
11512W        W26643   0.571  11.178  12.551  0.2453  0.1581  0.1371
11513W        W26644  17.134  17.805  11.447  0.1202 -0.0194 -0.2866
11514W        W26645   1.325   6.654   0.824  0.2990 -0.0722 -0.2716
11515W        W26646   6.186   0.112  13.109 -0.3616  0.1333  0.2372
11516W        W26647  14.184  12.980   1.910 -0.0229 -0.2625 -0.2610
11517W        W26648   8.945  12.790   1.439  0.1257 -0.2121  0.2675
11518W        W26649   1.945  14.056  11.652  0.0587 -0.0674  0.1700
11519W        W26650  16.276   6.006  10.826 -0.0908 -0.2009 -0.2118
11520W        W26651   8.989  18.598   2.557 -0.0945  0.0646  0.0970
11521W        W26652   0.384   6.693   5.324 -0.0091 -0.2745 -0.0295
11522W        W26653   5.318   6.864  12.297  0.2141 -0.0832 -0.1951
11523W        W26654   0.001  12.989   3.304 -0.4928  0.2074 -0.3144
11524W        W26655  11.275   8.230  15.765  0.0586 -0.2509 -0.2113
11525W        W26656  15.605  17.294   5.431 -0.0667 -0.1787 -0.2285
11526W        W26657   8.387   9.040  14.678  0.0523 -0.5321  0.1514
11527W        W26658  12.242   0.477  12.906  0.0511  0.2885 -0.3771
11528W        W26659   6.044   3.241  15.709 -0.2303 -0.1309 -0.2602
11529W        W26660  12.499   0.925   3.443  0.4086 -0.0569 -0.1612
11530W        W26661   7.247   3.774   5.595  0.0582  0.0000  0.1000
11531W        W26662  17.030  14.555   2.425  0.1449 -0.0640  0.3572
11532W        W26663   4.137  16.023  11.423 -0.1778  0.1274 -0.0261
11533W        W26664  14.645   0.480  14.821 -0.0579 -0.0211  0.1603
11534W        W26665   9.710   3.565  10.850 -0.5044  0.0136 -0.0426
11535W        W26666  14.637  18.020   1.374  0.3535  0.2132  0.1462
11536W        W26667  13.248   0.498   5.220 -0.0967 -0.2419  0.0911
11537W        W26668  12.310   0.401   5.562  0.1950  0.0297  0.0748
11538W        W26669   8.945  18.437  14.932  0.0902 -0.1582 -0.0301
11539W        W26670  10.514  14.515  15.163 -0.1326 -0.2913 -0.1760
11540W        W26671   9.727  17.536   3.381  0.0163  0.1771  0.1755
11541W        W26672  18.264   7.532   1.633  0.0703  0.3752 -0.1630
11542W        W26673  13.328  11.106   4.762  0.2420 -0.4344 -0.0997
11543W        W26674   3.724  11.222  10.610 -0.0835 -0.1736  0.2324
11544W        W26675   1.488   8.332  10.711 -0.2328  0.1776 -0.1540
11545W        W26676  13.976  17.468   1.498  0.3126 -0.1595  0.0403
11546W        W26677  15.152   9.680   9.894  0.0397 -0.0800 -0.2478
11547W        W26678  14.998  12.586   2.969 -0.0951 -0.0178 -0.3306
11548W        W26679   7.469  15.480  13.464 -0.1958  0.3322  0.1966
11549W        W26680   1.658  17.566   3.601  0.1931 -0.1120 -0.1225
11550W        W26681  10.790   1.383   4.820  0.1407  0.2149  0.2922
11551W        W26682   1.947  11.780   1.801  0.0987 -0.2442 -0.0582
11552W        W26683   2.422  12.427  15.396  0.0673 -0.1758  0.0760
11553W        W26684  11.167  17.951   0.145 -0.3494  0.0333 -0.2725
11554W        W26685  13.363  15.825   1.387  0.1216  0.0948 -0.0024
11555W        W26686   7.055  12.233   2.630  0.0184  0.0779 -0.2892
11556W        W26687   0.390  12.855   3.667 -0.3905  0.0493  0.2501
11557W        W26688  16.734  13.179  14.216 -0.0629  0.2996 -0.0010
11558W        W26689  18.699   3.867   3.395 -0.3111 -0.0155  0.0831
11559W        W26690  12.169  14.885   2.935  0.4546 -0.0503  0.1018
11560W        W26691   6.057   8.908  14.090  0.0197 -0.1055 -0.2024
11561W        W26692   8.983   2.365  13.013 -0.2105 -0.0894 -0.0322
11562W        W26693  16.693   3.352   1.056 -0.1121 -0.3090  0.1479
11563W        W26694   2.523   4.258  14.228 -0.0075 -0.0892  0.5598
11564W        W26695  11.787   1.624   1.853  0.0099 -0.1448 -0.1557
11565W        W26696   7.985   9.900  11.213  0.3778 -0.2958 -0.2225
11566W        W26697   4.316   2.805   2.970  0.0988 -0.0085 -0.2231
11567W        W26698   8.075   8.336   2.597  0.3583 -0.2839 -0.0120
11568W        W26699  10.500   2.034   2.052  0.1364  0.3042  0.1325
11569W        W26700   1.224   6.038  12.344  0.2616 -0.0350  0.1389
11570W        W26701   4.774   9.838   5.513 -0.1835 -0.0614  0.2434
11571W        W26702   4.500  15.398  12.983 -0.0241 -0.0895  0.1046
11572W        W26703   5.839   0.178  12.655  0.1720  0.3232  0.0055
11573W        W26704  17.924   8.894  13.333  0.0580  0.2547 -0.0172
11574W        W26705  14.247  11.032  14.656 -0.2209 -0.3172 -0.0918
11575W        W26706   7.817  15.471   2.318  0.1602  0.0246  0.3296
11576W        W26707   0.652  17.103   1.422 -0.3407  0.0118  0.1700
11577W        W26708   9.045  16.345  15.176 -0.1156 -0.0638 -0.1173
11578W        W26709   7.154  18.591   5.714  0.3213  0.2358 -0.1240
11579W        W26710  17.081   1.353   3.649 -0.0684 -0.0838  0.1295
11580W        W26711   2.515   5.113   4.179 -0.0358  0.0228  0.0458
11581W        W26712   1.152   5.817   0.966 -0.0588 -0.0172  0.3433
11582W        W26713   7.750   1.323  13.770 -0.0737  0.2921 -0.0138
11583W        W26714  15.919  10.590  11.176  0.1813  0.1152 -0.1911
11584W        W26715   0.933   6.961  13.043 -0.1515  0.1188 -0.2256
11585W        W26716   6.277   9.389   0.816  0.0785  0.1706  0.1411
11586W        W26717  13.547   4.051  12.657  0.2154  0.1811  0.2321
11587W        W26718  11.575  18.529   5.361 -0.2455 -0.1195 -0.0235
11588W        W26719   0.406  18.227  15.706  0.4228  0.1308 -0.1893
11589W        W26720  16.982  16.455  14.564 -0.4813  0.4909 -0.0587
11590W        W26721   8.675  15.983  14.018  0.3611  0.0660 -0.0010
11591W        W26722  10.878   5.407  14.531 -0.0761  0.0458 -0.2444
11592W        W26723   9.043   1.554  13.459 -0.1289  0.2856  0.3042
11593W        W26724   6.559  17.967  11.627 -0.0230  0.0167 -0.2731
11594W        W26725   9.261  11.691   2.875  0.0804 -0.0754 -0.2303
11595W        W26726   8.411   4.946   4.482  0.0862  0.0749 -0.2448
11596W        W26727   9.814   7.357  13.535 -0.2810  0.0109  0.2284
11597W        W26728   8.724   5.445  11.723  0.3804 -0.0867  0.1759
11598W        W26729   9.176   1.610   2.803  0.3902 -0.2439 -0.3986
11599W        W26730  11.726   4.078  13.217 -0.0737  0.2314  0.0966
11600W        W26731   6.002   6.285  15.562 -0.0066 -0.2265  0.3682
11601W        W26732  18.013   4.187  13.193  0.1799 -0.0157 -0.0775
11602W        W26733   7.019  10.944  15.563  0.0940 -0.1328  0.1379
11603W        W26734   5.258  13.378   2.861 -0.2002  0.1450  0.1040
11604W        W26735   6.737  10.013  14.546  0.0228  0.0552 -0.2259
11605W        W26736   3.389   6.314   1.222  0.3700  0.2391 -0.1482
11606W        W26737   0.791   1.422  11.622  0.1046  0.1189 -0.2838
11607W        W26738  12.607   2.106   0.696 -0.2289  0.0451 -0.0523
11608W        W26739  10.119   5.889   1.255 -0.0293 -0.0088  0.0821
11609W        W26740   8.910   4.398   0.599 -0.5845  0.2955 -0.2298
11610W        W26741  10.085  17.624   0.860 -0.0192 -0.2753 -0.1236
11611W        W26742   5.924  15.787  11.157 -0.2715 -0.0463 -0.1581
11612W        W26743   4.725   7.904   4.600 -0.4335  0.0802  0.4455
11613W        W26744   6.846   7.578  10.503 -0.3290 -0.0431 -0.2228
11614W        W26745  11.547  15.513  11.482 -0.3071 -0.2487 -0.0247
11615W        W26746   2.699  16.066   5.409 -0.0014 -0.2828  0.1819
11616W        W26747   0.478  10.221   4.386 -0.0262  0.2615  0.3752
11617W        W26748  18.688  17.793   3.939 -0.1576  0.0523 -0.1861
11618W        W26749  11.067  13.628   2.779 -0.0414 -0.2127  0.0011
11619W        W26750  12.808   4.194  13.231 -0.4084  0.0674  0.0650
11620W        W26751  16.265   6.191   4.797  0.0771 -0.1625 -0.1516
11621W        W26752  11.392   3.510   3.728  0.0637  0.0500 -0.2733
11622W        W26753   9.226  10.159   4.272  0.1857 -0.2827  0.2836
11623W        W26754  12.991   7.523  15.218 -0.5625  0.1832 -0.0855
11624W        W26755  15.483  18.500   4.322 -0.1859  0.0070 -0.2459
11625W        W26756   2.774  16.904   4.998 -0.1518  0.0934 -0.2244
11626W        W26757  14.166  15.288   3.336  0.1799  0.1637 -0.0372
11627W        W26758  10.935   2.415   6.071 -0.0407  0.0727  0.0329
11628W        W26759  17.120   3.102   3.378 -0.0880 -0.0085 -0.0410
11629W        W26760  10.845   9.397  11.443  0.1456 -0.0968 -0.0946
11630W        W26761  15.477   3.909   4.380 -0.0440 -0.0001 -0.2061
11631W        W26762  10.039   6.957   0.449  0.0361  0.3338  0.2214
11632W        W26763   5.334  17.125  11.892  0.1654  0.0267  0.0911
11633W        W26764   7.936  14.317   1.818 -0.0605  0.2190 -0.0884
11634W        W26765   8.132   5.545   4.103  0.0871  0.0023  0.4512
11635W        W26766  14.143  15.760   3.140 -0.0656  0.0184  0.0129
11636W        W26767   5.694  18.455  12.423 -0.0879 -0.1962 -0.0148
11637W        W26768   2.986   7.437  13.532  0.0846 -0.0270  0.0066
11638W        W26769  17.772   2.161  15.033 -0.2362 -0.1943  0.1875
11639W        W26770  10.381   6.879  12.191  0.0260 -0.2210  0.1693
11640W        W26771  15.906  15.170   3.557 -0.1341  0.3042  0.2303
11641W        W26772  17.823   2.791  12.651  0.0713 -0.0609  0.0009
11642W        W26773   6.054   7.490   0.557 -0.3176 -0.2483 -0.0496
11643W        W26774  15.609  16.691   1.490 -0.2019  0.0950  0.2464
11644W        W26775  16.964  17.862   0.440  0.3043 -0.2763 -0.1557
11645W        W26776  13.181   2.793   3.116 -0.1733 -0.0598  0.0788
11646W        W26777   9.531  16.327   4.158  0.0883 -0.1307  0.0319
11647W        W26778  17.772   4.590  14.679  0.0309 -0.2062 -0.1351
11648W        W26779  16.447  12.714  15.369  0.0850 -0.2606 -0.4026
11649W        W26780  15.828   8.663  13.867 -0.0088  0.0377  0.3086
11650W        W26781   9.190   5.354  12.618  0.1712 -0.1165  0.0761
11651W        W26782   3.120  18.188  15.358 -0.0436  0.0788 -0.1136
11652W        W26783  16.592  18.019   2.189 -0.4244  0.0978  0.0395
11653W        W26784  10.897   6.180  14.025 -0.1689  0.0976  0.0649
11654W        W26785   4.838   9.038  12.830  0.0040  0.1315  0.0012
11655W        W26786  12.811  15.390  10.263 -0.2415 -0.0555 -0.3157
11656W        W26787   8.719   7.305   3.358 -0.0253  0.0613  0.1591
11657W        W26788   6.377   4.006   4.131 -0.1196 -0.0800  0.1831
11658W        W26789  11.408  12.717   1.658  0.2296  0.1586  0.1750
11659W        W26790   5.113   2.786  12.523  0.0087  0.0782 -0.0233
11660W        W26791   2.983  18.419  12.047 -0.1341 -0.0945 -0.1579
11661W        W26792   5.745  18.639  13.025  0.2119  0.0104 -0.0836
11662W        W26793  10.962   3.591   3.514  0.1091 -0.0848 -0.0645
11663W        W26794  15.767   9.461   3.219 -0.0460 -0.0417 -0.4759
11664W        W26795  16.041   2.998  11.822 -0.0542  0.1752 -0.0353
11665W        W26796   2.970   5.151   0.154  0.0662  0.0107 -0.1075
11666W        W26797   4.175   5.067  13.381  0.0069 -0.1791  0.1695
11667W        W26798   1.303   5.614  15.341 -0.1919 -0.3095  0.3047
11668W        W26799  15.759   7.225  14.113 -0.1892 -0.5602  0.5311
11669W        W26800   2.660  16.561  12.550  0.0465  0.1868  0.1599
11670W        W26801  17.409   5.930   1.400 -0.0285 -0.0698  0.1639
11671W        W26802   1.964  17.357   4.606  0.1944  0.2075 -0.3362
11672W        W26803  11.835  12.249   3.832 -0.2390  0.0006  0.0796
11673W        W26804   4.435  10.724  11.982  0.0735 -0.1056  0.2267
11674W        W26805  10.371   0.412  11.557 -0.2928 -0.1731 -0.0188
11675W        W26806   8.631   1.273   0.434 -0.0741 -0.2942 -0.1270
11676W        W26807  16.833  11.568  15.497 -0.1091 -0.0032  0.0231
11677W        W26808  14.670   9.758  13.597  0.2621  0.1361  0.4810
11678W        W26809  16.189   2.645   3.239  0.1020 -0.0489 -0.0643
11679W        W26810   7.640  10.414  11.959 -0.0687 -0.1445  0.2084
11680W        W26811  12.302  12.927   0.444  0.0411 -0.1846  0.0091
11681W        W26812   8.671   7.025   2.426  0.1381 -0.0592 -0.0247
11682W        W26813  11.477  13.573   1.883  0.1817 -0.0333 -0.1864
11683W        W26814   4.486   1.531   2.739 -0.1246  0.0185 -0.1100
11684W        W26815  17.241   1.293   1.832 -0.2522  0.3045 -0.0300
11685W        W26816  15.024  15.002  11.549 -0.0688 -0.2246 -0.1342
11686W        W26817  17.739   1.478  13.794  0.0713 -0.2772 -0.0496
11687W        W26818   0.158   6.725  13.073  0.2042 -0.1552 -0.1098
11688W        W26819  15.411  17.643   4.331 -0.0120  0.2012  0.3216
11689W        W26820  12.783   9.072  13.776  0.0955  0.1992 -0.1366
11690W        W26821   9.451   9.191   0.927 -0.0863 -0.1899 -0.0745
11691W        W26822   1.326   8.962  12.102 -0.0618 -0.1617 -0.1361
11692W        W26823  10.180   9.382  10.091 -0.1367  0.0424 -0.0919
11693W        W26824  13.737   6.286  11.561 -0.0258 -0.0145  0.0639
11694W        W26825   5.512   8.297  13.459 -0.2658  0.1003  0.1284
11695W        W26826   3.284   2.728  10.869 -0.2985 -0.2927  0.0837
11696W        W26827   6.970   0.077   1.141 -0.1151  0.2643  0.0091
11697W        W26828   1.548  15.199   0.584  0.0437 -0.2465 -0.2220
11698W        W26829  13.582   3.295   1.584 -0.0390  0.1699 -0.0111
11699W        W26830   6.433  13.271  12.734 -0.2396 -0.0043 -0.0051
11700W        W26831  11.356  16.166   0.115  0.1910  0.2065  0.1261
11701W        W26832   1.403  16.968   4.067 -0.0546 -0.3332  0.2361
11702W        W26833  18.644  10.173   1.168  0.2203  0.2829 -0.1831
11703W        W26834  15.409   9.734  14.655  0.2388  0.1391 -0.2241
11704W        W26835   5.374  11.691   0.471 -0.1157 -0.3761 -0.1288
11705W        W26836   6.797   8.222   2.164 -0.0693  0.3028  0.1108
11706W        W26837   5.489   7.470  15.381  0.2194 -0.2568  0.1299
11707W        W26838   5.780  15.953  15.018  0.1891 -0.0030 -0.0194
11708W        W26839  16.209  11.406   1.016 -0.1162  0.2037 -0.1322
11709W        W26840  17.237  10.940  10.060 -0.3540  0.0855  0.2666
11710W        W26841   1.274  15.549  13.359  0.0810 -0.2092 -0.2459
11711W        W26842  11.735  10.558   9.994  0.2301  0.2135 -0.3172
11712W        W26843   4.122   4.057   3.560  0.2000 -0.1173  0.0994
11713W        W26844  15.844  11.510  10.902  0.1551 -0.2019 -0.2507
11714W        W26845  14.400   7.610   9.816  0.1150 -0.4677 -0.0096
11715W        W26846  17.329   6.607  10.512 -0.3213  0.3278  0.1716
11716W        W26847  15.089  13.679   0.350  0.1301  0.0815  0.3418
11717W        W26848  12.380  18.248   4.936  0.3454  0.0455  0.0244
11718W        W26849   6.381  13.677  14.720  0.2111  0.0220  0.3834
11719W        W26850  16.882   0.543   4.154 -0.0062 -0.2106  0.1114
11720W        W26851  18.077   0.659  14.882  0.0434  0.0411  0.0151
11721W        W26852   1.309   4.700  10.809  0.0118 -0.0135 -0.0517
11722W        W26853   2.990   3.579   2.422 -0.0528  0.1606 -0.1210
11723W        W26854   9.114  11.393   1.045 -0.1179 -0.0085 -0.0416
11724W        W26855  18.085   0.604  13.871  0.0601 -0.1173 -0.1801
11725W        W26856   8.539   9.247  11.621  0.0211  0.0317 -0.1521
11726W        W26857   6.804   5.068  11.876  0.0970 -0.1296 -0.0834
11727W        W26858   7.608  11.868  13.703  0.1793  0.0541  0.2015
11728W        W26859   8.513  16.541   5.025 -0.2138 -0.0678 -0.0744
11729W        W26860   3.238   1.881  13.675  0.0121 -0.2142 -0.1720
11730W        W26861  18.005   3.408   1.977  0.4167  0.2117 -0.2564
11731W        W26862  18.055   1.297  12.559 -0.0143  0.2068 -0.0933
11732W        W26863   4.218   0.055  10.555 -0.2558  0.1087  0.0275
11733W        W26864   9.140  17.837  11.539  0.0806  0.2941  0.1978
11734W        W26865   5.256   7.197   2.467  0.0627 -0.3691  0.2614
11735W        W26866   7.535   3.101  11.437 -0.1521  0.1893  0.0680
11736W        W26867   2.716   1.437  15.422 -0.1328  0.1844  0.0681
11737W        W26868  18.598   0.642  11.644  0.1081  0.0878 -0.0272
11738W        W26869  13.715   8.876  13.479  0.0790 -0.1460  0.2856
11739W        W26870  16.751   1.890  13.068  0.2568 -0.0887 -0.2783
11740W        W26871  13.263   9.296  11.011 -0.2347 -0.2501  0.2637
11741W        W26872  17.472   7.096   4.800  0.4635  0.0823 -0.2940
11742W        W26873   3.212   3.210   3.902 -0.1112 -0.2609 -0.0417
11743W        W26874  14.181  10.724   4.072  0.1765  0.1464 -0.0173
11744W        W26875   6.107   5.555   2.745 -0.1645 -0.1270  0.1462
11745W        W26876   9.276   3.367  12.718 -0.2665 -0.0833 -0.1344
11746W        W26877   6.502  16.715   5.096  0.2434  0.0951 -0.0605
11747W        W26878   2.951   6.392   3.212  0.0041  0.0189  0.1541
11748W        W26879   7.370  12.542   0.940  0.1100  0.4357 -0.0880
11749W        W26880   1.058  13.630  10.894  0.2706  0.1242  0.0885
11750W        W26881   4.936  12.633   2.870  0.1693 -0.1263 -0.0609
11751W        W26882   3.239  17.590   3.998 -0.0159 -0.0402 -0.1919
11752W        W26883  15.738  15.079  13.658  0.1219  0.1185 -0.0145
11753W        W26884   7.759   4.191  10.358  0.3257 -0.0029  0.0172
11754W        W26885  18.487  13.326   4.566 -0.3455  0.2515 -0.1241
11755W        W26886   6.271  17.883   6.049  0.0103 -0.1366 -0.1249
11756W        W26887  14.721   5.751   1.152 -0.0682  0.1786 -0.1104
11757W        W26888   6.087  15.348   1.140 -0.2710  0.4703 -0.0773
11758W        W26889  15.074  18.188   1.434  0.0245  0.0057 -0.2730
11759W        W26890   1.304  10.149  13.521 -0.2073 -0.1799  0.0155
11760W        W26891   0.785   5.868   4.045 -0.0596 -0.4465 -0.2289
11761W        W26892  17.725   5.337  15.248 -0.0337 -0.0189 -0.3012
11762W        W26893   8.994   7.740  13.715  0.2564 -0.1993  0.0300
11763W        W26894   9.069  18.268  12.007 -0.0138 -0.0256  0.1042
11764W        W26895   6.055  13.975   1.860 -0.0225  0.2094 -0.0850
11765W        W26896   3.906   4.255  13.886  0.0876  0.2200 -0.0265
11766W        W26897   7.072   3.713   0.103  0.0126 -0.0266  0.5465
11767W        W26898  10.436  14.384  10.339 -0.0416 -0.0580  0.1905
11768W        W26899   8.889  18.566   0.721 -0.1672 -0.2559  0.0513
11769W        W26900   1.730  10.418  11.305  0.1357 -0.0099  0.0378
11770W        W26901   5.813  15.999   2.581 -0.1393  0.2822  0.2920
11771W        W26902   4.363   7.359   1.104 -0.0295  0.0665  0.0963
11772W        W26903  14.579   1.088  10.995 -0.1683 -0.2147 -0.3028
11773W        W26904  15.083  18.516   4.651  0.1137 -0.0992  0.4197
11774W        W26905   6.858  10.291   4.182 -0.0832  0.2714 -0.1373
11775W        W26906   6.390   3.429   3.240  0.2400 -0.1352  0.3116
11776W        W26907  17.228   3.739   3.140  0.1588 -0.1406 -0.3188
11777W        W26908  10.493   9.377   3.240 -0.3545 -0.1295 -0.1464
11778W        W26909  17.169   7.807  13.844  0.0042 -0.0084 -0.0660
11779W        W26910   9.780  16.531   3.189 -0.2320 -0.1684  0.2212
11780W        W26911  15.130  16.760  13.435 -0.0391 -0.0624 -0.3248
11781W        W26912   9.648  16.670  11.124 -0.0583  0.1980  0.2996
11782W        W26913  12.242   6.378   4.264  0.2317  0.3189  0.0134
11783W        W26914   6.187   2.714   2.223 -0.1480  0.4265  0.0663
11784W        W26915  14.913   8.503  11.392  0.0501 -0.2731  0.3012
11785W        W26916  18.257   2.311   4.133 -0.0760  0.3820 -0.1748
11786W        W26917   1.078   1.926   3.096  0.3502 -0.0382  0.0221
11787W        W26918   2.081  11.054   4.687  0.1584  0.2726  0.2941
11788W        W26919  15.162   9.921   3.886  0.0294 -0.1553 -0.2597
11789W        W26920   8.006  13.215  13.846  0.2620 -0.2116 -0.1005
11790W        W26921  18.429  13.611   1.000 -0.1511 -0.2847  0.2651
11791W        W26922  13.825   1.999   3.191 -0.2890 -0.2444 -0.2227
11792W        W26923  15.734  11.101  11.172  0.0218 -0.1105 -0.1453
11793W        W26924  17.269   8.103   0.212 -0.2380  0.1048  0.0183
11794W        W26925   2.227  17.197   3.786  0.0970  0.0691  0.1303
11795W        W26926   9.263  16.726  14.893  0.2070 -0.2432 -0.0943
11796W        W26927  10.866  15.547   3.530  0.1251 -0.1751  0.1888
11797W        W26928   0.186  17.503  12.380  0.0260 -0.1042  0.1179
11798W        W26929  12.960   7.107   5.006 -0.0509 -0.1895  0.1163
11799W        W26930   5.062   7.445  13.858  0.0031  0.1800  0.0521
11800W        W26931  10.664  17.188  13.188  0.2093 -0.1532 -0.0097
11801W        W26932  10.900   7.027  11.169 -0.0922 -0.0027 -0.2053
11802W        W26933   2.266   2.544  15.460  0.0582 -0.1221  0.1594
11803W        W26934   4.631  12.353  10.822  0.3488 -0.1700 -0.1831
11804W        W26935   5.569   3.381   5.025 -0.1514 -0.0364 -0.2015
11805W        W26936   9.490  10.360   9.657  0.6268 -0.0922  0.1937
11806W        W26937  18.113   1.319  14.447 -0.0197 -0.1150 -0.2585
11807W        W26938  14.048   2.722   1.641  0.4827 -0.0100  0.2419
11808W        W26939   2.739   0.868  14.998 -0.0724  0.1999  0.0373
11809W        W26940  15.650   5.952   4.943  0.1332  0.0848  0.0554
11810W        W26941  11.784   8.359  13.393 -0.0233 -0.2228  0.1542
11811W        W26942   6.765  12.554   3.001 -0.1539  0.0638 -0.1312
11812W        W26943   9.284  18.106  14.342 -0.1435  0.1149  0.1783
11813W        W26944   4.253   1.346   5.084 -0.0054  0.1311 -0.0058
11814W        W26945  11.634  13.595   5.203 -0.2402  0.2658 -0.4704
11815W        W26946   3.698   1.691   5.237  0.1942 -0.2635 -0.0954
11816W        W26947  12.028   8.850  13.277  0.2310 -0.3267 -0.1630
11817W        W26948  17.148   4.765  14.707  0.3360  0.1288 -0.0017
11818W        W26949   7.954  18.691   3.758 -0.3022  0.2896  0.0131
11819W        W26950   6.081  16.398   5.239  0.2428 -0.2590 -0.1616
11820W        W26951   3.303   0.573   0.517  0.0001 -0.2005  0.2638
11821W        W26952   5.685   4.651   3.434 -0.0799  0.1174 -0.0633
11822W        W26953   8.514   6.483   6.176  0.1398 -0.3540 -0.0395
11823W        W26954   4.861  14.598  15.327 -0.0041 -0.0684 -0.0192
11824W        W26955   5.264   3.931  14.961  0.0372 -0.3755  0.4189
11825W        W26956   6.372   8.402   1.793 -0.1377  0.1695  0.5669
11826W        W26957  15.935  14.975   3.060 -0.0561  0.2856 -0.1720
11827W        W26958   2.486   6.501  11.706  0.0850 -0.0509  0.1084
11828W        W26959   6.785  13.918  14.440  0.4938  0.0546 -0.1980
11829W        W26960   8.561   4.600  14.177  0.1728  0.0856 -0.2250
11830W        W26961  16.154  12.576   2.827 -0.1086 -0.0490  0.0797
11831W        W26962   6.811   0.469  11.163 -0.1846 -0.1938 -0.0755
11832W        W26963   7.648  16.601   1.235  0.1563 -0.0904 -0.0725
11833W        W26964  13.101  17.176   1.305 -0.1225  0.1679  0.2048
11834W        W26965   6.733   8.412  10.731  0.3637 -0.0588 -0.1304
11835W        W26966  11.062   1.373  12.878 -0.1596 -0.2453  0.1284
11836W        W26967  18.016  16.308   4.919  0.0566 -0.0317 -0.0692
11837W        W26968  17.134  18.166   2.291 -0.1485  0.3202  0.0451
11838W        W26969  15.244   9.300  15.613  0.0189  0.1441 -0.1767
11839W        W26970   7.580   1.933   2.747  0.0587  0.4034 -0.1841
11840W        W26971  10.225   2.135  10.917  0.0945 -0.0096 -0.1583
11841W        W26972   6.902   3.638  11.341  0.3098  0.1190  0.0528
11842W        W26973  11.402  15.092  14.849  0.0351 -0.0010 -0.0712
11843W        W26974   5.427   1.913  15.741 -0.1139 -0.3453  0.1684
11844W        W26975   7.150   6.742  10.412  0.4176  0.1926 -0.1669
11845W        W26976  17.263   5.417  11.739 -0.1250  0.1710  0.0773
11846W        W26977   2.732   5.394   1.181 -0.0110  0.2101  0.1924
11847W        W26978  14.360  16.699   0.296  0.1166  0.1551  0.0426
11848W        W26979   9.436   4.556   0.010  0.0218 -0.0180 -0.0263
11849W        W26980  12.936  15.885  10.050 -0.0523  0.1671  0.0822
11850W        W26981  16.881  12.088  14.915  0.2047 -0.0289 -0.2230
11851W        W26982  10.351  17.493   9.767  0.1418  0.1206 -0.0237
11852W        W26983  12.076  11.165   1.761  0.3624  0.0754 -0.0724
11853W        W26984   9.556   3.929   4.013  0.0961  0.4276  0.5273
11854W        W26985   6.424   3.771  15.353 -0.4567  0.0012  0.0100
11855W        W26986   3.146   8.835  12.194 -0.3143 -0.1306 -0.1822
11856W        W26987   5.505   8.748  11.060  0.2315 -0.0819 -0.1571
11857W        W26988  14.548   7.163  15.321 -0.1808  0.0333 -0.0084
11858W        W26989   7.347  10.546   2.352  0.0882  0.0497  0.2821
11859W        W26990   2.739  10.435   0.223  0.0428 -0.1392 -0.1446
11860W        W26991  15.977   5.327   9.607 -0.0603  0.0442 -0.0586
11861W        W26992  11.226   4.513  14.292 -0.1162 -0.1623  0.1824
11862W        W26993  11.423   3.109  14.694  0.4045  0.1984  0.0383
11863W        W26994   9.943   8.093   0.006  0.1706  0.1554 -0.1309
11864W        W26995  16.283  18.151   0.930 -0.2256  0.0283  0.0690
11865W        W26996  12.633   6.933   9.047 -0.0057 -0.4736  0.2504
11866W        W26997   9.519  14.966   5.370  0.0626  0.1318 -0.0707
11867W        W26998   6.400   0.031   1.883  0.1487 -0.0059 -0.0474
11868W        W26999   5.157   8.437   2.989 -0.3275  0.1551  0.2873
11869W        W27000  12.912   4.519  11.525  0.6298  0.1952 -0.3181
11870W        W27001  15.996   2.155   3.271 -0.1776 -0.0242  0.0063
11871W        W27002  18.460  11.004   0.217  0.1399  0.0872 -0.0856
11872W        W27003   4.179  14.389  14.252 -0.0699  0.1084 -0.1981
11873W        W27004  10.207  17.353   3.713 -0.2540 -0.2986 -0.0860
11874W        W27005  17.380   1.059   3.292 -0.0487 -0.3043  0.0886
11875W        W27006  12.808   4.578   4.321 -0.0603  0.0860 -0.3314
11876W        W27007  11.874  14.620   4.188 -0.2153  0.1681  0.1962
11877W        W27008  18.416   5.681  13.205 -0.3660  0.0971 -0.1699
11878W        W27009  12.036  13.187  11.178  0.1395  0.5241  0.0471
11879W        W27010  14.715   6.896   4.766  0.1019  0.0235 -0.0803
11880W        W27011  17.908   5.418   3.600 -0.0535 -0.2597 -0.1245
11881W        W27012   6.035  14.628   0.186  0.1809 -0.3325  0.0364
11882W        W27013   4.480   6.545  13.439 -0.0578  0.2429  0.4674
11883W        W27014  13.440  16.112   2.158 -0.1953  0.0873 -0.2162
11884W        W27015  10.235  16.832   3.055 -0.0368 -0.1234  0.0925
11885W        W27016  14.224   9.928   1.948 -0.1662 -0.3737 -0.2702
11886W        W27017   7.897   8.948  12.977  0.3948  0.1866 -0.0812
11887W        W27018   8.493  13.268   9.906  0.2799  0.0731  0.1084
11888W        W27019   5.057   2.120   4.309  0.0382 -0.1276  0.0861
11889W        W27020  10.373  11.048   2.471  0.1669  0.0569 -0.0188
11890W        W27021   0.365   5.768  15.764  0.0024 -0.3092 -0.0708
11891W        W27022   8.046  13.358   1.076 -0.3208  0.0884 -0.0415
11892W        W27023   4.993   9.774   3.099  0.1384  0.0267 -0.0018
11893W        W27024  14.388  13.581  11.725  0.0423  0.0184 -0.1338
11894W        W27025  16.177   4.320   5.133  0.4901  0.0861 -0.1185
11895W        W27026   6.594  12.937   3.803  0.0799  0.0525 -0.0807
11896W        W27027   7.845   2.435  10.999  0.0182  0.1212 -0.1418
11897W        W27028  13.584  12.780  13.145  0.1128 -0.0696 -0.1924
11898W        W27029   5.035  11.017  14.221 -0.3085  0.3576  0.2337
11899W        W27030  11.616  16.151  14.226 -0.0545  0.4278 -0.1142
11900W        W27031   5.179  14.034  13.212 -0.1126 -0.1561  0.2384
11901W        W27032   3.731  11.586  10.221 -0.0871 -0.0124  0.0354
11902W        W27033   0.450  10.230   1.501  0.1569 -0.3246  0.0266
11903W        W27034   4.363  14.458  15.199  0.0511  0.0439 -0.4722
11904W        W27035  10.317   4.577   4.405 -0.1419 -0.4155  0.1264
11905W        W27036   6.993  17.600  10.568  0.0146 -0.1255 -0.0186
11906W        W27037   8.120   5.188  11.680 -0.0002  0.0437 -0.1884
11907W        W27038  14.443  18.131   4.571  0.1166  0.3516  0.0836
11908W        W27039   6.992  11.478  10.256 -0.2752  0.1605 -0.5146
11909W        W27040   4.975   1.998   0.469 -0.1659  0.1918  0.0218
11910W        W27041  15.015   4.114   9.741  0.0785  0.2905  0.3327
11911W        W27042   8.640   4.636  11.494  0.4085 -0.0338  0.2011
11912W        W27043   1.333  14.094   1.287  0.0085 -0.2559 -0.1898
11913W        W27044  11.679   3.564  14.299  0.1629  0.2044  0.0271
11914W        W27045  10.429   2.665  12.836  0.1401  0.0263  0.3021
11915W        W27046  13.125  16.896  10.286 -0.0747  0.0442 -0.3553
11916W        W27047   5.245  13.723  14.139  0.0343  0.0948  0.3012
11917W        W27048   7.759   5.724  10.897  0.3129  0.1694  0.2797
11918W        W27049  14.902   9.833   1.571 -0.0917  0.0460  0.2096
11919W        W27050   0.148   8.990  13.443 -0.2611 -0.0989 -0.0755
11920W        W27051  13.549   6.792   3.764 -0.0200  0.0001  0.0950
11921W        W27052   1.437  16.466  12.448 -0.3303  0.0472  0.0216
11922W        W27053   8.286   5.989   3.128 -0.3276 -0.2642  0.1618
11923W        W27054  11.133  17.241   1.755  0.1109  0.1340 -0.1757
11924W        W27055   1.797   0.367  12.317 -0.0141  0.0856 -0.1560
11925W        W27056   3.305   4.286   2.402 -0.2882 -0.3787 -0.4283
11926W        W27057  11.762  12.955   9.409  0.3063 -0.1214 -0.0999
11927W        W27058  14.326  16.557   3.014 -0.1411 -0.0069  0.0642
11928W        W27059  12.405   1.798  11.086  0.0857  0.0036 -0.3652
11929W        W27060  13.710   9.987   3.388 -0.2158  0.1247  0.4242
11930W        W27061  18.647  12.164   3.838  0.1369 -0.1453 -0.1190
11931W        W27062  16.910  16.600   1.517 -0.0603 -0.5265 -0.3698
11932W        W27063  14.305   9.224  15.773  0.1440  0.0707  0.1943
11933W        W27064   9.401   9.164  13.251 -0.1012 -0.1204  0.1254
11934W        W27065  18.629   6.585  13.568  0.2054  0.0796  0.1525
11935W        W27066  10.144   4.350  11.487 -0.0751  0.2008 -0.1308
11936W        W27067   6.276  15.188  15.767 -0.0528  0.2326  0.2369
11937W        W27068  14.496  13.266   0.269  0.5360 -0.1883  0.0540
11938W        W27069  14.929  13.125   1.230  0.1422 -0.4591  0.0867
11939W        W27070   5.456  16.844  15.356  0.1175  0.0712 -0.4528
11940W        W27071  12.326   5.845   0.058 -0.0005  0.0021  0.1300
11941W        W27072   2.565  12.568   4.910 -0.0501 -0.1952 -0.0170
11942W        W27073   0.736   0.737   3.360 -0.0017  0.1716 -0.3878
11943W        W27074   2.107  11.666   4.196  0.0125  0.1240 -0.0404
11944W        W27075   7.146   1.997   3.056 -0.0334  0.2241  0.0403
11945W        W27076   8.725  12.410   5.231 -0.0501 -0.0304 -0.1703
11946W        W27077   9.184   7.724  15.248  0.0925 -0.3616 -0.0817
11947W        W27078   0.774  14.230  15.734 -0.2292  0.0111  0.1267
11948W        W27079   6.862  16.799   2.229 -0.1163  0.1412  0.0533
11949W        W27080   4.724  16.429  13.376  0.2719 -0.0715  0.1136
11950W        W27081   5.855   5.595   5.345 -0.0869 -0.1282 -0.0671
11951W        W27082  17.533  13.482   3.742 -0.2868  0.2480  0.0237
11952W        W27083  15.358   1.992   4.340 -0.2976  0.0048  0.0920
11953W        W27084  13.878   6.723  11.373 -0.1540 -0.2771 -0.1583
11954W        W27085  13.959   5.054   1.737  0.1647  0.1075  0.0381
11955W        W27086   5.263  10.001  12.243 -0.0780 -0.1057  0.0880
11956W        W27087  12.171  12.335  13.838 -0.2043 -0.3930  0.1546
11957W        W27088  13.392  10.538  14.923  0.1057  0.3549 -0.0182
11958W        W27089   4.729  13.993   2.746  0.1255  0.3086 -0.2410
11959W        W27090   7.709   1.042  11.113 -0.1251 -0.4819 -0.3473
11960W        W27091  14.628  14.088  11.416  0.0303 -0.1648 -0.0786
11961W        W27092   1.168  11.983  10.783  0.2700 -0.0294  0.1065
11962W        W27093   1.574   1.969  15.047  0.0405 -0.4716 -0.2316
11963W        W27094  16.943   8.448   5.159  0.0567 -0.2316  0.2794
11964W        W27095  13.168   2.596  13.726 -0.3052 -0.0415 -0.3773
11965W        W27096   8.494   0.198   4.403  0.0555 -0.0993  0.0081
11966W        W27097  11.226  10.923   2.066 -0.1373 -0.0558  0.1140
11967W        W27098  15.621  11.482  13.282  0.0086  0.2285 -0.2650
11968W        W27099  11.219  18.514  11.632  0.1224  0.1348  0.0887
11969W        W27100   8.860   4.886  12.850 -0.0479  0.3042 -0.3061
11970W        W27101  10.593  18.523   2.923  0.1630 -0.0600 -0.3058
11971W        W27102   4.191  14.360   1.130 -0.0156 -0.1073  0.0386
11972W        W27103   9.726  12.866   1.466  0.0792 -0.2700 -0.1808
11973W        W27104   8.518  17.734  10.767  0.0280  0.5214  0.1721
11974W        W27105  18.713  15.971   0.845 -0.0621 -0.0121 -0.0974
11975W        W27106   9.407  10.262  12.464 -0.3152 -0.0186 -0.3440
11976W        W27107   3.202  10.244   4.341  0.0695  0.1166 -0.0265
11977W        W27108   8.106  12.228   3.596 -0.1221 -0.3031  0.0736
11978W        W27109  16.231  15.990   4.551 -0.1951 -0.1628 -0.0447
11979W        W27110  12.006  17.172   4.703  0.0289 -0.2249 -0.0288
11980W        W27111  11.952  16.225   3.360  0.0251 -0.1600 -0.1392
11981W        W27112   3.606   4.454  15.642  0.1104 -0.3979  0.2245
11982W        W27113   2.575  15.660   5.100  0.0068  0.0358 -0.1982
11983W        W27114   6.114   4.048   2.579 -0.2836  0.1478 -0.1296
11984W        W27115  14.129  16.960  14.746 -0.2949 -0.0601  0.1924
11985W        W27116   3.177   5.973  10.400 -0.0842 -0.1738  0.3119
11986W        W27117   9.410  11.698   3.795  0.4876 -0.3633 -0.0388
11987W        W27118  13.139   0.450  11.315 -0.1331 -0.3340 -0.1035
11988W        W27119   2.940   3.450   2.939 -0.1409 -0.3651 -0.4760
11989W        W27120   1.370   9.413   5.990 -0.1096  0.0264 -0.1033
11990W        W27121   1.639   7.921  14.204  0.2220  0.3012  0.1668
11991W        W27122   8.901  14.727   0.432  0.0561  0.0576  0.0482
11992W        W27123   4.834   2.133  13.166  0.2772 -0.1094  0.1039
11993W        W27124   7.233   0.402  14.538  0.0542  0.1918 -0.0211
11994W        W27125   0.244   3.870  14.131 -0.0093 -0.0191 -0.1937
11995W        W27126   8.597   1.776   4.122  0.1501  0.0574  0.1701
11996W        W27127  14.489   0.748  13.821  0.0700  0.0230  0.0533
11997W        W27128  18.720   8.953  14.353  0.1054  0.0728  0.0427
11998W        W27129   2.848  17.713  14.596 -0.5898 -0.1333 -0.0889
11999W        W27130  10.581   4.975   3.114  0.0143  0.2425 -0.1202
12000W        W27131   7.546  18.439  15.210  0.4052 -0.0392  0.4775
12001W        W27132   7.259   3.165   3.546  0.0598 -0.1921  0.1214
12002W        W27133  10.476  18.178   4.041  0.3669 -0.5417 -0.1488
12003W        W27134  16.130   1.979  13.742 -0.0465 -0.1110 -0.0591
12004W        W27135  15.090  18.024   5.874 -0.0731  0.0618  0.0782
12005W        W27136   6.809   1.751   1.918 -0.0062 -0.2521 -0.0018
12006W        W27137  13.278  13.958   2.093  0.0788  0.1682 -0.0677
12007W        W27138  17.293  16.916   1.397 -0.0918  0.0767 -0.1644
12008W        W27139  10.456  15.330  15.327 -0.1045 -0.2565  0.0221
12009W        W27140   7.221  15.893   0.898  0.1066 -0.2639 -0.1408
12010W        W27141  11.751   5.490  10.050  0.2391 -0.0352 -0.0360
12011W        W27142  14.594  12.258  11.487 -0.1773  0.4507  0.0835
12012W        W27143   9.519  10.043   0.926 -0.0940  0.0276  0.1344
12013W        W27144  18.253   0.761  10.863 -0.1730 -0.0548  0.1460
12014W        W27145   5.376  11.166   5.725  0.1345 -0.0475 -0.0287
12015W        W27146   5.939  13.920   4.315  0.3074 -0.1111  0.2297
12016W        W27147  17.840  17.923  10.946 -0.0778  0.1308  0.0978
12017W        W27148  11.023  12.929   4.441 -0.2187  0.3120  0.0785
12018W        W27149  17.466  16.706   5.749  0.4467  0.1135  0.0325
12019W        W27150  17.980   6.910  12.749  0.3456  0.3081 -0.0907
12020W        W27151   4.770   7.793   3.893  0.2287 -0.2713  0.1839
12021W        W27152   1.066   4.361  15.789  0.1187  0.0025 -0.3113
12022W        W27153   3.141   0.379   5.863 -0.0596 -0.0390  0.0378
12023W        W27154  14.448   5.131  14.240 -0.3346  0.3582 -0.1548
12024W        W27155  10.753   7.859  14.561 -0.0856 -0.2554 -0.1675
12025W        W27156  11.568   3.104   4.042 -0.1180 -0.1827  0.1418
12026W        W27157   2.118   5.451  12.534  0.3318  0.1850  0.1394
12027W        W27158  12.046   3.778   0.380  0.1470  0.0793  0.2643
12028W        W27159  17.818  16.120   3.191  0.2856  0.2086  0.1426
12029W        W27160   0.593   9.535  13.810 -0.1984  0.1396  0.1537
12030W        W27161  16.098  16.222   2.664  0.1511 -0.2749 -0.0689
12031W        W27162   6.036  17.472   4.481 -0.0727 -0.0078 -0.2005
12032W        W27163   4.863  11.145   3.114 -0.1035 -0.0925 -0.2500
12033W        W27164  17.011   1.448   3.118  0.0028  0.3710 -0.3755
12034W        W27165   1.730  12.449   1.969  0.1600  0.1952  0.1739
12035W        W27166  15.397   0.831   1.107  0.0713  0.1030  0.0187
12036W        W27167   5.299  14.304  15.212 -0.0013  0.1847 -0.2898
12037W        W27168   5.099  15.211  15.471 -0.2537 -0.4000  0.2544
12038W        W27169  15.689  12.212  12.019 -0.2004  0.0041  0.0729
12039W        W27170  14.704   1.630   2.716  0.3948  0.2626  0.0260
12040W        W27171  11.613   6.044   4.980  0.2345 -0.0452 -0.1911
12041W        W27172   6.622  16.341  13.354  0.0814 -0.2092  0.1405
12042W        W27173   5.858  12.489  13.612 -0.3145 -0.1388 -0.1511
12043W        W27174   6.265  11.220   2.587  0.2522 -0.1503  0.1233
12044W        W27175   1.469   5.651   1.330  0.0537  0.2768  0.0362
12045W        W27176  12.221   6.403   2.309 -0.3078 -0.2540  0.0184
12046W        W27177   2.812  10.091  15.690  0.1295  0.2122  0.1248
12047W        W27178  10.594   5.374  12.622 -0.2179 -0.4488  0.3786
12048W        W27179   2.527   8.815   2.025  0.0704  0.2149  0.0383
12049W        W27180   8.412   6.717   4.904 -0.0801  0.0293 -0.0186
12050W        W27181   3.264   0.564  12.280  0.0124  0.0538 -0.5042
12051W        W27182  15.595  14.881  11.428 -0.1266  0.0262  0.1192
12052W        W27183   0.739   8.540   0.824  0.1178  0.3425  0.1022
12053W        W27184   7.089   0.142  14.105  0.2797 -0.1305 -0.0673
12054W        W27185  14.447  11.385  13.198  0.0500 -0.2778 -0.6328
12055W        W27186   3.590   6.545   4.804 -0.1005 -0.0353 -0.1937
12056W        W27187  13.892  10.706   5.912 -0.1809 -0.0549 -0.0639
12057W        W27188   2.704   5.362  13.732 -0.2101 -0.0910 -0.1068
12058W        W27189  14.921   4.417   1.806 -0.2539  0.2730  0.1054
12059W        W27190   4.617   7.673   0.839 -0.1750 -0.1722 -0.3142
12060W        W27191  11.215   1.777   3.455  0.2654 -0.1391  0.0570
12061W        W27192   7.088  18.157   2.821 -0.3654 -0.1496  0.0179
12062W        W27193  10.747  18.267  11.543  0.0788 -0.1683  0.2740
12063W        W27194   8.869  18.177  13.862 -0.1143 -0.1976  0.1365
12064W        W27195   5.813   0.046  14.412 -0.2650  0.0169 -0.2262
12065W        W27196  18.539   8.848   2.358 -0.5025 -0.2612  0.3827
12066W        W27197  13.430  14.249  11.286  0.1536 -0.2407  0.0249
12067W        W27198   0.491  17.157   4.918  0.0896  0.4286  0.0390
12068W        W27199  13.818   8.252  10.454 -0.0164  0.1740  0.2284
12069W        W27200   8.740   5.942   3.538 -0.1764 -0.0483 -0.0904
12070W        W27201   7.067   2.621  15.544 -0.1464 -0.1925  0.2265
12071W        W27202  18.405   1.039   0.902  0.0693 -0.0028  0.2815
12072W        W27203  10.203   5.857   3.641  0.0939  0.2277 -0.1426
12073W        W27204  14.124  13.292   9.977 -0.2954  0.1853  0.2866
12074W        W27205   0.530   0.200  12.369  0.0152 -0.0145  0.1622
12075W        W27206   6.921  13.171   4.101 -0.0514 -0.4026 -0.0340
12076W        W27207   2.359   9.426   0.702  0.1968 -0.2784  0.0665
12077W        W27208  13.910   6.831   9.214 -0.1784  0.2217 -0.2035
12078W        W27209   3.784  17.498   5.622  0.1557 -0.0381 -0.1455
12079W        W27210   8.782   0.324   2.794 -0.0439  0.1424  0.3916
12080W        W27211   7.937  16.628  13.951  0.3155 -0.1227 -0.3358
12081W        W27212   7.955   8.841  15.085 -0.2908 -0.2481  0.1118
12082W        W27213  18.328  16.153   5.325 -0.0604 -0.0935 -0.0202
12083W        W27214   6.009   9.469  14.922 -0.0136  0.0008 -0.1947
12084W        W27215   5.786   8.081   2.441 -0.1392 -0.1598 -0.2318
12085W        W27216   6.214   1.362   0.176  0.3111 -0.1963  0.3765
12086W        W27217  14.416   4.532   0.235 -0.0748 -0.0995 -0.1266
12087W        W27218   1.724  17.278  12.005 -0.2119  0.1507  0.4443
12088W        W27219  10.118   4.313  12.554 -0.3097  0.3121  0.3470
12089W        W27220  10.297   4.920   3.542 -0.0849 -0.0564 -0.0233
12090W        W27221  13.308   5.632   5.157  0.3424 -0.2133  0.1421
12091W        W27222   8.534  16.930   3.292  0.2484  0.2343  0.0071
12092W        W27223   9.836   0.092   2.529  0.0352  0.0971  0.1842
12093W        W27224   9.857  11.015  13.747 -0.3051  0.1962  0.2755
12094W        W27225  15.604   7.394  13.230  0.0224 -0.3349 -0.0256
12095W        W27226   3.209  12.344   0.680 -0.3301  0.0265  0.2128
12096W        W27227  10.543   3.630   1.363 -0.0626  0.6619  0.2507
12097W        W27228  12.348   8.921   2.630 -0.0601  0.0056  0.1522
12098W        W27229  11.586  15.792   0.315  0.0073  0.0227 -0.0418
12099W        W27230   3.908  11.980   1.557 -0.1962  0.1076  0.0250
12100W        W27231  15.311  11.454   3.221  0.0201  0.0345 -0.2886
12101W        W27232   3.507   1.554   5.667  0.0645  0.1387  0.1520
12102W        W27233   4.941  18.181  12.206 -0.0974 -0.3410 -0.3609
12103W        W27234  12.070  14.694  13.698  0.0561  0.0928  0.1731
12104W        W27235   0.440   5.236   3.855  0.1262 -0.1159  0.1429
12105W        W27236   7.184  13.571  14.535  0.1368 -0.0398  0.1705
12106W        W27237  14.186   3.343   2.509 -0.0714 -0.1154  0.0733
12107W        W27238  16.913   0.312  11.810 -0.1209  0.1481 -0.1499
12108W        W27239   6.579   2.989   6.111  0.2795  0.0935  0.0457
12109W        W27240  16.765   9.775   6.181  0.1977 -0.2324  0.2279
12110W        W27241  18.054   0.742  12.585 -0.2034 -0.0799 -0.0599
12111W        W27242   7.344  17.803   3.965 -0.1960 -0.2003 -0.0012
12112W        W27243   1.826   2.628   2.344  0.0711 -0.4243  0.0270
12113W        W27244  12.042   7.683   3.989 -0.1940  0.1273  0.1545
12114W        W27245   6.448   8.074  14.092 -0.3360 -0.0821 -0.1168
12115W        W27246   3.027  11.706  12.878 -0.2682  0.0800  0.0054
12116W        W27247   6.953   5.519   4.333 -0.0392 -0.0848  0.0943
12117W        W27248  17.069   0.518   5.310  0.1833  0.0565 -0.1565
12118W        W27249  12.798   9.401  12.509  0.0516 -0.0970 -0.2782
12119W        W27250  12.223   5.142   4.651 -0.0378  0.0713  0.0240
12120W        W27251   8.716   3.877  12.495 -0.1939 -0.2655 -0.2485
12121W        W27252   6.842   6.274  11.698 -0.1217 -0.0779 -0.0603
12122W        W27253  10.653   1.464   0.999  0.1851  0.2123 -0.2672
12123W        W27254   4.971   0.363   4.854  0.3007 -0.0821  0.1014
12124W        W27255  14.787   1.953   3.899  0.3796  0.2048 -0.1349
12125W        W27256   2.934   9.423  14.415 -0.3296 -0.1247  0.0742
12126W        W27257   1.932  12.536  15.737  0.0291  0.0515 -0.0013
12127W        W27258  13.929   3.909  14.169  0.1010  0.1438 -0.4503
12128W        W27259   9.459  14.524   0.832 -0.1157 -0.3370 -0.3507
12129W        W27260  14.573  11.134   1.185 -0.1468  0.0197 -0.0536
12130W        W27261  11.196   1.914   0.926 -0.1188  0.1860  0.1657
12131W        W27262  15.290   8.500  10.605 -0.1343  0.0327  0.0150
12132W        W27263  14.770   3.688   3.782 -0.3682  0.0056  0.1959
12133W        W27264   8.713  15.548   2.382  0.1962 -0.1212 -0.2586
12134W        W27265   8.489  16.511   2.075  0.0733  0.0814  0.1592
12135W        W27266   7.314  10.525  12.370 -0.0150  0.1790 -0.0926
12136W        W27267  14.726  18.407  15.804 -0.1314 -0.0086  0.3010
12137W        W27268   4.977  16.931   1.501  0.0183 -0.0650 -0.1695
12138W        W27269   0.344  11.946   2.136 -0.0143  0.0880  0.1933
12139W        W27270   2.340  11.021   3.179  0.2367 -0.0703  0.0126
12140W        W27271   0.324   7.268  11.881 -0.3814  0.0575  0.1509
12141W        W27272  14.506  16.271   2.208 -0.1964  0.1364  0.1740
12142W        W27273  16.313   7.505   1.135 -0.1699  0.1311 -0.2387
12143W        W27274   1.982  10.536  13.983  0.1764  0.4141 -0.0516
12144W        W27275  14.106  10.444   4.967 -0.0807  0.2421 -0.0185
12145W        W27276   4.837  16.068  12.389  0.1930  0.1568  0.1547
12146W        W27277   6.544   8.481   2.955 -0.1471 -0.1513 -0.1812
12147W        W27278  13.204   3.045   5.247 -0.1778  0.1103 -0.3919
12148W        W27279   8.445   1.859   5.563 -0.4755  0.3205 -0.2664
12149W        W27280  14.244   1.810   3.539  0.0631  0.0568 -0.0076
12150W        W27281  15.795  16.550  10.816  0.1142 -0.4534 -0.0591
12151W        W27282  11.076   7.823   2.969 -0.1848 -0.0189  0.1890
12152W        W27283   4.910  16.529  10.174  0.0990 -0.2444 -0.2239
12153W        W27284  16.313   5.242  10.363  0.0294  0.2318  0.0585
12154W        W27285  13.572  11.473   4.387  0.1151 -0.1226  0.1581
12155W        W27286  16.227  11.139   3.217 -0.0518 -0.1223  0.4211
12156W        W27287  16.840   3.746   3.865  0.1504 -0.1574  0.0916
12157W        W27288  14.639   2.239   0.963  0.1191 -0.0479 -0.0333
12158W        W27289   0.984   9.725  12.159 -0.3037 -0.1856  0.0405
12159W        W27290   3.255   1.835   1.632 -0.2847  0.0925 -0.0370
12160W        W27291   2.670   3.972  14.588 -0.0946  0.2340  0.1632
12161W        W27292  16.203  10.251  11.403  0.1916  0.0094  0.2139
12162W        W27293   2.546  15.634  15.151  0.1305 -0.0828 -0.1702
12163W        W27294   2.903   9.642  13.282 -0.0649 -0.0418 -0.1870
12164W        W27295  16.840   5.807   1.731  0.2710  0.3337 -0.2322
12165W        W27296   4.943   3.804  12.348 -0.0068  0.1855 -0.2045
12166W        W27297   4.304  12.172   1.227 -0.1197  0.1693  0.2856
12167W        W27298   3.080  14.759  11.497 -0.3420  0.1050  0.1835
12168W        W27299   5.883   2.535   5.386 -0.2942 -0.1590 -0.0335
12169W        W27300   8.429  18.180   0.804 -0.0044  0.4322 -0.1710
12170W        W27301   1.960  10.070   2.831  0.0076  0.0441  0.0693
12171W        W27302   6.216   3.398   0.456  0.4357  0.1508 -0.3460
12172W        W27303   9.608   5.793  11.723  0.0493  0.0895  0.1314
12173W        W27304   4.873   6.728   3.499 -0.2434 -0.1859  0.3190
12174W        W27305   5.501  13.218   1.787 -0.3396  0.2372 -0.0843
12175W        W27306   1.138   9.140   4.790  0.0914  0.0436  0.1154
12176W        W27307   2.748  14.678   3.641  0.0098  0.0024 -0.0506
12177W        W27308  16.491  16.394   1.674  0.2510  0.1497 -0.2012
12178W        W27309  14.141  16.426  10.589 -0.0810 -0.1001  0.2710
12179W        W27310   0.120   7.023   4.986  0.3807  0.0060  0.1919
12180W        W27311   6.737  14.730  15.173  0.1063 -0.0882  0.0802
12181W        W27312   9.816  14.296   1.642 -0.0421  0.1286  0.1620
12182W        W27313   2.055  14.073  11.120  0.3140  0.1562  0.0524
12183W        W27314   8.321   9.949   3.110  0.1523  0.0853  0.0024
12184W        W27315   9.321  14.491  11.752  0.1869  0.0292 -0.1047
12185W        W27316  14.818  14.050   3.170 -0.5646  0.2937  0.2037
12186W        W27317  16.061   0.221   1.185  0.1294  0.2187 -0.2211
12187W        W27318   2.616   2.513   5.623 -0.1437 -0.1012 -0.0125
12188W        W27319  16.343   4.840  12.357 -0.0713  0.1321 -0.1672
12189W        W27320  17.191  10.771   0.164 -0.2509 -0.0035 -0.0419
12190W        W27321  10.510   1.364  12.290 -0.0518 -0.3867 -0.2925
12191W        W27322  14.359   8.718   4.783  0.0230 -0.3893  0.1481
12192W        W27323   6.686  10.475   2.404 -0.0377 -0.1478 -0.2048
12193W        W27324  13.254  13.342  11.000 -0.3520  0.0787  0.1972
12194W        W27325   9.616   5.955  13.087  0.1636  0.1262 -0.2562
12195W        W27326   7.505   9.658   1.793  0.1538  0.0738 -0.2176
12196W        W27327  16.600  14.946  14.255  0.0512  0.0356 -0.0103
12197W        W27328   6.748  15.487  13.835  0.1057 -0.3830  0.3259
12198W        W27329  10.460  17.009   4.379  0.1722 -0.0787  0.0079
12199W        W27330   2.300  14.825  12.121  0.1259 -0.1943 -0.0088
12200W        W27331  17.638   5.081  14.155 -0.1987 -0.2316  0.1026
12201W        W27332   9.276   2.242  12.181 -0.3538 -0.1918  0.1093
12202W        W27333   2.398  15.835   0.803 -0.2188 -0.0820 -0.1515
12203W        W27334   4.651  13.318   0.982  0.0593  0.0636 -0.0277
12204W        W27335   1.253   1.436   3.512 -0.1679  0.2388 -0.2833
12205W        W27336   1.203   4.960  14.430 -0.2302 -0.0797 -0.0469
12206W        W27337   3.979   6.738  14.512 -0.1767 -0.3187 -0.2071
12207W        W27338  13.641   4.504  10.816 -0.2018 -0.1413 -0.0869
12208W        W27339   5.156  11.259  15.570 -0.1129  0.5426 -0.0151
12209W        W27340  16.488  15.575   0.491 -0.3088  0.0599  0.0936
12210W        W27341   6.182  18.529   0.595 -0.3198  0.3458 -0.3317
12211W        W27342  13.003   0.157   4.885  0.0870 -0.1107 -0.2096
12212W        W27343   2.638  18.677   2.140 -0.2819  0.2817  0.3092
12213W        W27344  16.211  16.537  15.586  0.3050 -0.1106  0.0500
12214W        W27345   1.167  17.575  15.152 -0.0591  0.0759  0.0344
12215W        W27346   9.854  14.356  11.022  0.2988 -0.0125 -0.3531
12216W        W27347  15.729  14.585  11.053  0.1767  0.1645 -0.1225
12217W        W27348  16.599   8.068   2.643 -0.3037 -0.0171  0.1202
12218W        W27349   7.827   4.556   4.271 -0.1832 -0.0665  0.3153
12219W        W27350  16.527  14.115   0.764  0.1317 -0.2207 -0.0170
12220W        W27351  13.353  16.600  10.902  0.1221  0.0618  0.3369
12221W        W27352  14.954   1.153   0.263 -0.1826  0.1002 -0.0502
12222W        W27353   1.366   0.863   0.386 -0.0364 -0.3333 -0.0046
12223W        W27354  16.159  17.065   4.741 -0.0491  0.3368  0.1671
12224W        W27355   6.640   3.625  14.242 -0.0812  0.1542  0.2521
12225W        W27356   5.112   9.447   4.843  0.0929 -0.0636 -0.0390
12226W        W27357   9.396  16.437   1.844  0.2381 -0.1067 -0.4344
12227W        W27358  16.113   5.071   5.357 -0.0029 -0.1747  0.2320
12228W        W27359   1.562   4.831   0.544  0.1138  0.0035  0.0531
12229W        W27360   5.310  11.612  15.210 -0.2246 -0.1931  0.1949
12230W        W27361   4.737  16.198  15.584 -0.0254 -0.1560 -0.0902
12231W        W27362   0.750   1.530   5.058  0.0757 -0.0149 -0.1102
12232W        W27363  13.446  16.873   3.250  0.0047 -0.1805  0.2196
12233W        W27364   7.688   9.383  11.072  0.0304 -0.0333  0.0153
12234W        W27365   6.456   9.477  10.664  0.1608 -0.3686  0.2452
12235W        W27366  10.422  16.032   1.200  0.3089 -0.1068  0.0015
12236W        W27367   7.231  16.432  13.523  0.1450  0.1407 -0.3423
12237W        W27368   1.256  15.457  15.426 -0.0932  0.0790  0.1906
12238W        W27369   6.829   9.886  11.867  0.0348 -0.0497  0.0480
12239W        W27370  13.730   1.854   1.422 -0.0734  0.2712  0.0696
12240W        W27371   3.407   7.803   5.012 -0.2892 -0.0304 -0.0575
12241W        W27372  14.926   6.063   3.390 -0.2237 -0.2227  0.3948
12242W        W27373   6.387  15.135  11.799 -0.0587 -0.1817  0.1135
12243W        W27374  16.939  10.576  12.176 -0.1231  0.1309 -0.1686
12244W        W27375  15.892   9.865  14.626  0.0461 -0.1192 -0.0078
12245W        W27376   7.548   9.910  13.385  0.1192 -0.5163  0.1688
12246W        W27377  16.517  14.541   2.673  0.2557  0.1679 -0.0848
12247W        W27378   8.761   6.526  13.317 -0.1341 -0.4361  0.0794
12248W        W27379  16.675   8.639   1.975 -0.0251  0.2056  0.0798
12249W        W27380  15.114  11.933  11.095  0.1440  0.4478  0.1774
12250W        W27381  12.529  14.658  11.988 -0.1189 -0.2251 -0.1552
12251W        W27382   2.170  14.431   1.416  0.2162 -0.1915  0.0379
12252W        W27383  16.717   4.066   4.227  0.2494 -0.1214  0.0708
12253W        W27384  14.933   3.400  13.722  0.3009  0.0310 -0.3112
12254W        W27385   8.379  17.503  11.880  0.0053 -0.2698 -0.2129
12255W        W27386   8.013  12.443  12.702  0.1342  0.0559  0.2996
12256W        W27387  17.131   4.193   2.457 -0.2297 -0.1890  0.0329
12257W        W27388   2.290  14.325  11.859 -0.2350  0.1804 -0.2104
12258W        W27389  10.203  14.561   2.899  0.2058 -0.0454 -0.0371
12259W        W27390  12.074   1.322   0.824  0.3068  0.1723 -0.0991
12260W        W27391   6.533   2.388   1.971 -0.0198 -0.1728  0.0158
12261W        W27392  14.658   9.032   3.933  0.0932  0.0675  0.3433
12262W        W27393  13.775   4.020   2.845  0.1371 -0.1978  0.1016
12263W        W27394  15.437   7.420   0.417 -0.0320  0.0899 -0.2172
12264W        W27395  18.634  16.981   0.966  0.0298 -0.0307  0.1735
12265W        W27396   0.172  10.901  12.369  0.0571  0.0615  0.2565
12266W        W27397   9.353   9.892   4.729  0.1269 -0.2067 -0.0286
12267W        W27398   1.796  17.834   5.497  0.2644  0.0227  0.1725
12268W        W27399  17.062   4.011  12.104 -0.0432  0.0253 -0.0779
12269W        W27400   4.675  15.774   4.951 -0.0042 -0.2139  0.0743
12270W        W27401   4.615   5.340   1.287 -0.2817  0.1249  0.0284
12271W        W27402  10.501   9.372   4.249  0.0335 -0.1690 -0.0807
12272W        W27403   8.327  17.854  15.435  0.0988  0.1240  0.0984
12273W        W27404   1.235  17.049  12.863  0.2888  0.3146  0.1923
12274W        W27405   2.947  18.518   1.682  0.2254  0.2726 -0.0414
12275W        W27406  11.004   1.468  13.407 -0.3037 -0.0945  0.3463
12276W        W27407  12.606  16.085  15.452 -0.0472 -0.1261  0.0846
12277W        W27408  17.778   6.018  13.670  0.1292  0.0193 -0.0247
12278W        W27409   6.308  17.542   1.623 -0.1815 -0.0933 -0.2220
12279W        W27410   9.409   8.034   5.662  0.0602  0.0106  0.0296
12280W        W27411  16.538   0.626   0.174  0.1236 -0.2838 -0.0456
12281W        W27412   3.941  12.750   4.165 -0.1869  0.1649 -0.0729
12282W        W27413  15.994  17.102   1.450  0.2918  0.3919 -0.3415
12283W        W27414   3.870  17.391  14.056 -0.2772 -0.0291  0.1931
12284W        W27415   1.677  12.841  11.894  0.3282  0.0640 -0.1597
12285W        W27416   8.060   2.295  12.664 -0.0693 -0.1639  0.1116
12286W        W27417   0.868   6.341   3.129  0.1900 -0.2070  0.0039
12287W        W27418   3.626   2.225  15.730  0.0843  0.2547  0.1169
12288W        W27419  13.277   0.632   5.761  0.3715 -0.0253  0.1898
12289W        W27420  18.682   1.944  13.627  0.1371 -0.1952 -0.0787
12290W        W27421   0.189   8.127   1.563 -0.0410  0.1443 -0.3373
12291W        W27422  16.573   3.156  14.099  0.0801 -0.4129 -0.1222
12292W        W27423   6.234   4.233   5.032  0.0957 -0.0443  0.2130
12293W        W27424   2.403  10.310  10.483  0.0219 -0.0751 -0.0183
12294W        W27425   0.661   5.901   2.331 -0.2319  0.3378  0.2872
12295W        W27426   2.026   4.885   2.812 -0.0223  0.1437 -0.0668
12296W        W27427   4.736   4.150   2.834 -0.5260  0.0641  0.3713
12297W        W27428  10.586   7.839  10.746  0.1148  0.1804 -0.4663
12298W        W27429  15.890  12.071   3.222  0.2197  0.3667 -0.0870
12299W        W27430   8.822  18.644  11.706  0.2258 -0.1071 -0.1279
12300W        W27431  17.191  16.777  13.139 -0.3275  0.2311 -0.0189
12301W        W27432   7.898  12.417   4.683  0.1332 -0.0678  0.3057
12302W        W27433   6.931  13.016  14.870 -0.3044  0.0537 -0.6626
12303W        W27434   0.245   9.603  15.076  0.1848  0.1120  0.0982
12304W        W27435  17.114   0.462  12.778 -0.0807 -0.4468  0.3989
12305W        W27436   4.440  17.748  12.220  0.2516 -0.5361  0.2015
12306W        W27437   3.369  14.866   0.387  0.2691  0.0520 -0.2154
12307W        W27438   1.000  14.465  11.924  0.3164 -0.1916  0.1453
12308W        W27439  11.677  16.448   9.961  0.1525 -0.3670 -0.0181
12309W        W27440   5.796  10.165   9.872  0.4545 -0.1420  0.0064
12310W        W27441  14.331   7.240  10.670 -0.1041 -0.0596  0.1325
12311W        W27442   5.838   7.238   1.880 -0.1816 -0.1183  0.0091
12312W        W27443   5.636  14.276   5.964  0.0642  0.3812  0.0299
12313W        W27444  13.508  17.464  11.160  0.0908  0.1856 -0.1067
12314W        W27445  12.716  17.332  12.248 -0.0946 -0.0155 -0.0472
12315W        W27446   6.695  10.578  12.057 -0.0323  0.1007 -0.5096
12316W        W27447   9.930   4.342  12.035  0.1425 -0.2019  0.1213
12317W        W27448   4.223  12.116  13.464 -0.0869 -0.2334  0.1376
12318W        W27449  18.251   2.787   0.171 -0.0818  0.0635  0.1085
12319W        W27450  14.069  11.068  13.141  0.1578 -0.0969  0.2566
12320W        W27451   8.067   9.151  12.527 -0.0596 -0.2008  0.2668
12321W        W27452   3.782   1.295  11.927 -0.2320 -0.0406 -0.0662
12322W        W27453  14.638  12.194   2.906 -0.0611 -0.1250  0.0451
12323W        W27454   9.566  14.127  13.291 -0.1777 -0.1170  0.2330
12324W        W27455  18.205   0.080  13.188  0.2490  0.3090 -0.1142
12325W        W27456  10.672   6.381   4.393  0.1571 -0.0271 -0.2514
12326W        W27457   2.942   7.462  12.979  0.0786  0.0785  0.1932
12327W        W27458   5.724   3.688  13.732 -0.0341 -0.2571 -0.0129
12328W        W27459  11.685  14.714   3.639 -0.1476 -0.2661 -0.2515
12329W        W27460  16.848  10.694  11.540  0.3392  0.0476 -0.4186
12330W        W27461  10.740  14.346  11.355 -0.1885 -0.2327  0.0327
12331W        W27462  13.674  14.431  10.825  0.2079 -0.1881  0.0050
12332W        W27463   9.351   8.593   3.535  0.1332  0.0809  0.0016
12333W        W27464  17.925  18.139   0.815 -0.1119  0.1340  0.1794
12334W        W27465  18.606   8.005  11.342 -0.1057 -0.0559  0.1670
12335W        W27466  14.443  18.134  13.778 -0.0357 -0.0478 -0.4528
12336W        W27467  14.273  16.719  13.854 -0.1219 -0.2171 -0.2170
12337W        W27468  12.984   8.924  15.621 -0.0021 -0.0120 -0.0849
12338W        W27469  11.144   9.973  13.939 -0.0793 -0.1991  0.0712
12339W        W27470   5.332   4.213   3.488 -0.1107  0.3087  0.1037
12340W        W27471  16.084   1.550  11.958 -0.1213  0.0802  0.0222
12341W        W27472  14.075   7.536  14.608  0.0118 -0.2339  0.2281
12342W        W27473  17.548  10.871   6.199  0.2298 -0.0375 -0.0871
12343W        W27474  18.182  10.563   1.239  0.2269 -0.0784 -0.0499
12344W        W27475   2.654   2.194   4.487  0.1176 -0.1987  0.0856
12345W        W27476   3.819   3.472  12.429 -0.0615  0.4047  0.1280
12346W        W27477   4.869  18.009   3.450 -0.0507  0.0019  0.2386
12347W        W27478   1.429   1.649  13.873  0.0219 -0.2876 -0.0955
12348W        W27479  13.021   4.550  10.842 -0.1982 -0.1873  0.1936
12349W        W27480   2.399  14.051   0.407  0.1045  0.2748  0.0536
12350W        W27481   1.003  16.926   5.977 -0.0032  0.3851 -0.1634
12351W        W27482   1.072  18.201   4.761 -0.0024  0.1473  0.1188
12352W        W27483   8.605   3.372   6.034  0.0713  0.1641  0.0150
12353W        W27484   8.404  10.281  11.363  0.1903 -0.0623  0.2677
12354W        W27485   8.331  17.699   0.755  0.1656  0.0822  0.0845
12355W        W27486  11.887   3.116  11.398  0.1420  0.3873 -0.2424
12356W        W27487   5.699   5.541   3.297  0.1639  0.2904  0.0162
12357W        W27488  15.055  11.074   1.226  0.2697 -0.0794  0.1121
12358W        W27489  17.100  11.808   1.637 -0.1350 -0.1852 -0.1676
12359W        W27490  11.970  17.349  12.719 -0.2626  0.0177 -0.1863
12360W        W27491   8.205   0.096  12.803 -0.1468 -0.1034  0.1912
12361W        W27492   7.878   8.894   3.851 -0.0886  0.2794 -0.1508
12362W        W27493  16.676   8.181  14.249 -0.2394 -0.1144  0.1372
12363W        W27494   6.174   6.829  13.064 -0.1822 -0.3571  0.3246
12364W        W27495   6.103   5.882  12.567  0.0732 -0.3050  0.0806
12365W        W27496  11.613  12.499  12.780 -0.0336  0.0290  0.0360
12366W        W27497   2.029   2.695   2.783  0.1563  0.2179 -0.0134
12367W        W27498  18.076   4.936  14.407 -0.2622 -0.0137  0.0880
12368W        W27499   4.618  13.064  14.682 -0.0833 -0.0666  0.0536
12369W        W27500  17.179   9.288  10.956  0.0473 -0.3319  0.3320
12370W        W27501  18.377   4.577  14.908 -0.0741 -0.0876 -0.2317
12371W        W27502   3.386  14.212   0.777  0.0833 -0.2163 -0.4034
12372W        W27503  15.505  14.573  13.580 -0.2348 -0.2650  0.0892
12373W        W27504   4.213  13.362   4.650 -0.4172 -0.2369  0.0603
12374W        W27505  12.742   0.833  15.523  0.2480  0.0061 -0.0751
12375W        W27506   0.191   8.252  10.789  0.0892  0.0535  0.3570
12376W        W27507   2.878  13.189  11.277 -0.1854  0.0766 -0.3150
12377W        W27508   1.978   1.037  13.609 -0.1213 -0.2106 -0.0843
12378W        W27509   6.726  12.504   4.428  0.0181  0.0867 -0.2384
12379W        W27510  10.566  16.474   1.032  0.1373 -0.0912  0.1837
12380W        W27511  13.853   5.835   4.839  0.2400  0.1717  0.0481
12381W        W27512   6.784   9.424  15.229  0.1956 -0.1248  0.0527
12382W        W27513   9.485  17.361  14.877 -0.4805 -0.1904  0.0524
12383W        W27514   1.212  16.973  11.887 -0.3648  0.1309  0.0310
12384W        W27515   3.875  14.032   5.324  0.0245 -0.0230 -0.0480
12385W        W27516   4.514  12.572  13.994 -0.3368 -0.1207 -0.0916
12386W        W27517   0.877  18.046  14.006 -0.0869 -0.0970 -0.1941
12387W        W27518  18.081  14.471   2.282 -0.0222  0.1017 -0.2266
12388W        W27519  18.423   2.244  12.312 -0.1852 -0.0745  0.3993
12389W        W27520  10.691  11.240  10.630  0.1941  0.0613 -0.0141
12390W        W27521   4.936   8.783   4.940  0.1803  0.1006 -0.0258
12391W        W27522  12.986  16.752  13.464 -0.0885 -0.0879 -0.1044
12392W        W27523  15.900   9.490   1.335  0.1815  0.4715  0.1832
12393W        W27524  18.589   4.751  14.404  0.0572  0.1274 -0.0385
12394W        W27525   7.137   4.811  15.702  0.1112 -0.0966  0.1038
12395W        W27526   8.089   1.549   1.416 -0.0770 -0.1438  0.1970
12396W        W27527  14.666   1.854   3.204  0.0737 -0.1166 -0.0029
12397W        W27528  13.846   8.081   1.316  0.1702 -0.1472  0.0485
12398W        W27529  16.267   6.869  15.047  0.5024  0.3047 -0.1088
12399W        W27530  11.523   0.009   0.341 -0.1177  0.2087 -0.3558
12400W        W27531  10.225  10.074   1.687 -0.3524 -0.0725 -0.0621
12401W        W27532  17.394   7.333  13.704 -0.3026  0.2254 -0.1079
12402W        W27533   1.883  13.971  14.247  0.1584 -0.2044  0.2457
12403W        W27534  17.258   2.662   2.967 -0.2617 -0.3055 -0.3461
12404W        W27535  10.928   9.285  12.389  0.0896  0.1841  0.0831
12405W        W27536   0.465  14.168   4.483  0.0446 -0.2483 -0.3110
12406W        W27537  11.501   2.273   1.220 -0.2634  0.0206 -0.0237
12407W        W27538   7.857  15.129  13.283 -0.1117 -0.2243 -0.0748
12408W        W27539  10.146   8.558  11.317 -0.1167 -0.0106 -0.1097
12409W        W27540  17.395   8.349  12.050 -0.0313 -0.0573  0.0737
12410W        W27541   9.721   1.859   4.751  0.0343  0.1719 -0.1973
12411W        W27542  11.861  10.502   4.799  0.1574 -0.2775 -0.1593
12412W        W27543  10.288  10.756  13.735 -0.3261  0.2066 -0.2530
12413W        W27544   5.831   0.552  12.374 -0.0004  0.0320  0.2219
12414W        W27545  14.951   9.534  13.061  0.1393 -0.1338  0.0985
12415W        W27546   8.246  16.354  12.030  0.1060  0.1966  0.1317
12416W        W27547  12.110   6.403  11.594 -0.0081 -0.0948 -0.0288
12417W        W27548  15.332   1.412  12.757 -0.1302  0.0806 -0.1216
12418W        W27549   0.496   9.440   9.719 -0.0962 -0.4863  0.1725
12419W        W27550  18.373   2.826   0.707 -0.3136 -0.1000  0.2019
12420W        W27551  16.981   1.132  15.551 -0.0727  0.0562 -0.2338
12421W        W27552  16.499  10.064  13.862 -0.1457 -0.0859 -0.0262
12422W        W27553  10.328   4.411  15.406 -0.2284  0.2802 -0.0622
12423W        W27554   0.738  16.697  10.529  0.0214 -0.0340 -0.1092
12424W        W27555  15.028  11.543   0.016  0.0298  0.0489  0.1908
12425W        W27556  15.436   0.222  13.826 -0.0042 -0.1496 -0.0385
12426W        W27557   1.046   0.696  13.941  0.3749 -0.1029  0.3057
12427W        W27558   4.998  15.153   6.245 -0.1575 -0.1065  0.2404
12428W        W27559  10.338   4.121  14.294  0.2085 -0.0127 -0.0907
12429W        W27560  12.324  13.695  11.338 -0.3047 -0.2240 -0.3438
12430W        W27561   1.825   6.122  12.140  0.0848 -0.0936  0.1539
12431W        W27562   7.478   9.885   0.808  0.0907  0.0290  0.0987
12432W        W27563  17.680   5.038   0.833  0.0214 -0.0262  0.2112
12433W        W27564   9.146  15.328   2.358 -0.0266  0.0237 -0.0671
12434W        W27565  15.052  18.127  14.453  0.1012 -0.0730  0.1204
12435W        W27566   3.088  18.491  10.062 -0.0647  0.1049  0.0161
12436W        W27567   0.170   5.745   5.818 -0.0086 -0.1029  0.1391
12437W        W27568  15.855  18.543  11.842  0.3959  0.1642  0.0149
12438W        W27569   0.154  14.984  13.296  0.2502 -0.0771  0.1261
12439W        W27570   5.338   6.309  14.736  0.2609  0.0945 -0.2911
12440W        W27571   3.360   2.667   1.265 -0.3715  0.0889 -0.1697
12441W        W27572  10.992  12.906  11.304  0.0695 -0.3953 -0.0956
12442W        W27573   0.226   0.166  13.820 -0.2879 -0.0858 -0.6309
12443W        W27574   4.968  10.143  15.462  0.3336 -0.4072 -0.0647
12444W        W27575   5.043   7.886  11.511  0.1907  0.2742 -0.1546
12445W        W27576  10.581   3.962  14.693 -0.0249  0.0248 -0.0677
12446W        W27577   5.154   8.356  11.491  0.0006  0.2196  0.0126
12447W        W27578   7.024   5.859  14.781  0.0129  0.0002 -0.0908
12448W        W27579   6.018   7.873  12.073  0.0060 -0.2132  0.1193
12449W        W27580  15.858   4.678   1.523  0.1450  0.1740  0.2687
12450W        W27581   7.368   4.441   0.322 -0.2955 -0.2547 -0.0108
12451W        W27582   3.598   7.956   2.366  0.1884 -0.3851  0.0639
12452W        W27583   5.189   8.021  12.411  0.0211 -0.1845 -0.1520
12453W        W27584  17.309   9.965   3.382 -0.1520 -0.1222  0.0496
12454W        W27585  12.790   4.123  15.358  0.0032  0.2351  0.1861
12455W        W27586  11.398  16.201   0.625  0.0711  0.0590 -0.0959
12456W        W27587   9.416   1.854   1.368 -0.3682  0.2876  0.2051
12457W        W27588   7.395  17.594  14.192 -0.0021 -0.0307  0.1005
12458W        W27589   9.044  13.930   2.461  0.2988 -0.0832 -0.0492
12459W        W27590  17.992   5.386  12.971  0.2126  0.4822  0.0381
12460W        W27591   7.407   0.326  11.514 -0.1677  0.1168 -0.3065
12461W        W27592  10.253   8.416  14.798  0.1908 -0.0056  0.1838
12462W        W27593   6.924   0.357  12.500  0.1218 -0.0741 -0.1086
12463W        W27594  13.721   7.037   2.726 -0.0733 -0.3121 -0.2305
12464W        W27595  18.660  15.843  14.254  0.0801 -0.0103  0.2641
12465W        W27596   5.583   3.781  11.356 -0.1350  0.0334  0.0441
12466W        W27597  11.730  14.221   3.562 -0.0369  0.0662 -0.1704
12467W        W27598   5.246   2.105   1.165 -0.0495 -0.0072  0.1044
12468W        W27599  13.690  12.628   5.450 -0.3466 -0.1045 -0.1170
12469W        W27600  14.749   7.422  11.007 -0.2005 -0.0101  0.0015
12470W        W27601  18.118  11.881   2.155  0.0454  0.1812 -0.2527
12471W        W27602  11.995  17.168  14.208 -0.5122  0.1898 -0.0113
12472W        W27603  14.481   8.491  10.199 -0.2728  0.1765  0.3311
12473W        W27604   9.890  16.862  13.404 -0.0553  0.0334  0.3198
12474W        W27605   2.697   8.989  11.961 -0.2500  0.0171 -0.0693
12475W        W27606   5.959  16.219   1.520  0.2915 -0.1203 -0.0729
12476W        W27607   8.516   1.085  12.519  0.1831 -0.1142 -0.2406
12477W        W27608  10.265  12.149  10.377  0.1596  0.0308  0.0763
12478W        W27609  11.719   5.614  10.578 -0.0728  0.1324  0.1416
12479W        W27610  17.117  11.580  11.821  0.2010 -0.0063  0.5739
12480W        W27611   5.340  10.083  10.202  0.1087 -0.2175 -0.0272
12481W        W27612   5.230  18.245   4.241  0.0859  0.1909 -0.0959
12482W        W27613   1.943  15.654   0.440  0.1392  0.0925  0.0371
12483W        W27614  10.982   4.437   4.940  0.0511  0.1505  0.2615
12484W        W27615   3.698  14.554   0.191  0.2561 -0.0046 -0.2023
12485W        W27616   7.019   0.188   5.403 -0.0510 -0.3004  0.0403
12486W        W27617   9.832  10.497  13.938 -0.2017 -0.2972  0.1722
12487W        W27618   8.414  14.636  12.216  0.4083 -0.1279  0.3315
12488W        W27619   4.099  12.165  15.461 -0.0055  0.0649  0.0208
12489W        W27620   1.994   4.227   1.053  0.0063 -0.1818  0.3749
12490W        W27621   2.722  16.395  14.120  0.2612  0.0928  0.3865
12491W        W27622   6.920  12.115   1.639  0.0135 -0.4965  0.0761
12492W        W27623  11.206  10.884   4.376  0.2413 -0.0324  0.0406
12493W        W27624   8.378  15.542  11.365 -0.1795  0.1060  0.0113
12494W        W27625   7.567   5.468   2.749 -0.1292  0.1256  0.2596
12495W        W27626   4.270  14.813   1.314 -0.0425 -0.1077  0.1211
12496W        W27627  17.478  17.763  10.395  0.1710 -0.0853  0.0894
12497W        W27628   6.773  14.680  13.816  0.0635  0.1149 -0.0077
12498W        W27629   0.848   4.937  12.186  0.2539  0.0665  0.0172
12499W        W27630  13.252   8.975  11.739  0.0547 -0.2833 -0.2968
12500W        W27631   3.510  15.608  15.552 -0.0573  0.0031  0.2045
12501W        W27632   8.363  12.351  14.204  0.1719 -0.1041 -0.1118
12502W        W27633  14.422   5.297   1.201  0.2170  0.3956 -0.2732
12503W        W27634  17.471   3.002   0.629  0.2258  0.1190 -0.3215
12504W        W27635   9.087  12.324  12.835 -0.0266 -0.1607 -0.1299
12505W        W27636   3.353   4.753   1.416  0.1961 -0.0724 -0.1154
12506W        W27637  16.672   1.710   4.503 -0.0264  0.1005 -0.1450
12507W        W27638  14.771  16.552  13.792  0.1769 -0.2479  0.2237
12508W        W27639  12.339  17.619  15.160  0.4111 -0.0932 -0.0018
12509W        W27640   7.925  16.055  14.388  0.2462  0.0936 -0.0211
12510W        W27641   2.794  17.196  13.710  0.1974  0.4749  0.3415
12511W        W27642  14.693   0.555  13.406  0.0265  0.1492 -0.0654
12512W        W27643   1.293   5.069  15.356  0.1643  0.1096 -0.1811
12513W        W27644   2.278  12.012   3.146 -0.0588  0.0658 -0.1259
12514W        W27645  15.854   6.037  14.973 -0.1386  0.0280 -0.0324
12515W        W27646   0.542   7.803  14.294 -0.0717 -0.2743 -0.0122
12516W        W27647  13.742   7.458   2.415 -0.2032  0.2100 -0.1869
12517W        W27648   4.590  10.903   5.017  0.0043  0.0819  0.1877
12518W        W27649   2.239   2.269  11.263 -0.1512 -0.0353  0.0295
12519W        W27650   5.954   0.036   2.185  0.0255 -0.1174 -0.1541
12520W        W27651   3.242  10.406  10.977 -0.1407 -0.0251  0.2067
12521W        W27652   8.381   6.504  13.728  0.1098 -0.2450 -0.0674
12522W        W27653   4.627  15.822  12.772  0.2169  0.2925  0.0010
12523W        W27654   7.120   2.455   2.387 -0.1172 -0.1695 -0.0260
12524W        W27655   5.018  15.760   2.282 -0.0608  0.3254 -0.0868
12525W        W27656  14.413   6.232   4.240 -0.0441  0.1913 -0.4345
12526W        W27657   9.774  13.901   1.945 -0.1257  0.0441 -0.0201
12527W        W27658  11.946   9.629   3.907 -0.0040  0.1813 -0.0143
12528W        W27659  13.256   4.573  14.093  0.1727  0.0132  0.1104
12529W        W27660  15.400   3.831  15.437  0.2931  0.0862 -0.1774
12530W        W27661   9.216   9.398   2.756  0.3636 -0.2681  0.2766
12531W        W27662  11.086  14.369   0.906  0.1274 -0.0779 -0.0553
12532W        W27663   8.827   1.294  14.795 -0.0460 -0.1815 -0.0412
12533W        W27664   8.616  10.884  13.375 -0.0353  0.0042 -0.1308
12534W        W27665   2.618  12.420   3.355 -0.1936  0.0209 -0.1773
12535W        W27666   8.449  12.017   4.071 -0.0884  0.1415  0.0456
12536W        W27667   3.118   8.144  11.046 -0.3696 -0.0953 -0.2135
12537W        W27668   6.474   2.072  11.944 -0.2465  0.0478  0.3063
12538W        W27669  15.698  12.439  14.727  0.0576 -0.3962 -0.1353
12539W        W27670  12.206  16.976   4.024 -0.0815  0.0378  0.1755
12540W        W27671  15.715  16.912  12.906 -0.1755 -0.2424 -0.0429
12541W        W27672  17.966  12.193   5.700 -0.2265  0.1687 -0.0577
12542W        W27673  10.857   8.260  13.689  0.0291 -0.0185  0.1914
12543W        W27674  12.078   6.264   0.685 -0.0110 -0.2467  0.0073
12544W        W27675   7.789  13.109   3.539  0.2551 -0.0380 -0.0249
12545W        W27676  10.611  10.440   5.740  0.2480  0.1910 -0.0044
12546W        W27677  16.340   7.152   2.223 -0.2164  0.1546 -0.0779
12547W        W27678   9.497   1.652  13.664 -0.0851  0.0019  0.1678
12548W        W27679   2.803  12.451   0.180 -0.0591  0.0839 -0.0114
12549W        W27680   8.194  16.798   3.781 -0.2462  0.3451  0.3966
12550W        W27681  17.764  18.209  13.168 -0.0179 -0.0509 -0.0355
12551W        W27682  15.352   7.006  11.950  0.2192  0.6098 -0.0475
12552W        W27683  13.611   6.123  12.877 -0.0222 -0.0585 -0.2864
12553W        W27684  14.727  16.038  14.081  0.1429 -0.0605 -0.0481
12554W        W27685  13.905   9.386   4.169  0.0910 -0.0771  0.2119
12555W        W27686  11.043   3.688   3.032  0.0311  0.1359  0.1984
12556W        W27687   7.132   4.087   3.651  0.2425 -0.0969 -0.2044
12557W        W27688   6.175   1.586  11.413  0.0831 -0.1165  0.2131
12558W        W27689  17.664   9.746  13.753  0.1259 -0.2150 -0.4092
12559W        W27690   4.619  10.715   1.654 -0.0486  0.0566 -0.1825
12560W        W27691  15.938   8.539  14.497  0.0665 -0.4955 -0.1193
12561W        W27692  13.875   9.498   9.547 -0.0168 -0.4192  0.0138
12562W        W27693   7.442   5.028  14.948  0.0387  0.1938 -0.0379
12563W        W27694  13.088  18.178  10.473  0.2970  0.2020 -0.1537
12564W        W27695  15.519  17.189   2.550 -0.0967  0.1698  0.2294
12565W        W27696   9.258   0.711   4.408 -0.0777 -0.0454  0.0411
12566W        W27697   8.734  15.110  11.020 -0.0243 -0.0711 -0.0944
12567W        W27698  17.035  11.739   4.065  0.0096 -0.0261 -0.0302
12568W        W27699  13.217  16.654  15.289 -0.3105 -0.0694 -0.1693
12569W        W27700   3.520  12.865  15.537 -0.1309 -0.0407  0.1129
12570W        W27701  15.925   4.433   9.964 -0.0632 -0.0119 -0.4120
12571W        W27702  12.818  14.723   4.874  0.0579 -0.2668 -0.0530
12572W        W27703  18.431   5.221  14.526  0.0465  0.2948 -0.0908
12573W        W27704   8.720  13.140   1.782  0.1172 -0.4329  0.0868
12574W        W27705   2.527   4.468   2.054 -0.2712  0.2555 -0.0854
12575W        W27706   3.314  16.491  11.772 -0.3506 -0.0930 -0.1905
12576W        W27707   6.086  10.737   4.044  0.2917  0.1839 -0.3234
12577W        W27708   7.209  11.731   3.901 -0.1032  0.0090  0.2136
12578W        W27709   5.328   1.456  15.061 -0.0185 -0.0674  0.0765
12579W        W27710  11.594   0.031  15.144  0.1286 -0.0763  0.0862
12580W        W27711   4.210   0.770  12.292  0.2554  0.0664 -0.0957
12581W        W27712   6.382   0.602  10.242  0.0626  0.1999  0.0917
12582W        W27713   6.924   7.244  12.899 -0.1404  0.0127 -0.2791
12583W        W27714   1.121   1.919  10.952 -0.1240  0.1337 -0.2577
12584W        W27715   2.515   5.303  14.777  0.0069  0.1219 -0.0988
12585W        W27716  10.707   1.054   1.371 -0.2033 -0.0341  0.1422
12586W        W27717  12.292   2.633   1.243  0.0519 -0.2424  0.1169
12587W        W27718  11.689   4.000   1.339  0.1907 -0.0331  0.0686
12588W        W27719  12.711   7.836  10.659  0.2490  0.2092 -0.0101
12589W        W27720   0.321  10.494   0.514 -0.2587 -0.3196  0.0790
12590W        W27721   4.708  15.576   1.349 -0.4433 -0.0189 -0.3164
12591W        W27722  17.507   2.982  13.097 -0.0924  0.0393  0.3446
12592W        W27723   6.402  12.305  11.391  0.0885  0.1664 -0.3114
12593W        W27724  10.563  11.123  13.512  0.0610 -0.0406 -0.0520
12594W        W27725  10.008   6.260   4.893 -0.0644 -0.1701 -0.2656
12595W        W27726   8.214  14.656   4.602 -0.3310 -0.3055  0.0203
12596W        W27727   5.699  11.128   1.357 -0.3050  0.1199  0.1304
12597W        W27728   2.885   4.164   3.596 -0.3385  0.1174 -0.0470
12598W        W27729   1.510   8.263  13.313 -0.1308 -0.2346 -0.2008
12599W        W27730  14.279   2.486  13.959  0.1156  0.4317 -0.0490
12600W        W27731  14.803   5.908   4.750 -0.1126 -0.1453 -0.1701
12601W        W27732   9.039   9.408  12.451  0.4538 -0.2187  0.0600
12602W        W27733  11.216   1.896   4.777 -0.1110  0.3972  0.0908
12603W        W27734  15.434  18.337  12.267  0.1197  0.2808 -0.1681
12604W        W27735   7.519  15.617   5.637 -0.3603 -0.3988 -0.0021
12605W        W27736  12.003  16.966   5.689 -0.0373  0.0784 -0.0337
12606W        W27737   5.040   0.375   3.036 -0.2695  0.1115 -0.2150
12607W        W27738  15.056  14.138   3.650  0.1538 -0.0570  0.1334
12608W        W27739   9.105   3.617   5.599  0.0979  0.1208  0.1189
12609W        W27740  15.788   0.261   0.471  0.0057 -0.3763  0.1885
12610W        W27741   0.590   8.911   4.610  0.1213  0.1158 -0.1930
12611W        W27742  12.114   4.964  15.557  0.1905 -0.2569 -0.0876
12612W        W27743   8.401   2.782   3.047 -0.2110 -0.2906  0.1404
12613W        W27744  13.280   2.543   5.805  0.0177  0.0768  0.3024
12614W        W27745   2.794  15.923   1.767  0.1599 -0.2025  0.0703
12615W        W27746  10.258   0.097   1.178 -0.1323 -0.1000  0.5779
12616W        W27747  16.633  10.427   0.960 -0.2034  0.0798 -0.2471
12617W        W27748  15.489  11.838   1.562  0.0938 -0.0468 -0.1033
12618W        W27749   1.988   1.719  14.897  0.0088 -0.0526  0.0265
12619W        W27750  10.730   8.317  10.761 -0.1868  0.1455  0.0661
12620W        W27751  13.441  13.842   1.561  0.0071  0.0580 -0.0953
12621W        W27752   6.347   6.502   3.700 -0.1844  0.1835  0.0383
12622W        W27753   2.438   9.839  15.396  0.0955  0.1653  0.1459
12623W        W27754  13.168  16.927  13.874 -0.2204  0.0732 -0.1585
12624W        W27755  13.346  14.312  15.611  0.1094 -0.2386  0.3512
12625W        W27756  11.575  14.922  13.732 -0.1337  0.2364  0.0711
12626W        W27757  15.691   1.124   0.841 -0.1621 -0.1334 -0.2155
12627W        W27758  12.283   1.666   2.259  0.0799  0.3474  0.0358
12628W        W27759  13.030  10.695   0.757  0.2167  0.2794  0.2174
12629W        W27760   1.387   5.993  11.854  0.1305  0.1299 -0.1526
12630W        W27761   4.676  14.360  12.178 -0.1005  0.1989  0.1104
12631W        W27762   3.370  14.314   4.057  0.1086  0.2296 -0.0552
12632W        W27763   3.418   7.222   2.890 -0.1015  0.6433 -0.0644
12633W        W27764  18.702   1.382  15.453 -0.1572  0.0133  0.1548
12634W        W27765  15.937   7.150   1.939  0.0171  0.0675 -0.2232
12635W        W27766  18.483   6.072   2.480 -0.0766 -0.3040 -0.0464
12636W        W27767  13.780  14.032   2.998 -0.0306 -0.1082 -0.0168
12637W        W27768   5.803   1.476  13.252  0.0805  0.0880  0.0126
12638W        W27769   3.719   1.101  15.110 -0.0078 -0.1117 -0.0288
12639W        W27770  16.603  10.960   6.040  0.1002 -0.3383 -0.1895
12640W        W27771   3.576   1.728  10.138 -0.1551  0.0331  0.0659
12641W        W27772  17.405   8.898  12.577 -0.1172 -0.2752  0.3399
12642W        W27773   4.607   7.548   2.759 -0.1749  0.1921 -0.1737
12643W        W27774   4.721   6.793   1.939  0.1526 -0.0635 -0.1140
12644W        W27775  13.355  12.066  11.969 -0.5194  0.2704 -0.2481
12645W        W27776  17.569  11.501  10.375  0.0223 -0.1627  0.0566
12646W        W27777  12.288  14.969  10.396  0.0084  0.0540  0.3112
12647W        W27778   4.950   6.724  11.247  0.4091 -0.2892 -0.2644
12648W        W27779   4.149   2.074  11.962  0.0455  0.3417  0.1584
12649W        W27780  13.970  12.284  12.238  0.2794  0.1326 -0.1195
12650W        W27781  10.674   1.522   3.991  0.0267 -0.0150 -0.1685
12651W        W27782  10.166   6.916   2.592  0.2778  0.0925 -0.1275
12652W        W27783   7.552  16.621   4.771  0.1346  0.2608  0.2062
12653W        W27784   8.036  18.155   2.463  0.3972  0.2287 -0.4915
12654W        W27785   7.058   4.393  13.186  0.1825  0.2074  0.0404
12655W        W27786  17.953   7.823   3.640 -0.2687 -0.1424  0.1333
12656W        W27787  17.198   9.169   1.184  0.1103 -0.0907  0.2128
12657W        W27788  15.181   3.068  11.341  0.0304  0.2649 -0.2111
12658W        W27789   1.684   3.173   9.719 -0.1560 -0.0871 -0.1104
12659W        W27790  10.400  12.647  11.861 -0.3509  0.2149  0.1949
12660W        W27791   9.320  13.444   0.198  0.2520 -0.2789 -0.0350
12661W        W27792   1.692  18.069   1.635 -0.0652 -0.0738  0.0911
12662W        W27793  13.926  11.569  11.465 -0.0023  0.0837  0.1981
12663W        W27794   2.710  15.247  13.693 -0.0639  0.1319 -0.1293
12664W        W27795  15.209  17.688   3.038  0.1508  0.3948  0.0574
12665W        W27796  10.999   9.269   2.230 -0.0545 -0.2189  0.0833
12666W        W27797  10.763   0.719   4.455  0.0410  0.3296 -0.2983
12667W        W27798   0.006   4.764   4.868  0.0342  0.0210 -0.0447
12668W        W27799   3.704  14.211  14.127  0.1791  0.1973 -0.1071
12669W        W27800  14.414  14.026  10.979 -0.0938  0.1397  0.3506
12670W        W27801  15.071   1.994   3.508 -0.1212 -0.3399  0.2205
12671W        W27802   7.041   6.940  11.099  0.1042 -0.1965  0.4330
12672W        W27803  15.560   2.273  13.276  0.4121  0.1889  0.0156
12673W        W27804  12.007  12.603   3.142 -0.0231 -0.3571 -0.1283
12674W        W27805   6.227   2.763  14.180  0.3151  0.0783  0.1486
12675W        W27806   5.967   3.574  11.652 -0.0219 -0.2338  0.1280
12676W        W27807  12.985  17.031   5.642 -0.1641 -0.1616  0.2260
12677W        W27808   3.694   2.225  13.989 -0.3685 -0.3772  0.0229
12678W        W27809   4.276   9.935   6.196  0.1043 -0.4224  0.0837
12679W        W27810   3.622   0.484   0.152  0.0582 -0.0643  0.2112
12680W        W27811  17.319  15.910   3.091  0.0354 -0.0977 -0.3000
12681W        W27812   8.890   3.383   3.055 -0.0515 -0.0767 -0.3804
12682W        W27813   8.496  14.116   5.226 -0.0173  0.1574 -0.0014
12683W        W27814  12.697   5.064  11.368 -0.0399  0.3852 -0.0304
12684W        W27815  15.568  10.356  10.913  0.0956 -0.2112 -0.0974
12685W        W27816   9.301   2.713  14.414 -0.1745 -0.1524  0.2254
12686W        W27817  17.016  11.825   5.593 -0.1184  0.2071 -0.0288
12687W        W27818  11.101  17.513  15.612 -0.0711  0.0670 -0.4022
12688W        W27819  13.858   4.536  11.321 -0.0928  0.3312  0.3036
12689W        W27820  13.318   6.265   3.559 -0.0735 -0.1307 -0.0377
12690W        W27821   0.914  16.533   3.318 -0.0506 -0.2979  0.2321
12691W        W27822  13.362   5.372   2.264 -0.1977  0.1870 -0.2065
12692W        W27823   2.263   4.814  15.604 -0.0746 -0.0203 -0.0949
12693W        W27824   7.699   3.888  12.793  0.3120  0.2276  0.2784
12694W        W27825   1.848   3.070   2.019  0.1064 -0.3407 -0.0646
12695W        W27826  18.537   8.727   4.052 -0.0775  0.0979  0.2710
12696W        W27827   1.081  13.284   1.640  0.0889  0.1895 -0.1434
12697W        W27828   8.423   6.248   0.494 -0.2851  0.4736  0.1461
12698W        W27829   4.877   2.928  12.981  0.0779 -0.0008 -0.0096
12699W        W27830   4.178  16.833   1.871  0.2317  0.0305  0.0235
12700W        W27831  11.191  12.862  14.709 -0.2627  0.1355 -0.2047
12701W        W27832  16.649  12.020   1.438 -0.1047  0.1536  0.3962
12702W        W27833  18.666  14.780   2.063 -0.0535 -0.1017  0.0647
12703W        W27834   6.147   9.814   3.698 -0.2239 -0.2282 -0.2691
12704W        W27835  16.659   0.468   3.622 -0.1033  0.2547  0.0110
12705W        W27836  14.295   4.152   3.118  0.1456 -0.2955 -0.2676
12706W        W27837  18.563  18.001   2.559  0.2475 -0.1371 -0.0012
12707W        W27838  14.518  14.772   0.593  0.2533  0.1020  0.0311
12708W        W27839  17.093  14.701   4.868  0.2152 -0.1373 -0.0879
12709W        W27840  18.055  13.863   1.564  0.2042 -0.1466 -0.0391
12710W        W27841  15.076   6.609   9.980 -0.2466  0.1695 -0.2393
12711W        W27842   1.329   3.046   1.275  0.2117 -0.4955  0.0828
12712W        W27843   7.031   1.072   3.571  0.1132 -0.4079 -0.1865
12713W        W27844  16.666  17.118   0.129 -0.0891 -0.0689  0.0130
12714W        W27845  11.783  17.102   3.263 -0.1210  0.1913  0.0596
12715W        W27846  11.503   8.507  12.153 -0.0339 -0.3544 -0.2932
12716W        W27847   1.551   6.521  12.057 -0.3068 -0.0111 -0.0022
12717W        W27848  15.948  14.733   1.329  0.3098 -0.0241  0.0640
12718W        W27849   8.310   8.597  12.922 -0.1724 -0.1791 -0.2362
12719W        W27850   8.332   6.566   3.171 -0.0579  0.2740  0.2414
12720W        W27851   5.088   3.694   3.972 -0.1562  0.1920 -0.0565
12721W        W27852   4.876  16.232   5.287 -0.2828 -0.0840 -0.3951
12722W        W27853   8.629   3.095  11.099  0.1146 -0.1472 -0.0565
12723W        W27854   2.652   2.793   1.921 -0.2369  0.3190  0.1934
12724W        W27855  17.322   2.442   1.540  0.0746 -0.0428 -0.4104
12725W        W27856   5.874  14.059   0.087 -0.2753  0.4811 -0.1262
12726W        W27857   4.277   7.414  15.078  0.2998  0.1449 -0.1796
12727W        W27858   5.840   0.598  13.749 -0.1233 -0.0730  0.1577
12728W        W27859   0.697  13.864  14.806 -0.0348 -0.1130  0.1887
12729W        W27860  11.115   0.313   0.342  0.0894 -0.2915 -0.1069
12730W        W27861   2.213  13.469   4.956  0.1264  0.0908 -0.1435
12731W        W27862   7.137  10.177   3.651  0.0531  0.0704  0.0752
12732W        W27863  15.110  13.679  14.382  0.1828  0.0642 -0.2395
12733W        W27864  16.087   9.029   4.936  0.2717 -0.1891  0.1851
12734W        W27865  12.774  14.109  11.999  0.1454  0.0741  0.0011
12735W        W27866  15.312   3.900   3.909  0.1551 -0.0803 -0.0144
12736W        W27867  13.424   1.958   0.069 -0.0677 -0.0843  0.0788
12737W        W27868   0.469   8.142   2.000  0.0461 -0.1988 -0.3654
12738W        W27869   4.244   9.215   4.016 -0.2616  0.2125 -0.1159
12739W        W27870   7.659  17.535   1.070  0.1590 -0.1314  0.0871
12740W        W27871   1.236  18.650  15.160 -0.3759 -0.1353  0.1495
12741W        W27872  17.125   8.411  14.581 -0.1589  0.1654  0.3941
12742W        W27873   8.920   0.416   0.807  0.0863  0.1427  0.4998
12743W        W27874   3.372   2.693   4.932 -0.2860  0.0171 -0.0273
12744W        W27875  12.916   0.350   3.323  0.0836 -0.0576  0.0337
12745W        W27876   9.036   4.281   1.280  0.1388  0.2358  0.3600
12746W        W27877   3.617   8.440   1.575  0.1945  0.1802 -0.0972
12747W        W27878   1.454   9.897   0.481 -0.0833  0.2931  0.3010
12748W        W27879  12.789  14.953   3.761 -0.1372  0.0393 -0.0313
12749W        W27880   6.799   8.179  14.510  0.0570 -0.2654 -0.0646
12750W        W27881   3.116  14.653  12.008  0.2048 -0.0428 -0.1333
12751W        W27882   0.831  15.212   2.840  0.0816 -0.3136 -0.1050
12752W        W27883  15.144   9.649   4.420 -0.0104  0.0545 -0.1531
12753W        W27884   1.927   3.582   5.518 -0.1040 -0.1479 -0.0674
12754W        W27885   8.028  14.429  10.501 -0.3193 -0.0806  0.2595
12755W        W27886  18.493  16.928   1.764 -0.1890  0.0641  0.0607
12756W        W27887  15.589   8.345   4.502 -0.1089 -0.2130  0.0105
12757W        W27888  12.366   1.448  12.405  0.2385  0.1025 -0.2455
12758W        W27889  13.695  16.739   1.088  0.1196 -0.0059  0.2470
12759W        W27890   4.426   0.004   3.242 -0.1871  0.1079 -0.3107
12760W        W27891  18.271  13.214   3.363  0.0109  0.2970  0.1435
12761W        W27892  10.116   2.030   2.801  0.0965 -0.2765 -0.0394
12762W        W27893   7.913  12.079   5.052  0.4974 -0.0124 -0.0017
12763W        W27894   2.281  13.077   1.789  0.1818 -0.2296 -0.1341
12764W        W27895  11.577  17.263   5.051  0.3060 -0.3067  0.4033
12765W        W27896   8.712  11.579   0.389 -0.0737  0.0089 -0.3552
12766W        W27897   7.784   4.185  15.801 -0.0945 -0.0644 -0.2539
12767W        W27898  14.933   3.182  14.183  0.1317 -0.0552  0.5188
12768W        W27899  17.430   9.939  15.004  0.0713  0.1877 -0.1093
12769W        W27900   7.884   5.918   1.991  0.2107  0.1050  0.3598
12770W        W27901   7.859   7.386   0.950 -0.1040 -0.4736  0.0608
12771W        W27902   5.665   4.327   2.605  0.1498  0.0034 -0.2001
12772W        W27903   1.113  13.824  12.696 -0.1000  0.1087  0.2910
12773W        W27904  10.581   3.868  12.513  0.0379 -0.0308  0.1972
12774W        W27905  12.749  14.416  10.614 -0.0915  0.1588 -0.0260
12775W        W27906  18.124   4.546   0.014  0.0962  0.0467 -0.0195
12776W        W27907   3.918  10.146   5.420 -0.0341 -0.1253 -0.0399
12777W        W27908   0.554   8.253  12.918 -0.3775  0.0997 -0.2334
12778W        W27909   7.574  11.023   2.383 -0.2549  0.1142  0.3257
12779W        W27910  13.132   6.081   4.417  0.0415  0.1489 -0.1587
12780W        W27911   9.258  10.187  10.697  0.0509  0.2142 -0.1424
12781W        W27912  14.338  15.029   2.053  0.1511 -0.0862 -0.2483
12782W        W27913  10.365   5.975   4.682  0.0186 -0.2138  0.1898
12783W        W27914  12.143  15.893   3.069  0.1137 -0.1039 -0.2555
12784W        W27915  15.611   1.398   2.996  0.3032 -0.1553  0.1671
12785W        W27916  17.334  12.483  11.160  0.2179  0.1828  0.1272
12786W        W27917  15.971   3.668   0.614  0.1776 -0.3138 -0.2205
12787W        W27918  12.923  15.654  12.270  0.1669  0.1510  0.1793
12788W        W27919   9.142  17.411  13.239  0.0277  0.1840 -0.0213
12789W        W27920   3.979   2.618  15.740  0.1561  0.1581  0.0704
12790W        W27921   3.874   8.116  12.763 -0.1581  0.0984 -0.0197
12791W        W27922   4.055  16.617   3.345 -0.0239  0.1710  0.0299
12792W        W27923   5.827   8.440   4.917 -0.2473 -0.2051 -0.1136
12793W        W27924   3.181  13.576  11.312 -0.1214 -0.0244  0.2002
12794W        W27925  10.969  15.203  10.400 -0.0131 -0.1322 -0.0818
12795W        W27926   6.903  10.455  12.685 -0.1691  0.2124  0.1594
12796W        W27927  14.436  18.617  10.293 -0.2859 -0.0501 -0.0544
12797W        W27928  13.473  15.228  12.689 -0.4220 -0.2386 -0.2285
12798W        W27929  16.768   9.636  12.458 -0.0033 -0.4414  0.2897
12799W        W27930  12.321  10.219  13.430 -0.0936 -0.2547  0.2171
12800W        W27931   7.395   3.006  13.810 -0.1058  0.4874  0.0030
12801W        W27932   9.352  12.081  12.376 -0.1891 -0.3305  0.0708
12802W        W27933  17.166  10.761  10.522  0.1981 -0.0862 -0.1915
12803W        W27934  17.298  17.541   0.520  0.0372  0.0748  0.1854
12804W        W27935  12.549  15.882   3.508  0.2621  0.1088  0.0681
12805W        W27936   1.547   6.988   3.256  0.0047 -0.0412 -0.3079
12806W        W27937   7.276  11.651  10.696 -0.0168 -0.0038 -0.1659
12807W        W27938  11.100  13.665  12.544  0.0458 -0.0372  0.1538
12808W        W27939   7.593  10.312  14.919  0.2586  0.1940  0.1335
12809W        W27940   3.426  15.807   3.011  0.1555 -0.1782 -0.1494
12810W        W27941   6.053   9.321  11.297 -0.0159 -0.2223 -0.0758
12811W        W27942   4.774   1.470   4.847  0.1538 -0.0313 -0.2414
12812W        W27943  16.679   4.284   1.187  0.2743 -0.2924 -0.1444
12813W        W27944  12.132  16.989  11.510  0.3067  0.5667 -0.1419
12814W        W27945   9.661  17.588  14.421  0.3179 -0.2350  0.0805
12815W        W27946   2.510  15.729  13.696  0.0462  0.1524 -0.1215
12816W        W27947   0.214  13.957  12.424  0.6024 -0.3494 -0.0296
12817W        W27948   8.699  14.670   2.208  0.0115  0.1647 -0.2322
12818W        W27949  17.533  11.658  11.167  0.1387 -0.1341  0.1155
12819W        W27950  16.612  14.181   1.738 -0.0551  0.2082  0.0595
12820W        W27951   6.499  18.018   3.035 -0.1073 -0.0716 -0.1054
12821W        W27952   3.224  13.191   9.954 -0.0658  0.0536 -0.3469
12822W        W27953   8.317  11.043  14.761  0.0915 -0.4126 -0.0153
12823W        W27954  14.986   3.454  11.701  0.0974 -0.1767 -0.1436
12824W        W27955  15.485   9.765  12.621 -0.0326 -0.0671  0.0595
12825W        W27956   4.806  16.583   3.701  0.0693  0.0695  0.0415
12826W        W27957  15.319   8.359  11.581 -0.3325  0.0502 -0.1691
12827W        W27958  12.505   8.552   0.141  0.0346 -0.2481 -0.2735
12828W        W27959  15.145   5.240   5.396  0.0391 -0.1954  0.0524
12829W        W27960  15.929  14.837  12.148 -0.1026  0.0242 -0.2962
12830W        W27961  18.490   0.853   9.789  0.2289 -0.1391  0.3216
12831W        W27962  13.333  15.725  12.751 -0.3175  0.1430 -0.1945
12832W        W27963   0.628  17.924   0.257  0.1408 -0.0647 -0.2818
12833W        W27964  17.258  14.779   0.513 -0.0648 -0.1734  0.0209
12834W        W27965   1.784   6.356  10.989 -0.0529  0.1402  0.1107
12835W        W27966   1.176   7.074  12.131 -0.5561  0.1476  0.0424
12836W        W27967  13.001  14.582  15.418  0.0896 -0.0610  0.2017
12837W        W27968   4.579   0.337  10.626  0.1227 -0.0974 -0.1070
12838W        W27969   6.504   0.720  14.918 -0.0801  0.1421  0.0249
12839W        W27970   9.587  15.615  11.229  0.0568 -0.1226 -0.0055
12840W        W27971  12.554   8.604   3.134 -0.0423  0.0278  0.1965
12841W        W27972  12.111  18.079  15.087  0.1838 -0.1108 -0.5750
12842W        W27973   5.181   3.667   5.420  0.1639  0.3059 -0.0522
12843W        W27974  10.130  16.406  12.418 -0.1789  0.0889  0.0878
12844W        W27975  11.065  15.837  13.634  0.2355 -0.1519 -0.1173
12845W        W27976   7.881   7.784   0.006 -0.0627 -0.1679 -0.1790
12846W        W27977  14.895   9.431   2.221 -0.2093 -0.2942  0.0448
12847W        W27978   2.363   3.998   0.848 -0.0134 -0.1967  0.0118
12848W        W27979   2.448   7.382  13.937  0.0710 -0.1007  0.1487
12849W        W27980  15.649   2.286   0.030 -0.2173  0.2774  0.1246
12850W        W27981   6.025   7.104   0.146  0.2375 -0.1055 -0.0271
12851W        W27982   6.350   3.793   5.162 -0.0512  0.2112  0.1692
12852W        W27983  16.791  18.537  15.211 -0.3568 -0.1053 -0.0927
12853W        W27984   6.310   3.331  11.946  0.3810 -0.1368 -0.1296
12854W        W27985   8.169  16.186  14.881 -0.0942  0.0988  0.0654
12855W        W27986  14.175   0.172  11.132  0.2475 -0.3113 -0.0634
12856W        W27987  10.254   8.979   3.435  0.1493  0.2198  0.0779
12857W        W27988   7.704   1.575  13.353  0.0322  0.1083  0.0767
12858W        W27989   3.606   9.139  13.701 -0.0265 -0.1146 -0.0323
12859W        W27990   2.489   5.450   5.119 -0.0149  0.0725 -0.2009
12860W        W27991   4.925  14.584  13.937  0.1459  0.2582 -0.1071
12861W        W27992   3.720  15.579   1.995  0.2360  0.2935 -0.3194
12862W        W27993  15.400   6.160   1.719  0.1440 -0.2834 -0.1234
12863W        W27994  17.933  12.468   4.981 -0.2924 -0.0891  0.2874
12864W        W27995  12.771  12.530   4.621 -0.2193  0.1157 -0.0764
12865W        W27996  18.102   2.225  12.894  0.0038 -0.0295 -0.0054
12866W        W27997  12.649   8.385   4.779 -0.0758 -0.3946  0.0392
12867W        W27998   3.213   0.560  11.369  0.1492  0.1084 -0.0930
12868W        W27999   7.230   6.076  12.968 -0.1157 -0.0397 -0.0645
12869W        W28000   3.660   1.836  11.781  0.0922 -0.2417  0.0337
12870W        W28001   0.687   6.363  13.992 -0.3138  0.0653  0.2250
12871W        W28002  12.282   8.157  15.527  0.1417 -0.0322  0.3994
12872W        W28003  14.271  11.776  14.601 -0.1083 -0.0663 -0.1393
12873W        W28004  15.381  13.181   0.987 -0.1565  0.2277  0.1306
12874W        W28005   0.650   6.260  14.704 -0.0358  0.2092  0.3485
12875W        W28006   4.037  11.084  13.224 -0.1532  0.4327  0.2578
12876W        W28007   3.342   5.035  15.358 -0.0931  0.1184 -0.0599
12877W        W28008  14.161  10.690   0.604 -0.2022  0.1581 -0.0025
12878W        W28009  16.344   1.446  12.432 -0.0453  0.0554  0.2392
12879W        W28010  15.911  13.253   2.166 -0.0905  0.0198  0.1090
12880W        W28011  14.529  17.728   3.880 -0.1641 -0.1460 -0.1024
12881W        W28012  10.114   5.361  14.795 -0.2113  0.1683  0.2713
12882W        W28013  14.494  12.537  15.389 -0.1272 -0.1693 -0.1823
12883W        W28014   4.827  11.255  10.830 -0.1238 -0.1036 -0.2515
12884W        W28015   1.616  18.514   0.174  0.0987  0.0495  0.1935
12885W        W28016   6.139   8.166  13.449 -0.2902 -0.1227  0.2131
12886W        W28017  15.858  18.622  12.458  0.1169  0.0896  0.2948
12887W        W28018   9.024   6.012  14.888 -0.2527  0.1724 -0.0036
12888W        W28019  15.108   7.580  13.232 -0.0646  0.0027 -0.3212
12889W        W28020   3.409  15.105   1.738 -0.0857  0.0256 -0.0104
12890W        W28021  15.596   0.209  11.062 -0.3320  0.0292 -0.1754
12891W        W28022   2.947   5.269   5.001  0.1695 -0.1683 -0.2060
12892W        W28023   9.413  18.460   1.484 -0.3011  0.2596  0.3673
12893W        W28024   9.365   7.022   0.847  0.2293  0.1956  0.2236
12894W        W28025  11.369   6.964   4.892 -0.4774 -0.0888 -0.0021
12895W        W28026   2.545   3.720  10.390  0.0697  0.2319 -0.1317
12896W        W28027   1.768   0.088  15.112 -0.1854  0.0518 -0.0950
12897W        W28028  10.583  17.146   2.458  0.1594 -0.0699  0.2840
12898W        W28029  15.072   8.243   0.005 -0.0177  0.6003 -0.1947
12899W        W28030   4.849  18.658   2.364 -0.0885  0.2441  0.2351
12900W        W28031   9.862   7.153  13.973 -0.0703  0.3428  0.0749
12901W        W28032   7.117  11.356   1.081 -0.0504 -0.0160 -0.2133
12902W        W28033   3.873   3.771   4.518  0.1244 -0.0933  0.0588
12903W        W28034   6.936  14.340  11.501 -0.3010 -0.0399  0.2741
12904W        W28035   0.431  16.216   2.217  0.2717  0.2280 -0.1605
12905W        W28036   2.111  17.791   2.949  0.0276 -0.2144  0.2459
12906W        W28037   4.833  16.147   0.299  0.0306 -0.1114 -0.1825
12907W        W28038   0.062  10.205  11.590 -0.0686 -0.0865  0.0248
12908W        W28039  12.750   7.187   3.221 -0.0098 -0.3873 -0.0325
12909W        W28040   5.475   0.186   5.910 -0.1871  0.1062  0.2360
12910W        W28041  16.201  14.668  13.918  0.1785  0.2682  0.0691
12911W        W28042   9.151   7.745   5.331  0.0167  0.2066 -0.2073
12912W        W28043  12.691   8.722   5.503  0.1320 -0.3542  0.0733
12913W        W28044   0.927   3.243   2.144  0.0085  0.0455 -0.0471
12914W        W28045  15.393   8.027   0.355  0.0410  0.0456  0.1422
12915W        W28046   2.767  13.492  13.373  0.2091  0.2530 -0.2126
12916W        W28047  17.351   9.746   1.767 -0.2111 -0.2231  0.1230
12917W        W28048   8.103   0.550   0.697 -0.2234 -0.0232 -0.2389
12918W        W28049  14.118   0.304   2.802  0.1717 -0.0765 -0.1402
12919W        W28050   3.424   3.640  13.582  0.1061  0.1207  0.0066
12920W        W28051  16.137   2.636   5.410  0.0506 -0.1305 -0.4200
12921W        W28052  16.876   7.035  11.241  0.1500 -0.1580 -0.2486
12922W        W28053  15.286   8.082  11.120  0.0707  0.2174  0.0395
12923W        W28054   8.056  16.304   3.835  0.1747  0.1390 -0.1076
12924W        W28055  10.805   7.033   0.659 -0.3123  0.1927  0.2726
12925W        W28056   0.950   9.779  15.774 -0.0983 -0.0365 -0.0634
12926W        W28057  18.040  14.828   3.778  0.5957 -0.1143 -0.2653
12927W        W28058  11.143  16.198  13.965  0.2103 -0.2687  0.0523
12928W        W28059   2.516   4.413   4.692 -0.3284  0.1141 -0.2542
12929W        W28060   9.862  12.560  14.291  0.2746 -0.2297  0.0323
12930W        W28061  10.187  14.150  15.200 -0.3118  0.0101 -0.1432
12931W        W28062   0.714   2.722   3.615  0.0323 -0.1033  0.1343
12932W        W28063  11.913  12.383   1.063 -0.0899 -0.0344 -0.0172
12933W        W28064   9.761  16.665   0.992  0.0341  0.1876 -0.1643
12934W        W28065   1.674  17.971   2.147 -0.1254 -0.0391  0.1016
12935W        W28066   0.833  12.483   2.623 -0.0469 -0.2495 -0.2494
12936W        W28067   9.330   5.465  13.074  0.0801  0.1663  0.0610
12937W        W28068   5.682  13.791   3.384 -0.0085 -0.2092 -0.1458
12938W        W28069   0.601  14.098   1.651  0.4160 -0.0852  0.0173
12939W        W28070   4.841  17.554   5.383 -0.1139 -0.0300  0.1771
12940W        W28071  17.204  11.320   5.512 -0.2365 -0.1136 -0.1879
12941W        W28072   3.967   5.726   4.102 -0.1975 -0.0020  0.1391
12942W        W28073  12.398   0.949  13.042  0.2328 -0.1810 -0.1070
12943W        W28074  15.214   0.539   4.291  0.0753 -0.1220 -0.2659
12944W        W28075  17.321   4.827   0.124  0.4273  0.3549 -0.2564
12945W        W28076   0.202  10.759   3.626 -0.1896  0.0386 -0.1276
12946W        W28077   4.378   9.098   2.177  0.1985 -0.0892 -0.2812
12947W        W28078   1.122  18.311   3.753  0.2197  0.0068  0.0320
12948W        W28079  12.037  17.462   0.755 -0.1915  0.0374  0.2828
12949W        W28080   3.079  12.437   4.322 -0.1794 -0.1518  0.3748
12950W        W28081  15.642   7.142   1.344  0.2634  0.4983 -0.0993
12951W        W28082   0.197   7.355  12.507  0.1179  0.1299 -0.0192
12952W        W28083   1.496  18.460   1.405 -0.1374 -0.1351 -0.0429
12953W        W28084   7.174   2.939   1.320  0.1275  0.0793  0.1830
12954W        W28085   0.943   3.234  11.493 -0.0073  0.0839 -0.0555
12955W        W28086  10.189   7.432   0.489  0.3263 -0.3290  0.1848
12956W        W28087   8.902  17.908  13.423 -0.0420  0.0193 -0.1955
12957W        W28088  16.632  15.831  11.710  0.2653  0.0976 -0.0720
12958W        W28089   1.471  17.965   2.857  0.1406  0.2645 -0.0180
12959W        W28090  11.059   2.691  14.712  0.1671  0.1095  0.0747
12960W        W28091   0.398   1.869  13.988 -0.3735  0.1820  0.1573
12961W        W28092   5.189  13.837   3.427 -0.1036  0.2217 -0.1487
12962W        W28093   8.671  17.963   1.716 -0.1214  0.1077  0.1270
12963W        W28094  15.218  18.454   3.854  0.1155 -0.0159  0.0459
12964W        W28095   9.716   3.891   0.436 -0.0456  0.0297 -0.3434
12965W        W28096  12.959   9.008  11.314 -0.0906 -0.1579 -0.2202
12966W        W28097  15.811   4.937   0.856 -0.1760  0.0980  0.1649
12967W        W28098  10.532  11.999  14.350 -0.0266 -0.1306 -0.0594
12968W        W28099   6.307   1.921   5.588  0.0731 -0.2324 -0.3411
12969W        W28100  14.198   2.009   1.096  0.2909 -0.3678  0.0999
12970W        W28101  16.772   9.732  13.607  0.3697  0.0292  0.2392
12971W        W28102  13.182  13.081  15.546 -0.1915 -0.1374  0.2935
12972W        W28103   7.438   6.667   9.942 -0.0196 -0.0556 -0.0349
12973W        W28104   4.685  15.138  12.575  0.1395 -0.1486 -0.0327
12974W        W28105   3.419   4.041   4.615  0.2481  0.1908  0.1124
12975W        W28106   2.513  10.722  11.205 -0.0912 -0.1496  0.1453
12976W        W28107   3.172  15.766   1.366 -0.0499 -0.1380 -0.0516
12977W        W28108   7.866   5.229   5.212  0.2579 -0.4764 -0.0422
12978W        W28109  13.937   1.899   4.952 -0.1463  0.1184  0.2275
12979W        W28110   8.227   9.288  14.287 -0.0627 -0.1176  0.1589
12980W        W28111  10.439  16.485  10.867 -0.0960  0.0468  0.0000
12981W        W28112   9.655   4.477   4.625  0.2010 -0.1047  0.0570
12982W        W28113   3.799   7.347   3.156 -0.0958  0.0807 -0.1675
12983W        W28114   3.435  14.470  11.701  0.1475 -0.1873  0.0085
12984W        W28115  10.799   5.387  10.495  0.2040 -0.1825  0.1605
12985W        W28116   9.219   8.194  13.866  0.1340  0.1851 -0.1439
12986W        W28117   2.712   1.436  14.305  0.1428  0.0549  0.0809
12987W        W28118  11.335   4.389  12.450 -0.0535  0.0109 -0.4218
12988W        W28119  10.242   9.743  14.162 -0.1538  0.1469 -0.1110
12989W        W28120  14.978   3.727   4.840  0.0896 -0.0130 -0.0608
12990W        W28121   3.234   6.394   3.987  0.0817 -0.2762  0.0159
12991W        W28122  16.491   4.998   4.573 -0.0409  0.1006  0.2148
12992W        W28123  16.539  18.500  15.734 -0.0364 -0.2045  0.2107
12993W        W28124   1.734   4.861  11.794 -0.1038  0.2331 -0.1184
12994W        W28125   5.919   0.936   6.481 -0.0843  0.0564 -0.1904
12995W        W28126   3.403   8.015  14.717  0.0978  0.4141  0.0814
12996W        W28127   8.750   1.768   3.628 -0.0848 -0.0562  0.1632
12997W        W28128  12.814   2.793  15.788 -0.0018  0.0912 -0.1289
12998W        W28129  14.295   3.943   5.979 -0.0545 -0.5443  0.1512
12999W        W28130  10.865   4.541   0.453  0.1199 -0.5406 -0.0686
13000W        W28131   7.256  11.127  13.354 -0.1804  0.1087 -0.2011
13001W        W28132  16.771  14.039   5.342  0.2440  0.1169 -0.0199
13002W        W28133  10.398   8.264  15.698  0.2011  0.0653  0.3972
13003W        W28134   5.185  17.319  13.390 -0.0445  0.0272 -0.1023
13004W        W28135   8.156   3.869   6.037 -0.0855 -0.0309  0.0018
13005W        W28136  15.722  13.642   1.948 -0.0078 -0.0235 -0.1460
13006W        W28137  18.720   1.682   1.075 -0.0313  0.2383 -0.1699
13007W        W28138  14.826  14.281  15.706 -0.0136 -0.0467  0.1296
13008W        W28139   6.871  11.487   4.255  0.1421  0.0324  0.0643
13009W        W28140  15.169   1.595  13.202  0.3594 -0.0077 -0.0689
13010W        W28141   1.978   5.384  14.224  0.0312  0.1372  0.2044
13011W        W28142  13.179   4.766   4.722  0.0085 -0.1321  0.3025
13012W        W28143   5.263  18.641  15.749 -0.2478  0.2906  0.4217
13013W        W28144   5.761  11.196   2.673 -0.1671  0.0139  0.0298
13014W        W28145  14.362   3.186   1.345  0.1417 -0.1468  0.1005
13015W        W28146   5.966  14.947   0.865  0.1244  0.0369 -0.2237
13016W        W28147   8.184   9.882  12.338  0.0239 -0.4188 -0.2994
13017W        W28148  13.800   0.404  13.020 -0.2891 -0.2838  0.1005
13018W        W28149   1.084  12.833   5.918  0.3081 -0.1947  0.1065
13019W        W28150  18.308  18.207  10.701  0.1395 -0.0902 -0.2303
13020W        W28151  17.225  17.810  15.281 -0.0620  0.0221 -0.2291
13021W        W28152   9.565  10.725   4.918 -0.1667  0.0245  0.0976
13022W        W28153   2.065   8.269   0.039 -0.0133  0.1763  0.1052
13023W        W28154  16.526   5.667  14.635 -0.2726  0.1041 -0.0533
13024W        W28155  11.255  18.686   4.283  0.0572 -0.0931 -0.0111
13025W        W28156  14.151  17.938  11.559  0.1513 -0.0344 -0.1349
13026W        W28157   0.005   1.819   3.026  0.0621 -0.1808 -0.1964
13027W        W28158   3.739   7.033   4.738  0.5189  0.0775 -0.0511
13028W        W28159   2.631   9.861  13.638  0.1641 -0.1117  0.0052
13029W        W28160   5.723  14.876   4.073  0.1449 -0.3042 -0.0848
13030W        W28161   8.750  13.635  13.353 -0.0525 -0.4747  0.0485
13031W        W28162  14.095   5.927   1.242 -0.1716 -0.0992  0.0782
13032W        W28163  13.351   5.995  10.993  0.0177 -0.1733  0.0082
13033W        W28164  11.096   9.196   4.084  0.2081  0.1114  0.2500
13034W        W28165   0.441  16.628   1.440 -0.0091 -0.0414 -0.0515
13035W        W28166   8.260  18.094   5.227  0.1920 -0.0756  0.1088
13036W        W28167  16.498  18.071   0.324  0.4204  0.0717  0.3126
13037W        W28168  16.934   3.192   0.615 -0.1884 -0.1738  0.0067
13038W        W28169   4.166  15.789   2.213 -0.3401  0.1425 -0.3367
13039W        W28170   1.893  15.835   3.433 -0.3027 -0.3023 -0.2184
13040W        W28171   8.416   3.356   2.333 -0.1134 -0.3679  0.0938
13041W        W28172  14.947   3.977   5.353 -0.1666 -0.0106  0.4859
13042W        W28173   5.881  12.449  11.800  0.3664  0.3748  0.3546
13043W        W28174  15.014   7.591   4.604  0.0984  0.5461  0.3132
13044W        W28175  14.047   4.023   1.604 -0.3799  0.0164  0.2485
13045W        W28176   2.795   0.157  11.992  0.3484  0.0091  0.0211
13046W        W28177  12.975   7.039  11.768 -0.1731  0.1285  0.2463
13047W        W28178  16.957  11.077   2.637  0.4027  0.0813 -0.2148
13048W        W28179  15.438   7.773  12.852  0.3310  0.1832  0.0535
13049W        W28180   4.575   5.496   5.630  0.1347 -0.2479 -0.0261
13050W        W28181  17.587   2.029   0.495 -0.0862  0.1914 -0.0125
13051W        W28182  12.580   7.768  15.375  0.0896  0.1748 -0.0091
13052W        W28183   8.639  11.797  10.658 -0.1923  0.0505  0.1957
13053W        W28184   8.331  17.816   4.789 -0.1888 -0.0082  0.0866
13054W        W28185  10.648   6.655  10.781  0.0419  0.0829 -0.0059
13055W        W28186   2.957   4.050   2.114  0.2053  0.0432  0.0139
13056W        W28187   1.878   1.747   3.311  0.1799 -0.0756  0.0202
13057W        W28188  16.629   0.364   1.339 -0.1570  0.1257 -0.1430
13058W        W28189   3.234   2.334  11.215  0.1564 -0.0412  0.0317
13059W        W28190   0.442   0.650  15.104  0.0435 -0.0293  0.0505
13060W        W28191   3.353  16.673   0.998 -0.0321  0.0357  0.0378
13061W        W28192  14.975   7.916  14.792 -0.2195  0.0930 -0.1591
13062W        W28193  15.351  18.488  11.649  0.0685 -0.3556  0.0721
13063W        W28194  16.721  16.792   3.286 -0.1324 -0.2031 -0.1993
13064W        W28195   5.141   6.653  12.802  0.1200  0.1639  0.1402
13065W        W28196   4.260   1.944  12.539  0.2055 -0.1148 -0.1583
13066W        W28197   4.517  10.853  11.112  0.1332 -0.1607  0.2941
13067W        W28198   6.809   2.131   0.205  0.1448 -0.0690 -0.1833
13068W        W28199  10.237   8.473  13.473 -0.2322 -0.4294  0.0258
13069W        W28200  16.464   8.703   4.256 -0.1558  0.0677 -0.4133
13070W        W28201  10.462   9.291  12.472  0.0790 -0.0342 -0.0397
13071W        W28202  12.230   9.796  13.639 -0.0026 -0.0256  0.0235
13072W        W28203   0.255  11.025  11.735  0.0284  0.0236  0.1432
13073W        W28204  15.802  16.818  11.516 -0.2952 -0.0312 -0.1610
13074W        W28205   4.989   6.751   2.409 -0.0327  0.1921 -0.1375
13075W        W28206  12.199   6.562  12.293  0.0214  0.3250  0.1133
13076W        W28207   8.160  16.893  11.134  0.2541 -0.2133 -0.1897
13077W        W28208   1.676  16.790  14.751 -0.2118 -0.2803 -0.0638
13078W        W28209   7.520   5.701  14.881 -0.0913 -0.0473  0.1838
13079W        W28210  15.388   3.987   4.952  0.0617  0.3449 -0.1840
13080W        W28211   4.885  10.568  13.358 -0.0272 -0.4226 -0.0198
13081W        W28212   8.455   3.825  12.974 -0.0106  0.1146  0.0872
13082W        W28213   2.836  14.381  13.226  0.2715  0.3100  0.2217
13083W        W28214   3.863   0.612  15.158  0.0858  0.3298 -0.1019
13084W        W28215  14.472   2.424  13.451  0.2709 -0.6516 -0.0263
13085W        W28216   0.742  15.115  15.393 -0.2814 -0.0141 -0.0651
13086W        W28217   0.306  18.505   3.297 -0.2425 -0.1289 -0.0560
13087W        W28218   5.434   9.652   4.412  0.0181  0.0575  0.0916
13088W        W28219   0.284  14.264   2.605  0.2061  0.2996 -0.0059
13089W        W28220  12.305  15.971  14.494  0.0960 -0.2752  0.1350
13090W        W28221   9.616  17.939  15.620  0.2069  0.1800 -0.1134
13091W        W28222  11.310  15.132  11.922  0.3675 -0.2125  0.1072
13092W        W28223  13.842   8.978   0.865 -0.0665  0.0651  0.1071
13093W        W28224   4.783  17.579   4.359  0.0869  0.3145  0.1548
13094W        W28225   9.271  15.083   4.081  0.6126  0.0699  0.1855
13095W        W28226   1.960  10.273   0.617 -0.1119 -0.1081  0.0610
13096W        W28227   7.624   2.551   4.300 -0.3663 -0.4627 -0.1184
13097W        W28228   5.693   4.961  11.082  0.0184  0.0112  0.1016
13098W        W28229   0.428   1.584   2.830  0.1525  0.1193 -0.0185
13099W        W28230   8.022  13.521   5.196  0.1537  0.3111 -0.0010
13100W        W28231   3.358   7.703   0.897 -0.0227  0.2933 -0.2406
13101W        W28232  18.366   9.747   1.528  0.0060 -0.4030  0.5131
13102W        W28233  17.283   7.339   0.655  0.0721 -0.1710  0.1382
13103W        W28234  17.335   9.687  12.416  0.0443 -0.1036 -0.0116
13104W        W28235  16.222  12.802   1.617 -0.1808  0.3043 -0.0564
13105W        W28236  11.393   6.262  14.060 -0.2063  0.2631 -0.0965
13106W        W28237  12.051   3.822  14.596  0.1462 -0.3777 -0.4784
13107W        W28238  15.508  18.185  12.894 -0.2556 -0.0379  0.0532
13108W        W28239  11.268  15.777   5.184  0.0436 -0.2602 -0.4642
13109W        W28240   4.993  17.398  11.140 -0.2011 -0.0525 -0.1347
13110W        W28241  17.583  16.506  12.337  0.1921  0.2038  0.1052
13111W        W28242  10.873   6.754   1.488 -0.2565  0.3617 -0.2115
13112W        W28243   3.732  15.043  15.609  0.3012  0.2859  0.4219
13113W        W28244   5.404  11.735  10.717 -0.0977 -0.1039 -0.1183
13114W        W28245  16.730   9.971   2.371 -0.0415  0.0365  0.1553
13115W        W28246  18.367   4.450  12.453 -0.0314 -0.0656  0.1826
13116W        W28247  11.443   3.958   2.994 -0.1207 -0.3192 -0.1407
13117W        W28248   5.216   7.382  12.401 -0.0770  0.1545  0.1381
13118W        W28249   4.940   6.012  14.523  0.1451  0.2116 -0.1369
13119W        W28250   0.234   3.226  11.415  0.0847 -0.2239 -0.3748
13120W        W28251   0.786   1.176  12.015 -0.0021  0.1204 -0.1071
13121W        W28252   4.997   9.277  11.564  0.2827  0.3306  0.0747
13122W        W28253  14.010  16.558  11.682 -0.1449 -0.2723 -0.2771
13123W        W28254  13.109   2.338  13.236 -0.1880 -0.1841 -0.1737
13124W        W28255   3.758  10.887  15.195 -0.2872  0.2223 -0.0940
13125W        W28256   1.894  13.601  13.973  0.1334 -0.0613  0.1333
13126W        W28257   7.050   2.961  15.175  0.2767  0.5089  0.0507
13127W        W28258  17.766   4.436   2.968 -0.0191  0.0346 -0.0369
13128W        W28259  16.267   9.525   0.037 -0.3056  0.0409  0.1104
13129W        W28260  13.481   1.726   5.072 -0.2416  0.2566  0.5935
13130W        W28261  12.497  15.607   2.266  0.0099 -0.2603  0.0224
13131W        W28262  15.236   1.518   5.974 -0.0771  0.1038  0.0463
13132W        W28263   2.164   6.903   6.000  0.1915  0.0382 -0.3280
13133W        W28264  18.173  12.718   1.782 -0.2029  0.0856  0.3196
13134W        W28265  16.342   5.526  11.530 -0.0160 -0.2041  0.2297
13135W        W28266  18.575  11.301  12.953  0.4379  0.0092 -0.2556
13136W        W28267   4.990   2.798   3.601  0.0283 -0.0989  0.1550
13137W        W28268  10.727  12.739   5.175 -0.2054 -0.1777  0.0651
13138W        W28269  16.875   4.077   9.611  0.4913  0.0441  0.0357
13139W        W28270   5.193  11.292  11.672 -0.1509  0.1016 -0.0808
13140W        W28271   2.032   1.500  15.379 -0.0978  0.0124  0.0962
13141W        W28272   5.816  17.688   1.591  0.1832 -0.1601 -0.0140
13142W        W28273  13.258   5.061  14.275  0.1357 -0.3312 -0.1617
13143W        W28274   8.338   6.464   5.698  0.0723  0.1893  0.2617
13144W        W28275   3.107   6.237  14.938  0.3390  0.2856  0.0773
13145W        W28276  10.914  11.376  11.863 -0.2214  0.0356 -0.2180
13146W        W28277   1.733  14.207  10.205  0.0637  0.1070 -0.1299
13147W        W28278  10.079  17.382   0.378 -0.0514 -0.2786  0.0055
13148W        W28279  17.245   3.594  12.563  0.1555  0.1355 -0.2862
13149W        W28280  16.988   3.366   2.345 -0.0971 -0.5314 -0.2565
13150W        W28281   3.668  10.342   5.038  0.2548 -0.0792  0.3757
13151W        W28282  10.092   6.418   3.505  0.1234 -0.0409  0.1043
13152W        W28283  10.358  13.177  11.969 -0.0938 -0.0698  0.0613
13153W        W28284   9.310   6.530   3.922  0.0301 -0.0236 -0.0687
13154W        W28285  15.970  11.210   2.755  0.2013  0.1810 -0.0747
13155W        W28286  12.631   2.418  10.426  0.2690 -0.3056 -0.1540
13156W        W28287  12.488  18.393  12.864  0.2740  0.1720  0.1194
13157W        W28288  17.682  10.162   5.582 -0.1601 -0.0082  0.0940
13158W        W28289  16.357  13.484  14.325 -0.0983  0.0492 -0.4521
13159W        W28290   6.416  14.291  11.642  0.0632  0.0746  0.1179
13160W        W28291  18.588   3.137  15.282  0.3409  0.4366  0.2177
13161W        W28292   2.211   4.803  14.258  0.0584  0.1804 -0.2926
13162W        W28293   9.647  15.976  12.256 -0.3682 -0.1599 -0.1108
13163W        W28294   9.536  17.418  15.690 -0.2811 -0.0758 -0.3057
13164W        W28295   1.623   1.638   1.558 -0.0279  0.3211  0.1482
13165W        W28296   0.823  10.432   0.717  0.0369  0.3200  0.3642
13166W        W28297   7.171   4.944   6.506 -0.0992  0.0847 -0.0119
13167W        W28298  12.151   6.215  12.688  0.1046 -0.2478  0.3580
13168W        W28299   2.537  11.442  15.076 -0.1568 -0.0255  0.1204
13169W        W28300  11.787   1.941  15.261 -0.1862  0.2398  0.2900
13170W        W28301  15.458   6.954  14.380  0.2583  0.2771  0.1858
13171W        W28302  18.545   3.074  14.730 -0.0178 -0.0154  0.2653
13172W        W28303   5.422   7.447   2.068 -0.1497 -0.0122 -0.1716
13173W        W28304   6.505  14.799   3.333 -0.2804 -0.5348 -0.1180
13174W        W28305  17.307  11.279   5.000 -0.3822 -0.1120  0.1446
13175W        W28306  14.874   1.149   5.135  0.0138 -0.0651 -0.0566
13176W        W28307  18.376   3.707   5.135 -0.0934 -0.3021 -0.0738
13177W        W28308   8.715  10.432   0.161  0.2435 -0.2073  0.0024
13178W        W28309  14.475  17.457  12.965  0.1730  0.1114  0.2149
13179W        W28310  12.412   3.560   1.059  0.0352 -0.2351 -0.3448
13180W        W28311  13.451  15.771   3.804  0.1900  0.0050  0.3651
13181W        W28312   8.008   6.662  12.094 -0.0852  0.4390 -0.0682
13182W        W28313  15.223  11.018   2.158  0.0066  0.3643  0.3145
13183W        W28314  12.954  14.129   1.349  0.0096 -0.0340 -0.1092
13184W        W28315  18.589  17.881  11.734  0.2503 -0.2510  0.4048
13185W        W28316   4.398   6.955   3.816 -0.3728  0.2934 -0.1935
13186W        W28317  16.374   5.426   2.909 -0.1469  0.0714  0.1204
13187W        W28318   4.502   9.173  11.566  0.1182 -0.1041 -0.0130
13188W        W28319  17.822  16.879  13.972  0.1450 -0.0419  0.1372
13189W        W28320   5.526  15.310  11.539 -0.1427 -0.1319 -0.0580
13190W        W28321  14.646  10.373   1.918  0.1094 -0.0115  0.3372
13191W        W28322  18.217   4.860   4.727 -0.2290 -0.2804 -0.0008
13192W        W28323  15.273   7.284  12.801  0.0962 -0.0028  0.3388
13193W        W28324  16.365  18.390  11.172 -0.0673  0.2830  0.1446
13194W        W28325  13.881  13.397   4.844 -0.0148 -0.1333 -0.0378
13195W        W28326   1.886   4.895  13.489 -0.0757 -0.1371  0.2038
13196W        W28327   2.887   7.426  10.559  0.3539  0.0147 -0.1487
13197W        W28328  12.937  10.752  12.415  0.1902 -0.1754 -0.1577
13198W        W28329   2.107  13.870   0.061  0.1752 -0.1881 -0.1782
13199W        W28330   8.377   9.931   4.703 -0.3513 -0.4142 -0.0001
13200W        W28331   5.799   4.904  15.363  0.3127  0.1674 -0.2181
13201W        W28332   3.917   4.927   3.914 -0.0515 -0.0737 -0.1428
13202W        W28333  14.304   7.437   5.286 -0.2030  0.2409 -0.3180
13203W        W28334  16.948  12.184   0.830 -0.0331 -0.0563  0.1659
13204W        W28335  16.884  15.620   1.173  0.2024  0.2446 -0.0010
13205W        W28336   0.886  17.888  15.579 -0.2152  0.1663 -0.2289
13206W        W28337  17.108  15.904  14.926 -0.2338  0.1980 -0.0487
13207W        W28338  11.299  11.184  12.188  0.0072  0.0627  0.1434
13208W        W28339   0.278  17.725  15.713  0.1271  0.1130  0.0075
13209W        W28340  12.378   2.837  13.162 -0.0434  0.0593  0.1573
13210W        W28341   4.501  15.120  13.423 -0.0583 -0.2739 -0.2409
13211W        W28342   2.262  18.258   2.211  0.0369  0.0748 -0.2351
13212W        W28343  14.643  10.244  11.630  0.0382 -0.2878  0.3141
13213W        W28344  14.755   8.567   9.798  0.1920  0.0498  0.1126
13214W        W28345  17.691  17.499   2.010 -0.2952 -0.3328 -0.2001
13215W        W28346  13.910   5.073   5.208  0.2096 -0.2720 -0.0010
13216W        W28347  17.587  16.425   0.926 -0.0856 -0.0283 -0.0392
13217W        W28348  11.289  17.523  11.288  0.1698 -0.0450  0.0198
13218W        W28349  14.710  11.148   0.129  0.0628 -0.0980  0.0176
13219W        W28350   2.907  12.555   1.033  0.2194  0.0693 -0.0221
13220W        W28351   7.242  18.275  14.699  0.1331  0.0712  0.0828
13221W        W28352  10.247   4.119   4.212  0.1369 -0.2282 -0.0495
13222W        W28353  14.977  15.167   4.971  0.0435 -0.2269  0.1700
13223W        W28354  12.729   0.040   2.003 -0.0527 -0.0239  0.0485
13224W        W28355  16.200  11.192   0.425 -0.0276  0.0296 -0.0112
13225W        W28356  16.039  10.294  10.507  0.1322  0.2147 -0.0086
13226W        W28357  17.854   1.208   0.921 -0.1585  0.0549 -0.1347
13227W        W28358  18.088  12.139  11.798 -0.2794  0.1382  0.0929
13228W        W28359  11.821  16.946   0.790 -0.4200  0.1683  0.0716
13229W        W28360   6.189   2.021   3.276 -0.0048 -0.0894 -0.2263
13230W        W28361  12.064  13.290   4.590 -0.2692  0.1932 -0.1373
13231W        W28362   1.287  15.643   2.026 -0.4814  0.3697  0.0753
13232W        W28363   6.180  10.688   1.101  0.2458 -0.2068 -0.1448
13233W        W28364   5.786  15.484  13.946 -0.1708  0.2449 -0.0259
13234W        W28365  18.475  14.335  13.681 -0.1579  0.1381  0.3283
13235W        W28366   3.342  15.776   0.650  0.4528 -0.0999 -0.2037
13236W        W28367   4.788   2.034   3.407 -0.0546  0.3048 -0.0514
13237W        W28368  16.849   2.262  11.358  0.2199 -0.2925 -0.0216
13238W        W28369  11.750   8.865   3.297 -0.1406 -0.1242  0.0574
13239W        W28370   7.623  14.981  13.674  0.1127  0.2183  0.4041
13240W        W28371  16.499  12.635   4.146 -0.0156 -0.0318  0.2637
13241W        W28372   7.499   6.920  10.953  0.2830  0.0850 -0.0789
13242W        W28373   2.023   9.165  14.002  0.1896  0.1970 -0.2940
13243W        W28374   8.072  18.261  15.545 -0.1545 -0.0756  0.2549
13244W        W28375   5.781  15.852  15.708 -0.2627 -0.1463 -0.0372
13245W        W28376  15.123  17.669   4.856 -0.0857 -0.1894  0.0587
13246W        W28377   2.811   3.097   2.416  0.3574 -0.1892  0.2159
13247W        W28378   9.133  11.928  14.263  0.0062  0.2539  0.2066
13248W        W28379   9.804  17.694   2.908  0.1633 -0.1960  0.2776
13249W        W28380   4.616  12.032  10.407  0.0910  0.0394 -0.0484
13250W        W28381  17.117   1.718  15.501  0.0831  0.1181 -0.0175
13251W        W28382   0.675   7.577   3.245 -0.0792 -0.2213  0.1699
13252W        W28383   6.434   9.692  13.654 -0.2176 -0.0328  0.2396
13253W        W28384  18.407  18.680  12.465 -0.2338 -0.2631 -0.5005
13254W        W28385  18.210   3.033   3.596 -0.1073 -0.3142 -0.3333
13255W        W28386  11.943  11.565  14.620  0.1205  0.2155 -0.5413
13256W        W28387   6.221  16.740  11.936 -0.2659 -0.2814  0.1188
13257W        W28388  15.154  14.567  11.196 -0.2781  0.1195 -0.4077
13258W        W28389  18.099  15.836   4.780 -0.1744 -0.0407  0.0945
13259W        W28390  14.276   3.280  11.700  0.0505  0.1221 -0.3805
13260W        W28391  13.164   1.324   3.981  0.0060 -0.0626  0.2546
13261W        W28392  14.547   3.614   5.133  0.1947 -0.5164  0.2874
13262W        W28393   1.341   6.695   2.788  0.1596  0.1260  0.2756
13263W        W28394   0.309  18.074  11.630 -0.0203  0.2192  0.1834
13264W        W28395  17.152  14.822   2.031 -0.0324 -0.3369 -0.2059
13265W        W28396   2.258   0.612  15.748  0.3030  0.0190 -0.3754
13266W        W28397  12.483   3.850  12.775  0.0565 -0.1384 -0.3599
13267W        W28398   7.856  16.593  14.991 -0.0314  0.0160 -0.0750
13268W        W28399  13.660   1.931  15.422  0.5094  0.1332  0.0610
13269W        W28400   7.331  11.772   1.872 -0.0114  0.1062  0.2050
13270W        W28401   1.594  12.578   0.915  0.0870 -0.2742  0.0503
13271W        W28402  13.655  14.095  13.003 -0.1690 -0.1468 -0.2205
13272W        W28403  14.418   0.546   9.786  0.1584  0.0169  0.0710
13273W        W28404  13.852   2.173  11.286  0.0979 -0.0390  0.1354
13274W        W28405  14.550   6.406  11.819 -0.2294 -0.2831  0.3813
13275W        W28406   9.138   9.206  13.706 -0.0118  0.0323 -0.3576
13276W        W28407   5.055  15.629  14.979 -0.1811  0.1761 -0.0748
13277W        W28408   4.641  18.281   2.987  0.0775  0.3157 -0.1760
13278W        W28409  17.641   9.287   0.857  0.0876  0.1877 -0.0581
13279W        W28410   8.400  17.313  11.053 -0.0473  0.0625  0.0514
13280W        W28411   4.921  11.737   2.926 -0.2388 -0.1425  0.0740
13281W        W28412   5.868  11.646   0.350  0.0271  0.1651  0.1611
13282W        W28413  18.620  14.953   3.685  0.2746  0.0365 -0.4193
13283W        W28414   0.043   0.365   2.746 -0.1296  0.1775 -0.0444
13284W        W28415  13.695  13.185  15.584 -0.0561  0.2348 -0.2912
13285W        W28416  18.021   7.410  13.585  0.3129 -0.3746 -0.0807
13286W        W28417  16.038  10.083  10.941 -0.2180  0.4203  0.2881
13287W        W28418   2.068   5.481   2.249  0.0951  0.3689 -0.1187
13288W        W28419  13.667   9.328  11.309 -0.0871 -0.1781 -0.1723
13289W        W28420  18.018  15.727   3.393  0.1921 -0.2277  0.0405
13290W        W28421   1.628   6.655  11.439 -0.2398 -0.0411 -0.1862
13291W        W28422  18.445   0.861  15.372  0.1538 -0.2566 -0.1406
13292W        W28423  17.560  13.991  12.914  0.0501  0.0586  0.3311
13293W        W28424   4.857   9.412   0.232  0.0141  0.1908 -0.1326
13294W        W28425  13.167  11.567   4.100 -0.0193  0.0169 -0.1127
13295W        W28426   9.248   1.323  11.569 -0.1509 -0.2611 -0.0304
13296W        W28427  14.930  12.186   1.618  0.0686  0.4906 -0.2462
13297W        W28428   8.185  17.872  14.543 -0.0558  0.0320 -0.3272
13298W        W28429   7.803  15.982  11.436 -0.1474 -0.2713 -0.0042
13299W        W28430   8.296  10.660   4.084  0.1371  0.0194  0.0228
13300W        W28431  13.989  11.224  10.171  0.4100  0.1896  0.0147
13301W        W28432  14.052  17.160   4.944  0.0220 -0.2310 -0.0046
13302W        W28433   4.753  14.982  14.282  0.1761 -0.3315 -0.1980
13303W        W28434  17.422  15.488  11.361  0.3159 -0.3098  0.0515
13304W        W28435   1.849  18.397   4.147 -0.2986 -0.1379 -0.0633
13305W        W28436  15.359   0.433  15.421 -0.0809  0.2304 -0.3536
13306W        W28437   8.874  11.948   2.537  0.1077  0.0881 -0.1277
13307W        W28438   5.291   8.123   2.505  0.2107 -0.0123 -0.1962
13308W        W28439  15.500  15.084   4.294 -0.1475  0.2202 -0.0938
13309W        W28440  16.768  16.514  10.745  0.1851  0.0691  0.1013
13310W        W28441   7.244   6.476  11.405 -0.0777 -0.1599 -0.2213
13311W        W28442   9.850  18.607  12.457  0.1791  0.0331  0.1032
13312W        W28443   8.112   2.468  13.571  0.0291 -0.0789  0.1022
13313W        W28444  14.301   4.080  15.372  0.0623 -0.0797 -0.2448
13314W        W28445   6.552  10.551  11.423 -0.0566  0.1165 -0.1474
13315W        W28446   0.394   7.264   1.343  0.1474  0.1070  0.0701
13316W        W28447   6.277   5.743   0.197 -0.0322  0.1070 -0.5481
13317W        W28448  12.933  18.380   3.328 -0.2973  0.2338 -0.2772
13318W        W28449  12.868   8.281  13.463 -0.0268 -0.2403 -0.2728
13319W        W28450   9.705   3.852   5.457  0.0267  0.1168 -0.3354
13320W        W28451  16.925  15.151   2.891  0.0374 -0.0093 -0.0285
13321W        W28452  10.635   4.405   3.008 -0.0993 -0.2549 -0.2589
13322W        W28453  12.529  11.562  12.632  0.3417  0.3323  0.1474
13323W        W28454   0.552  12.744  15.633 -0.2055  0.1635 -0.0477
13324W        W28455  11.111  15.904  12.891  0.3219 -0.1567  0.2086
13325W        W28456   0.022   4.240  15.428 -0.0882 -0.0099 -0.0647
13326W        W28457  15.328   1.918   1.421  0.0035  0.0475 -0.0849
13327W        W28458  16.220   8.713   3.726  0.1694 -0.1215  0.2356
13328W        W28459   2.156  12.561   2.105  0.2437  0.0167  0.2443
13329W        W28460   1.709   5.694  15.641  0.1268  0.2016  0.3448
13330W        W28461   3.782   3.849  14.913  0.0014  0.2137 -0.1110
13331W        W28462   3.335  15.424   4.777 -0.0104 -0.0432 -0.4552
13332W        W28463  17.507   2.716  10.505 -0.0639 -0.1130  0.2151
13333W        W28464   8.431   3.927  14.749 -0.0063 -0.3144 -0.2244
13334W        W28465  14.844   4.234  11.726  0.0586  0.1163 -0.1702
13335W        W28466  11.434  13.370   1.335 -0.1825  0.1780  0.1439
13336W        W28467   2.634   0.379   4.498 -0.0285  0.2310  0.1537
13337W        W28468   3.616   4.571  12.120 -0.0427  0.1284  0.3743
13338W        W28469  10.413  12.532  14.483 -0.0958 -0.0069 -0.3121
13339W        W28470  10.666   9.728   2.389 -0.0663 -0.1987  0.2024
13340W        W28471   4.662   4.570   5.455 -0.0241 -0.1453  0.0642
13341W        W28472   6.224   0.868  12.136 -0.0501 -0.0962  0.3092
13342W        W28473   5.861  13.173   0.359 -0.1457  0.1010 -0.0215
13343W        W28474  17.891   8.895   4.438 -0.2056  0.0015 -0.1202
13344W        W28475   3.859  15.255  11.090 -0.2942  0.0922 -0.1292
13345W        W28476   1.755  10.678  12.186  0.1895 -0.0270  0.3103
13346W        W28477   6.942   8.558   0.530  0.4382 -0.1870  0.2325
13347W        W28478   0.352  10.372  13.769 -0.2252  0.3622 -0.0384
13348W        W28479  16.792  11.175   3.312 -0.2328  0.4668 -0.0104
13349W        W28480   1.446   3.061   4.119  0.0359  0.2212 -0.3086
13350W        W28481  17.530  16.009  12.035 -0.0699  0.0308  0.4288
13351W        W28482  13.309  17.687   1.186 -0.0642  0.0745  0.1431
13352W        W28483   6.428   1.570   4.587 -0.1802 -0.0369  0.0112
13353W        W28484   0.304   9.625   0.992  0.2697 -0.2109  0.1475
13354W        W28485   2.853   2.841  12.201  0.0681  0.1557 -0.2731
13355W        W28486   2.531  16.262  15.009 -0.0114  0.3479  0.0609
13356W        W28487   6.657   7.870  10.889 -0.0816  0.1846 -0.2258
13357W        W28488   8.217   3.418  12.310 -0.2470 -0.2800 -0.2518
13358W        W28489   2.694  14.389  12.197 -0.1142  0.0058  0.3270
13359W        W28490  16.871  13.964  15.443  0.0033 -0.0835 -0.0160
13360W        W28491  16.303  13.279   1.352  0.3198  0.2274 -0.2543
13361W        W28492  15.742   1.966  10.723 -0.0108  0.0171 -0.1724
13362W        W28493  14.164  14.134   1.896 -0.0491  0.0444  0.1117
13363W        W28494  18.634  13.174   1.142  0.0290 -0.0659  0.2284
13364W        W28495   0.541   9.791   2.784  0.1468 -0.1479  0.0983
13365W        W28496   4.325  17.967   4.244 -0.4309  0.2809 -0.0162
13366W        W28497  16.729   7.355  10.372 -0.4371  0.1231  0.1033
13367W        W28498  10.093   7.101   3.053  0.0351 -0.2867  0.2176
13368W        W28499   2.997   2.904   5.172  0.1050  0.1284 -0.2328
13369W        W28500   3.559  12.764   4.976 -0.2852  0.0887  0.1785
13370W        W28501   9.715   2.373  13.549 -0.0945  0.0817 -0.1542
13371W        W28502   5.016  11.070  15.107  0.1816 -0.0649 -0.3292
13372W        W28503   9.846   4.568  11.077 -0.1515 -0.1307  0.0506
13373W        W28504  18.329  15.620   4.273 -0.1771  0.0395  0.1873
13374W        W28505   8.249   8.217   0.992 -0.1746  0.1289 -0.2353
13375W        W28506  10.721   0.652   1.674  0.3422 -0.2173  0.4096
13376W        W28507  11.679  13.029   2.151  0.0336  0.1267 -0.0668
13377W        W28508  17.404   8.515   4.772 -0.1488  0.1495 -0.2614
13378W        W28509  18.182   1.783  12.417  0.0650  0.1111  0.1015
13379W        W28510  13.725  14.464  15.309 -0.0497  0.0507 -0.4238
13380W        W28511  15.311  14.086   1.120 -0.1133  0.1408 -0.2258
13381W        W28512   8.454  16.190  14.516  0.0671 -0.0124 -0.1013
13382W        W28513  17.679  17.894  15.429  0.3279  0.1942 -0.1830
13383W        W28514   0.479   4.723  13.637  0.0696  0.0024  0.1767
13384W        W28515  16.633  11.006   0.217  0.1382 -0.0071 -0.5471
13385W        W28516   7.294   6.221   2.781 -0.1219  0.0964 -0.1436
13386W        W28517   6.374   7.862  13.000  0.2319 -0.1389 -0.2988
13387W        W28518   4.568  12.868  15.188  0.2974  0.5595  0.0359
13388W        W28519   5.015   5.696   6.006  0.4253 -0.0437 -0.0234
13389W        W28520   9.553   2.407  13.026  0.3470  0.3257 -0.1274
13390W        W28521  11.992   0.874   1.066  0.1096  0.0926  0.0576
13391W        W28522   3.699   8.778   4.709  0.0206 -0.0650 -0.0657
13392W        W28523   6.224   2.627  15.593 -0.0747  0.2052  0.5657
13393W        W28524  17.576  11.828   4.786 -0.1708 -0.0894 -0.0259
13394W        W28525   7.103  16.084   3.425  0.1603 -0.1506  0.1213
13395W        W28526  17.746   0.254   3.827  0.1362  0.3087 -0.0768
13396W        W28527   1.458   1.348   0.025 -0.0393 -0.0298  0.0616
13397W        W28528  10.716   6.857   4.202  0.1556  0.5803  0.2004
13398W        W28529   4.235   2.848  12.136 -0.1706 -0.1731 -0.0568
13399W        W28530   6.737   2.211   9.910 -0.2601 -0.0780 -0.2115
13400W        W28531  10.159  10.531  11.110 -0.5303 -0.1076  0.5140
13401W        W28532   1.545   5.420   3.968 -0.2142 -0.5183 -0.3715
13402W        W28533   3.372   6.682  10.791  0.2300  0.0257  0.1491
13403W        W28534  11.086   7.129  12.886  0.0310 -0.0960 -0.0391
13404W        W28535   4.329  10.216   1.237 -0.2371  0.1402 -0.1151
13405W        W28536   5.712   8.809  14.393 -0.0925 -0.0129  0.2646
13406W        W28537   2.773   9.250   5.108 -0.4545  0.2157  0.0474
13407W        W28538  17.182   5.160   2.380 -0.1941 -0.0089  0.0127
13408W        W28539  10.926  18.416  15.782 -0.2299  0.1565 -0.0816
13409W        W28540   3.859   3.088   3.412 -0.0879 -0.2233  0.0765
13410W        W28541  13.625  10.514  11.006 -0.0777 -0.1198  0.0869
13411W        W28542  15.291  15.316   2.892  0.1683 -0.3288  0.0999
13412W        W28543   0.387  12.380   3.912  0.1074 -0.1716  0.0556
13413W        W28544  18.322   5.608   5.864 -0.0771 -0.1242  0.0452
13414W        W28545  14.286   7.359   5.754 -0.1909  0.1487 -0.1711
13415W        W28546  14.624   8.488   0.027  0.0188  0.0853 -0.4694
13416W        W28547   3.479  15.556   4.275 -0.2134 -0.3901 -0.1374
13417W        W28548  17.755  12.301   9.654  0.2320 -0.1614 -0.0360
13418W        W28549   8.606  15.128  11.567 -0.0933 -0.2243  0.0508
13419W        W28550  14.113  14.572  15.000 -0.0134 -0.0621 -0.0248
13420W        W28551   6.679   2.026   3.298 -0.0064  0.0040  0.0262
13421W        W28552  15.667   3.472   9.982 -0.1948 -0.2718 -0.0812
13422W        W28553   8.532   7.353   3.964  0.1119 -0.0029 -0.3387
13423W        W28554   6.409  18.025  15.141 -0.2213  0.1500 -0.2760
13424W        W28555  10.281   1.814   1.053 -0.1988  0.1477  0.0344
13425W        W28556   7.716   0.061  12.766 -0.1048  0.1197 -0.0919
13426W        W28557   6.213   3.714  13.948 -0.2658  0.1268  0.0643
13427W        W28558  11.562   0.603  15.157 -0.0879 -0.0639  0.2582
13428W        W28559  17.671   7.533  15.502 -0.0992 -0.3148 -0.1823
13429W        W28560   0.564  10.605  11.735 -0.0661  0.0585  0.3318
13430W        W28561   9.306  14.549   5.534 -0.4118  0.3104 -0.0590
13431W        W28562   9.268   3.541   1.940  0.0344 -0.1607 -0.1660
13432W        W28563   6.453   7.109   1.495  0.0518 -0.0976  0.0433
13433W        W28564   7.396   1.801   4.130 -0.2792 -0.4385 -0.3161
13434W        W28565   2.876   8.850   4.322  0.0472  0.1606  0.2557
13435W        W28566   9.314   5.684  15.058  0.0877  0.2925 -0.0482
13436W        W28567   0.896   3.115   0.392  0.0427  0.1916  0.0999
13437W        W28568   5.451   8.026   1.470 -0.2269  0.0170  0.0025
13438W        W28569  11.013  17.997   2.222 -0.0446  0.1774  0.0842
13439W        W28570   2.986  13.985   1.173 -0.3359  0.0407 -0.0719
13440W        W28571  17.095  11.058   0.627  0.0819  0.1124  0.1612
13441W        W28572   1.815   5.908  15.123 -0.2127 -0.3944  0.2171
13442W        W28573  17.523  16.900  11.474 -0.0068 -0.0442 -0.3179
13443W        W28574   6.921   5.961   2.653  0.5286 -0.0516 -0.3097
13444W        W28575  12.460   2.007  11.609  0.3656 -0.4439  0.0419
13445W        W28576   5.110  18.347  14.395 -0.3344 -0.0240  0.2450
13446W        W28577  11.281   7.260   4.085 -0.2609  0.4547 -0.0934
13447W        W28578  13.977  12.514  14.968 -0.0631 -0.1375 -0.1229
13448W        W28579  16.723   7.438   4.469 -0.1843  0.4265  0.2716
13449W        W28580   5.596  12.867   2.180  0.1649  0.4693 -0.2894
13450W        W28581   5.791  12.572   2.557 -0.1237  0.4305  0.0592
13451W        W28582   9.994   1.422   0.771  0.2588 -0.1505 -0.2320
13452W        W28583   5.539  18.448   0.953  0.0170 -0.0712  0.0330
13453W        W28584   4.027  16.532   5.593  0.3392 -0.1483  0.0028
13454W        W28585  17.286  10.617   2.621  0.1383 -0.4278 -0.1789
13455W        W28586   6.412  10.194   0.225  0.1437  0.2062  0.0459
13456W        W28587  17.593  11.529  15.022  0.0549  0.1478 -0.0608
13457W        W28588   4.633   8.704  13.486  0.2700 -0.0634  0.1569
13458W        W28589  14.475  14.728  13.369  0.0557  0.0442 -0.0920
13459W        W28590   3.415   5.064  14.385  0.1736  0.1400  0.1208
13460W        W28591   8.524  12.654  11.126 -0.3494 -0.3396  0.0658
13461W        W28592  16.572   9.573   3.153  0.1102  0.0359  0.1968
13462W        W28593   1.757   8.975  15.156 -0.1083 -0.1546 -0.2523
13463W        W28594  12.164   0.826  14.894  0.0709  0.1768  0.3353
13464W        W28595   7.058  11.729   1.405  0.2461 -0.2537 -0.3547
13465W        W28596   1.735   7.119  12.651 -0.0009 -0.5276 -0.0525
13466W        W28597  11.014   3.293  11.371 -0.0531  0.1899  0.2750
13467W        W28598   2.732   4.711  12.334  0.2815  0.2062 -0.1123
13468W        W28599   3.795   9.489  13.298 -0.1211  0.0995 -0.0557
13469W        W28600   0.120  14.836   3.254 -0.4136  0.1026  0.0318
13470W        W28601   6.232  11.177   1.180  0.4668 -0.0614  0.4208
13471W        W28602  11.012   9.745  11.119  0.1448  0.1016 -0.1150
13472W        W28603   5.136   3.986   2.364 -0.0934 -0.0516  0.0891
13473W        W28604  11.373  15.929   4.641  0.0288 -0.3863 -0.1795
13474W        W28605  13.843  15.014  15.175 -0.2200  0.2897 -0.1951
13475W        W28606   1.933   9.800  15.404 -0.1884 -0.0855 -0.1457
13476W        W28607  10.809   3.928   1.086 -0.0323 -0.0267 -0.0446
13477W        W28608  16.007  18.415   3.288  0.0748  0.0449 -0.2270
13478W        W28609   9.799  11.605   1.234  0.0551  0.2350 -0.3265
13479W        W28610  17.820   7.488   4.000 -0.0944  0.3751  0.2771
13480W        W28611   4.010   7.504   1.623 -0.1478 -0.0825 -0.0946
13481W        W28612  14.702   9.346  14.399  0.3366 -0.1979 -0.1825
13482W        W28613  12.021   3.872  15.650  0.0860  0.4291 -0.3536
13483W        W28614  16.977   0.833  15.148 -0.0039  0.2282 -0.2083
13484W        W28615  15.719   2.394  12.357 -0.1131  0.1460  0.2218
13485W        W28616   4.696   6.552   3.045 -0.4778  0.2989  0.0494
13486W        W28617  13.534   3.352   4.477  0.0293  0.0054  0.1253
13487W        W28618  14.656   2.180   5.549  0.1787  0.0324 -0.0523
13488W        W28619  13.511  17.688   2.094 -0.0905  0.2171  0.2653
13489W        W28620  12.771  12.423  13.047 -0.1059  0.2442  0.0801
13490W        W28621  11.294  13.387  14.658 -0.2788 -0.1538 -0.3737
13491W        W28622   7.145   5.810  13.477  0.1888  0.0257  0.0639
13492W        W28623   4.347   5.360  11.097  0.0488 -0.2342  0.0545
13493W        W28624  13.435   7.924   1.755  0.5942  0.0380 -0.0607
13494W        W28625   5.496  18.145   1.760 -0.0461  0.2783 -0.0712
13495W        W28626   5.738  13.176   4.799  0.0571  0.2498  0.5681
13496W        W28627   6.731   3.880   5.475  0.1848  0.0769 -0.2082
13497W        W28628  17.196  12.251  11.626 -0.2117 -0.2057 -0.1870
13498W        W28629   1.349   5.583  13.807  0.1799 -0.0220  0.1306
13499W        W28630  14.646  13.422  12.557 -0.2100 -0.0945 -0.1704
13500W        W28631   1.423   8.470  12.882  0.2254 -0.1921  0.1170
13501W        W28632  11.466  14.509   1.260 -0.2451  0.0015  0.1185
13502W        W28633  17.790   5.124   4.941  0.0716 -0.1273 -0.1604
13503W        W28634  15.532  17.710  13.189  0.0365  0.1883 -0.1361
13504W        W28635   5.104  14.220   4.263  0.0243  0.0516 -0.2091
13505W        W28636  12.671  11.927  13.368 -0.1460 -0.1397 -0.0026
13506W        W28637   5.690  18.271  10.768 -0.1854 -0.2826  0.0692
13507W        W28638  13.550  17.043  10.890  0.0412  0.1382 -0.2338
13508W        W28639  15.570   7.509   3.802 -0.4295  0.0293 -0.2362
13509W        W28640   3.228  16.758   3.461  0.0142  0.2567 -0.3062
13510W        W28641  13.880   1.271  10.540 -0.0323  0.1520 -0.2291
13511W        W28642   2.383  10.663   4.859  0.1577  0.0067  0.2033
13512W        W28643  15.740   1.495  11.604  0.0628  0.0722 -0.1732
13513W        W28644  14.031   1.311  13.871 -0.1304  0.3647  0.3652
13514W        W28645  10.978  14.256   2.495 -0.0293  0.3771  0.1654
13515W        W28646  13.380  12.178   2.771  0.1989 -0.0452  0.3536
13516W        W28647   3.950   2.955  12.520  0.0454  0.4103  0.2453
13517W        W28648  13.193  11.704  12.588  0.1359  0.1575  0.3315
13518W        W28649  13.386   0.839   3.750 -0.0281 -0.1205  0.0238
13519W        W28650   7.918  10.613   4.857  0.3477  0.1628  0.2030
13520W        W28651   7.718   0.032  13.708 -0.0902 -0.0474 -0.0356
13521W        W28652   0.195  14.398  11.896  0.0627  0.0536 -0.0477
13522W        W28653   9.970   5.446   0.948  0.1550  0.1952 -0.3373
13523W        W28654  14.647   3.126  11.292  0.0663 -0.0059 -0.0091
13524W        W28655  16.659  17.359   1.041 -0.2000  0.1591  0.1319
13525W        W28656   3.137   3.201   4.747 -0.4426 -0.0273  0.0892
13526W        W28657  10.399  15.321   3.079  0.0234  0.1705  0.0923
13527W        W28658  12.239  10.647  12.914 -0.1007  0.2306  0.2847
13528W        W28659  18.528   5.649   0.006 -0.0322  0.0939 -0.0236
13529W        W28660  14.800   3.809  10.169  0.0570  0.1402 -0.1895
13530W        W28661  13.917  13.586  14.401 -0.0587  0.2737 -0.2532
13531W        W28662   1.314  17.386  13.393 -0.1134  0.2081  0.1008
13532W        W28663  17.866  14.306  14.977 -0.0363 -0.0148  0.0179
13533W        W28664   0.493  16.974  15.158 -0.3088  0.0778 -0.0749
13534W        W28665   9.929  18.670  15.708  0.2218  0.2392  0.0452
13535W        W28666   6.830  11.001  12.299  0.2559  0.0210 -0.1490
13536W        W28667   0.097   5.895  11.034 -0.0055  0.0086  0.3890
13537W        W28668  16.185   6.260   3.985 -0.1127  0.1648 -0.2158
13538W        W28669  18.516  16.756  14.275 -0.1070  0.0709 -0.2844
13539W        W28670   2.445   9.454  11.130 -0.1372  0.0991  0.3467
13540W        W28671  17.545   5.798   3.941  0.3516  0.2133  0.2730
13541W        W28672  11.501  18.114  12.960 -0.0012 -0.2175 -0.2752
13542W        W28673   8.172   4.742   0.553 -0.0481 -0.4871 -0.0379
13543W        W28674   3.741  16.960  13.807  0.0584  0.1713  0.0862
13544W        W28675  10.489   3.910   5.075  0.3808  0.1838 -0.1550
13545W        W28676   6.665   1.172   4.901  0.0830 -0.0437 -0.0416
13546W        W28677  11.454   4.004   2.372  0.2241 -0.1883 -0.0519
13547W        W28678   5.962  18.601  14.954  0.1332  0.0053 -0.0933
13548W        W28679   2.505   4.062  12.734  0.2736  0.0764  0.0794
13549W        W28680  14.083   2.264  12.977 -0.0465 -0.0236  0.2262
13550W        W28681  17.528  15.413  14.951 -0.3528  0.5118 -0.0575
13551W        W28682  12.318  10.457   0.365 -0.2514  0.1556 -0.0172
13552W        W28683   4.361   4.968  15.681 -0.2717  0.2551  0.1352
13553W        W28684   3.703  15.222   5.673 -0.2533 -0.2245  0.0914
13554W        W28685   4.007  15.365   3.672  0.2574 -0.2194  0.0174
13555W        W28686  10.832  11.031  14.022  0.0562  0.2318  0.3024
13556W        W28687  17.248   8.949   4.278 -0.0279 -0.2013  0.0490
13557W        W28688   3.714  12.827  12.427 -0.1812 -0.0307 -0.0697
13558W        W28689   0.912  16.057   3.524  0.2364  0.1595  0.0463
13559W        W28690  17.900   7.178  10.567  0.0954 -0.0032 -0.1048
13560W        W28691  16.554   6.053   0.984 -0.1608  0.3493  0.0300
13561W        W28692   3.750   6.041  13.425 -0.2574  0.2989 -0.0291
13562W        W28693  13.427   7.223  10.855  0.1637 -0.3675  0.0022
13563W        W28694   0.926  16.561   2.253 -0.2911  0.0838 -0.1702
13564W        W28695  18.274   7.122   0.968  0.1241  0.2280  0.0058
13565W        W28696  10.392   5.300  10.973  0.3462 -0.3674  0.0899
13566W        W28697  16.760   5.495   5.509  0.1089 -0.2880 -0.3261
13567W        W28698  18.318  18.349   3.185  0.1303  0.0831  0.2063
13568W        W28699   4.022   9.695   9.913 -0.1418  0.1245  0.2761
13569W        W28700   2.240  18.083   1.219  0.1662 -0.2500 -0.0065
13570W        W28701   1.560   3.234  11.479 -0.4035  0.0082  0.0178
13571W        W28702  15.614  15.988  14.917 -0.2071 -0.1320  0.0304
13572W        W28703  12.835   2.981   4.360 -0.0517  0.2788  0.2329
13573W        W28704   9.637   5.118  15.048  0.0540 -0.2408  0.3666
13574W        W28705   9.402  13.984  14.783 -0.0509 -0.1847 -0.0995
13575W        W28706  16.202  12.279   1.356  0.1051 -0.0217 -0.2501
13576W        W28707   5.093   3.557  14.677  0.0615 -0.2596  0.1260
13577W        W28708  15.398  17.391  12.482  0.1347  0.0328 -0.0309
13578W        W28709  16.640   5.201   2.540 -0.0803 -0.1382  0.3408
13579W        W28710  16.304  13.643   2.937  0.1858 -0.0461  0.5994
13580W        W28711   4.454   2.824  15.420 -0.0826  0.0348 -0.1241
13581W        W28712  16.809  10.974   5.462 -0.3211  0.0671  0.5493
13582W        W28713  18.327  11.877   2.616 -0.3774  0.2583  0.0642
13583W        W28714  10.914   9.205   0.137  0.1340  0.0336 -0.0202
13584W        W28715   6.334   6.053   4.612  0.0511  0.0943 -0.1565
13585W        W28716   7.601  12.965   0.916  0.3383  0.1472  0.2260
13586W        W28717   0.700  15.320   5.069 -0.0665 -0.2872  0.1153
13587W        W28718   1.250  14.349   0.908  0.3289  0.3349  0.3052
13588W        W28719  10.783   7.606   0.094 -0.0614  0.1463  0.0052
13589W        W28720  10.629   9.323   0.610 -0.3378  0.0481 -0.1196
13590W        W28721   3.611   7.073  11.041 -0.0893  0.2111 -0.0418
13591W        W28722  10.897  11.856   0.357 -0.0618 -0.1656  0.0592
13592W        W28723   0.795  14.739  11.432  0.0104  0.1277 -0.0810
13593W        W28724   4.220   2.261  15.274 -0.0961 -0.0766  0.0432
13594W        W28725  10.136   0.354   0.113  0.0386 -0.2203 -0.0444
13595W        W28726   1.043  16.722   1.736 -0.4957  0.2316 -0.0862
13596W        W28727  10.142   6.074  13.185 -0.0277  0.0709 -0.0390
13597W        W28728   9.568   2.305   3.608 -0.0840 -0.1046  0.0320
13598W        W28729  12.521   6.128   4.937 -0.0567  0.0625 -0.1147
13599W        W28730   4.300   7.190  10.842  0.0359  0.1031  0.0931
13600W        W28731  10.954   7.469  10.813  0.0771  0.1095 -0.0526
13601W        W28732  11.747  12.201   4.885  0.1083  0.0575 -0.0950
13602W        W28733   3.890  14.431   0.697  0.2434 -0.2626 -0.1326
13603W        W28734  14.492   2.500   2.872 -0.2587  0.3525 -0.1609
13604W        W28735  12.079   8.999   0.953 -0.4023 -0.1013  0.1511
13605W        W28736   1.848   4.043   5.620  0.1807  0.2435 -0.0548
13606W        W28737   0.359  14.624   5.386  0.2336  0.1820 -0.4483
13607W        W28738  13.075   8.738   2.197  0.2308  0.0186 -0.1281
13608W        W28739  11.213  18.096  10.993  0.0721  0.2068 -0.0847
13609W        W28740  17.043   4.406  15.009  0.0164 -0.1761 -0.2437
13610W        W28741   2.948   7.264   1.012  0.0388  0.0695 -0.3369
13611W        W28742  12.281   7.435  10.568 -0.0248 -0.2671 -0.2158
13612W        W28743  12.237   8.119   0.224  0.0225 -0.0336 -0.2331
13613W        W28744   3.004   4.459   5.319 -0.0559  0.4276  0.2397
13614W        W28745   3.463   7.571  14.421  0.2454 -0.2831  0.0395
13615W        W28746   9.711   3.347  13.164  0.2755 -0.0445  0.1261
13616W        W28747  17.934   9.618  10.826 -0.1524  0.2470 -0.2864
13617W        W28748  16.290   6.080   2.224 -0.0353  0.1734 -0.1111
13618W        W28749  16.578   7.906   0.014 -0.0131 -0.4291  0.0776
13619W        W28750   2.840  14.371   4.109  0.1339  0.0728  0.0876
13620W        W28751  10.693   6.091  13.571 -0.3225  0.0238 -0.2017
13621W        W28752  10.457   9.608   2.848  0.1501 -0.4981  0.0027
13622W        W28753  17.258  10.673  13.521 -0.0762  0.2759  0.2103
13623W        W28754  12.917   6.930   9.970 -0.1753  0.0640  0.0618
13624W        W28755  18.239   7.269   2.718  0.1342 -0.1563  0.1309
13625W        W28756   4.640  17.117  15.184 -0.1979  0.4665 -0.1880
13626W        W28757  18.687  10.042  13.426 -0.4081  0.4254  0.1641
13627W        W28758  18.045  17.891   1.848  0.1003 -0.3463  0.0562
13628W        W28759   0.163   6.019  14.693 -0.1099  0.2923 -0.0896
13629W        W28760   4.168   2.561   3.724  0.1277  0.4584  0.1317
13630W        W28761  12.846   1.840  12.975 -0.2372 -0.0035 -0.2356
13631W        W28762   0.161  12.720  13.524 -0.1778  0.3368 -0.0529
13632W        W28763   4.126   2.171  11.458 -0.2082  0.0940  0.3985
13633W        W28764   0.328   8.524   4.363  0.1994 -0.1744 -0.1598
13634W        W28765   7.150   8.647  12.111  0.0381  0.2237 -0.1331
13635W        W28766  11.101  11.720   5.530 -0.2173 -0.0962 -0.0730
13636W        W28767   7.012   4.876  15.179 -0.4826 -0.2652  0.0280
13637W        W28768  17.251   1.736  12.950  0.0944 -0.0264  0.1874
13638W        W28769  13.314   0.332   3.682  0.1522 -0.1264 -0.1635
13639W        W28770   8.144   7.472   1.332  0.2417  0.0860  0.1534
13640W        W28771  10.507  12.017  13.856 -0.1061 -0.0916 -0.1316
13641W        W28772   2.894  16.258   4.416 -0.0650 -0.1004  0.0036
13642W        W28773   0.360  16.645  12.526 -0.0077 -0.1415 -0.4285
13643W        W28774   9.796  11.711   4.124  0.1186 -0.0947  0.1072
13644W        W28775  12.297   0.083   0.002  0.1130 -0.0776  0.0686
13645W        W28776  14.104  13.727  11.370  0.1716  0.2375 -0.1343
13646W        W28777  13.287   4.590  12.439  0.1792 -0.0778 -0.1663
13647W        W28778  11.082   1.985   0.150  0.3208  0.2369  0.1123
13648W        W28779  18.259  14.952   5.299 -0.0200  0.0250 -0.4482
13649W        W28780   3.914  17.911  15.348  0.0830  0.2147 -0.4925
13650W        W28781   1.271   2.175  11.759  0.1051 -0.1413 -0.2462
13651W        W28782   6.888   1.138  11.731 -0.0948 -0.0583 -0.0229
13652W        W28783  14.893  17.066   1.380  0.1480 -0.1066 -0.0687
13653W        W28784  12.825  14.171  13.510 -0.1195 -0.1639  0.1343
13654W        W28785  15.487   6.056   2.781 -0.0803  0.0604 -0.1443
13655W        W28786  11.277   3.709  11.191 -0.0176 -0.1987  0.2622
13656W        W28787   6.013   9.041  15.230  0.3108 -0.0050  0.0385
13657W        W28788  13.959  11.783   4.504  0.0905 -0.0247  0.2518
13658W        W28789   1.713   3.595  11.842 -0.2601 -0.0553  0.2683
13659W        W28790   4.760   5.338  14.414 -0.1549 -0.2334  0.2198
13660W        W28791  13.378  13.500   4.654  0.1111 -0.0555  0.2146
13661W        W28792   1.029   2.715   1.495  0.0079  0.5271  0.0645
13662W        W28793  11.329   9.353   4.907  0.0625  0.2435  0.0896
13663W        W28794   2.656   8.535   1.304  0.0140 -0.1097 -0.1709
13664W        W28795  10.295   7.489  13.438 -0.0456  0.1853 -0.1446
13665W        W28796   5.693   0.848   3.718 -0.1719 -0.1905  0.2717
13666W        W28797   6.850  11.365  14.667 -0.0201  0.2955  0.2072
13667W        W28798   2.894   5.791   5.486  0.0433  0.2623  0.0451
13668W        W28799   3.496   2.699  15.640  0.1572  0.1361 -0.0359
13669W        W28800  17.478  17.682   2.468  0.2870 -0.0559 -0.0552
13670W        W28801   3.302   0.050  12.239 -0.4590 -0.2126 -0.0039
13671W        W28802   2.937  11.146   5.192 -0.1652  0.0291  0.1677
13672W        W28803  10.661  13.082   0.911  0.0212  0.1304  0.2835
13673W        W28804   0.144  18.159   2.914 -0.1942 -0.2994  0.1694
13674W        W28805   8.798   0.631  12.353 -0.3863  0.3160 -0.0278
13675W        W28806   5.925  13.257  13.533  0.2797 -0.1649  0.1707
13676W        W28807  15.189  15.580  12.752  0.3986 -0.1389 -0.1743
13677W        W28808   4.914  13.401   4.336  0.0941  0.0507  0.0466
13678W        W28809   5.745   9.668   0.107  0.1286  0.3838  0.2054
13679W        W28810   4.521   3.628  11.462 -0.3347 -0.1298 -0.2516
13680W        W28811  12.224   2.446  12.736 -0.1661  0.0630  0.1157
13681W        W28812   8.161   4.045   0.787  0.1107  0.0444 -0.1293
13682W        W28813   4.062   1.377   3.182  0.1287 -0.0069 -0.1362
13683W        W28814   6.488  11.274  12.755 -0.0632 -0.1389  0.3705
13684W        W28815   0.676   8.851  11.182 -0.0770 -0.0330  0.0228
13685W        W28816   9.424   2.599  13.893 -0.1849 -0.1786  0.0884
13686W        W28817   9.490  16.224  10.980  0.0526 -0.0442 -0.1787
13687W        W28818  11.046  13.586  10.994 -0.0028  0.4103 -0.0968
13688W        W28819   7.097   4.341   1.659  0.0321  0.0813 -0.1137
13689W        W28820  11.117  13.670  15.526 -0.0460  0.1302  0.0754
13690W        W28821   7.577  12.376  15.275 -0.3281  0.0041 -0.1805
13691W        W28822   6.830  13.347   4.579 -0.3032 -0.1394 -0.0489
13692W        W28823   3.777  11.383  11.313  0.1924  0.0542  0.4787
13693W        W28824   7.567   0.763   4.359  0.0237  0.1133 -0.0872
13694W        W28825   4.131   9.707   5.713 -0.2351 -0.0489 -0.1386
13695W        W28826  11.516   3.466   1.557 -0.1874  0.0332 -0.1279
13696W        W28827   3.186   8.316  13.273 -0.1011 -0.2684 -0.2554
13697W        W28828  17.428  10.938   2.274 -0.0140 -0.1211  0.0552
13698W        W28829   1.214   7.515  15.151  0.1168 -0.0123 -0.0161
13699W        W28830   4.304   0.403  15.279 -0.3065  0.2006  0.2833
13700W        W28831   9.812  16.244   1.599 -0.2006 -0.1541 -0.4336
13701W        W28832   6.071  15.565   2.622  0.2562 -0.1299  0.1554
13702W        W28833   0.092  11.025  13.311 -0.0158  0.1952  0.1339
13703W        W28834   7.238   9.093  13.901 -0.0931 -0.2278 -0.0816
13704W        W28835  10.779   5.416   5.274  0.0004 -0.2579  0.0271
13705W        W28836   3.142  18.013   0.789  0.3005  0.4986 -0.0130
13706W        W28837   5.619  17.930   5.056  0.2879  0.2598  0.1222
13707W        W28838   3.897  15.420  12.056 -0.2131  0.0749 -0.1361
13708W        W28839  13.635   9.875   0.667 -0.0383  0.0310 -0.0364
13709W        W28840  16.428  12.891  11.421  0.1016 -0.4210  0.1189
13710W        W28841   5.712  12.629  10.969  0.0199  0.0906  0.1024
13711W        W28842   4.205   9.841  12.400 -0.3782 -0.1241 -0.0633
13712W        W28843   2.990  15.252   2.214  0.0974 -0.4212 -0.0763
13713W        W28844  11.988  17.429  11.325 -0.2026 -0.0954  0.1385
13714W        W28845  16.396   0.940   3.504 -0.4141 -0.3598  0.0329
13715W        W28846   4.749  14.753  11.339 -0.2264  0.1541  0.2821
13716W        W28847   2.438   6.709  12.513  0.0574  0.2864 -0.2587
13717W        W28848   8.653   0.426   1.246  0.1153 -0.1213  0.1189
13718W        W28849  17.515   8.368  12.540  0.0138  0.0645  0.4721
13719W        W28850   8.388  18.059   2.126 -0.2779  0.0588  0.2274
13720W        W28851  10.224   1.728   2.395 -0.1216  0.0687 -0.1079
13721W        W28852   3.535  10.123  13.994  0.1245 -0.1511  0.1840
13722W        W28853   8.620  16.471  14.901  0.2861 -0.1719 -0.1921
13723W        W28854   6.219  10.309   2.355 -0.0612 -0.1264 -0.0893
13724W        W28855   5.486  12.698   4.562  0.0952 -0.0233  0.2408
13725W        W28856   4.840   6.944   0.028  0.3019 -0.5552  0.0471
13726W        W28857   1.765   2.342   3.534  0.0591 -0.4619 -0.2503
13727W        W28858   0.942   4.621   2.601  0.3486 -0.2749  0.1191
13728W        W28859  16.149   8.137   3.440 -0.2598  0.0356  0.2011
13729W        W28860  13.264  16.698   4.139  0.0748  0.2034 -0.1023
13730W        W28861   1.230  13.690   4.732  0.0375  0.1944 -0.1822
13731W        W28862  11.844   3.008   0.482  0.0731 -0.0291 -0.0046
13732W        W28863  11.264   5.464  11.850 -0.1277  0.1973  0.0823
13733W        W28864   0.184  12.359  12.211  0.0056 -0.0148 -0.0993
13734W        W28865  12.590   5.729   1.739 -0.1496  0.0899 -0.2234
13735W        W28866   1.154   0.913  12.212 -0.0460 -0.1827 -0.1142
13736W        W28867  12.043  15.971   0.512  0.1363 -0.0583 -0.0105
13737W        W28868  10.085  13.543  11.263 -0.0989  0.0289 -0.0346
13738W        W28869   5.962   9.828   4.745  0.0815 -0.0642 -0.2175
13739W        W28870   1.044   6.282   9.933 -0.1304  0.1238  0.0998
13740W        W28871  16.736  18.274  10.309 -0.0033 -0.1169  0.1468
13741W        W28872  16.001   1.431  13.443  0.0814 -0.5936  0.2565
13742W        W28873   4.699   9.963   2.018 -0.5712 -0.0457 -0.2157
13743W        W28874   3.648  11.621   4.190 -0.1321 -0.1655  0.2294
13744W        W28875  14.776  15.953   1.848  0.0120  0.2421  0.1957
13745W        W28876  15.950  14.128   1.829 -0.0746  0.0075  0.1098
13746W        W28877  18.286   9.766  12.967 -0.1310  0.0426 -0.1749
13747W        W28878   3.385   1.815   4.053  0.1542 -0.0504  0.2358
13748W        W28879  18.134  13.458  14.702  0.0300  0.1687  0.0490
13749W        W28880  13.507   5.361  14.607 -0.0139 -0.1467  0.1539
13750W        W28881  12.469   5.183  13.366  0.1277 -0.1845 -0.0797
13751W        W28882  11.692  14.848  12.958  0.1093  0.1889  0.1467
13752W        W28883  15.736  17.679   0.671  0.0037  0.0284  0.3548
13753W        W28884   1.205   8.088  11.097  0.1061 -0.1364 -0.1563
13754W        W28885   9.927  15.679  11.862  0.3071  0.0513  0.2118
13755W        W28886   4.113  16.052   6.499  0.0213  0.0675 -0.2756
13756W        W28887  13.227   5.702   9.458 -0.5462  0.1241 -0.6042
13757W        W28888   9.479   7.439  13.951  0.2677 -0.3962 -0.0756
13758W        W28889  15.562   9.192   2.815 -0.0779  0.1864  0.2883
13759W        W28890  12.447  10.077   2.247 -0.1356  0.3801 -0.0074
13760W        W28891   2.939   6.604   5.154  0.2117 -0.2544 -0.0154
13761W        W28892  18.568   4.650   4.403  0.1946  0.3140  0.1455
13762W        W28893   2.011  12.168  10.397  0.2218 -0.0818 -0.0804
13763W        W28894  15.097   1.778   9.972 -0.2827 -0.0938  0.0905
13764W        W28895  14.499  16.664  14.770 -0.2854  0.1893  0.2069
13765W        W28896  14.416  10.587  11.338  0.0441  0.0195  0.1669
13766W        W28897  10.655   0.193   2.574 -0.0303  0.1411 -0.0401
13767W        W28898   5.435  13.439  15.426  0.0614  0.3026  0.1135
13768W        W28899  13.937  10.698  14.506 -0.1762  0.2932  0.0679
13769W        W28900  11.138  12.545  13.369  0.2580 -0.1170  0.0535
13770W        W28901  14.210  13.081  12.581 -0.0983  0.0685 -0.1363
13771W        W28902  17.166   3.137  15.239  0.1032 -0.1436  0.0738
13772W        W28903   6.899  13.212   3.214 -0.0486 -0.1653 -0.1254
13773W        W28904   2.483   7.397  13.153 -0.2255  0.0975 -0.0479
13774W        W28905   3.554  12.448   4.441 -0.2390 -0.3007  0.2917
13775W        W28906   1.082  10.444  14.488 -0.0369 -0.0703 -0.0270
13776W        W28907  15.579   6.786   4.194  0.2744 -0.0202  0.2013
13777W        W28908  13.666  17.685  15.269 -0.0153  0.0650  0.2597
13778W        W28909   5.621   0.748   6.075  0.4695 -0.1010 -0.0133
13779W        W28910   1.801  12.515   5.416  0.1113 -0.0089 -0.2559
13780W        W28911  13.858  10.422  10.113  0.0591 -0.2104 -0.0347
13781W        W28912   8.897  13.077   0.608  0.1532 -0.2038  0.2437
13782W        W28913   0.126  12.743  15.346  0.3216  0.3174  0.0330
13783W        W28914  16.410  10.710   5.206  0.3212 -0.0532 -0.0068
13784W        W28915   2.686   1.491   2.206 -0.4297  0.2767  0.0590
13785W        W28916   4.838  18.264   5.983  0.0893  0.0098 -0.0405
13786W        W28917  15.507  18.066   3.077 -0.1084  0.0050 -0.0982
13787W        W28918   0.688  13.391  10.531  0.1701 -0.2636  0.1262
13788W        W28919   7.115   4.459  11.130 -0.1960 -0.1031  0.2039
13789W        W28920   9.292  10.802   1.686  0.1494  0.1445  0.1258
13790W        W28921  17.096   8.992  11.489 -0.0328 -0.0682 -0.1513
13791W        W28922   0.041  13.917   0.786  0.2006  0.4913 -0.2202
13792W        W28923  13.463   0.136   5.938 -0.1741 -0.1864  0.0334
13793W        W28924   9.236   1.738  12.258 -0.0262  0.0281 -0.0631
13794W        W28925  10.221   3.362   1.719  0.1906  0.1819  0.1393
13795W        W28926  10.829  14.302   4.902 -0.0375  0.1003 -0.0111
13796W        W28927   3.114   3.905   1.265 -0.4067 -0.1604  0.0460
13797W        W28928  14.230  15.577  12.913  0.0389  0.2500  0.0815
13798W        W28929   2.405   9.391   2.108 -0.0732 -0.0378  0.1619
13799W        W28930   4.044   2.314   4.117 -0.1694  0.1878 -0.0905
13800W        W28931  11.950   2.883   9.746  0.0742 -0.2207 -0.0882
13801W        W28932  14.926   2.735   5.155 -0.4423 -0.3055 -0.0932
13802W        W28933   2.954  18.280   2.664  0.0695 -0.1846  0.0259
13803W        W28934  13.365   0.883  11.400  0.3985  0.1103  0.0022
13804W        W28935   3.140   7.183  10.960  0.2358 -0.0074 -0.4286
13805W        W28936   7.916   8.472   1.344  0.3504 -0.1290 -0.2110
13806W        W28937   3.607   0.158   2.095 -0.3194  0.2805 -0.0792
13807W        W28938   4.887   5.152   1.754 -0.1000 -0.3887  0.4882
13808W        W28939   1.881  11.969  13.767 -0.0874  0.1151  0.0420
13809W        W28940  10.440  14.697   3.358  0.2060  0.1029  0.0540
13810W        W28941   1.050   7.659   9.825 -0.0072  0.2682 -0.1174
13811W        W28942  14.838  18.306   4.235  0.0297 -0.1185 -0.0013
13812W        W28943  13.128   2.346  11.122  0.0658  0.0135 -0.0655
13813W        W28944  13.887   7.350  10.871 -0.1824  0.2506  0.0711
13814W        W28945  17.052  12.255   5.347 -0.2731 -0.0863 -0.0617
13815W        W28946  11.983  10.198  12.177  0.0731  0.0885 -0.1602
13816W        W28947   4.388   0.973   1.918 -0.3729  0.2031 -0.1562
13817W        W28948   5.847  13.689   0.472  0.1195 -0.1234 -0.0235
13818W        W28949  13.369  17.055  12.528 -0.3369  0.1430 -0.0935
13819W        W28950  16.021   7.171  15.361  0.0161 -0.0997  0.1080
13820W        W28951  11.350  17.938   3.119  0.2054  0.0248  0.0328
13821W        W28952   0.405   6.875  14.898 -0.1748 -0.2265 -0.2001
13822W        W28953  10.676   7.357  15.484 -0.2841  0.0601 -0.4885
13823W        W28954   7.270  18.252   0.774  0.1286  0.4119 -0.3045
13824W        W28955  14.042   7.482  13.262 -0.1510  0.5556 -0.0801
13825W        W28956  18.450   3.898  14.359  0.2969 -0.0404 -0.0152
13826W        W28957   0.624   7.887   1.314  0.0871  0.1006 -0.1565
13827W        W28958  13.525  14.684   1.719  0.0911  0.1709  0.1624
13828W        W28959   2.456   2.146   0.629  0.2324 -0.1454 -0.2855
13829W        W28960  10.463   8.404   5.064  0.1950 -0.1364 -0.0547
13830W        W28961   6.604   1.110   0.878  0.1746  0.1682 -0.1042
13831W        W28962  14.499  11.490  14.989 -0.1397  0.0974  0.3462
13832W        W28963  10.290   9.931  15.095  0.2667  0.3130  0.2512
13833W        W28964  15.324  14.746   1.962  0.2622  0.1243  0.1296
13834W        W28965   9.835  14.252   3.937  0.0927 -0.3138  0.0357
13835W        W28966   4.721   9.836  14.450 -0.0709  0.0383  0.0616
13836W        W28967  16.705   9.952  15.659 -0.0032  0.2545 -0.1093
13837W        W28968  18.183  13.074   5.299 -0.1420  0.1970 -0.0990
13838W        W28969  12.962  16.181   2.155 -0.0646  0.0082  0.2920
13839W        W28970  13.934   7.527  15.085 -0.2269 -0.1519  0.0263
13840W        W28971   5.375   1.075  13.120 -0.2386  0.1303 -0.0666
13841W        W28972   2.465  12.112   5.222  0.0806 -0.0209  0.1901
13842W        W28973  16.649  13.772   4.299  0.1411 -0.3235  0.1935
13843W        W28974  10.153  16.976  12.569 -0.0889  0.1166  0.0643
13844W        W28975   7.211   4.493  14.427 -0.0847 -0.0296  0.5705
13845W        W28976  17.952  14.191   3.443  0.1544 -0.3602  0.0492
13846W        W28977   1.628  14.616   1.291  0.0408 -0.2703 -0.0626
13847W        W28978   8.415   4.656  13.002  0.0507  0.0795 -0.2167
13848W        W28979  18.108   8.382  14.892 -0.1477  0.3449  0.1105
13849W        W28980  17.977  14.706   3.254 -0.2954  0.0543 -0.2013
13850W        W28981  16.577  10.665  12.508 -0.0151 -0.0976 -0.1461
13851W        W28982   6.906  11.862   5.710 -0.1509 -0.0077  0.1405
13852W        W28983   1.545   1.900  11.476  0.0132 -0.1431  0.4234
13853W        W28984  10.035   1.937   4.311 -0.2775  0.0338 -0.0275
13854W        W28985  12.194   9.612  13.167 -0.2430 -0.1822 -0.0796
13855W        W28986  13.724  14.183  12.462 -0.2370 -0.5260 -0.5232
13856W        W28987   8.817  11.428   2.626  0.1360 -0.2443  0.1369
13857W        W28988   1.540  13.464  12.582 -0.0613 -0.0415  0.0474
13858W        W28989   3.166  15.589   1.865  0.0930  0.1639 -0.0431
13859W        W28990  15.700   1.990   0.908 -0.2620 -0.2767  0.0470
13860W        W28991  16.811  18.648  13.807 -0.0622 -0.0490 -0.0788
13861W        W28992  16.648   1.484  14.311 -0.2241  0.0314 -0.0456
13862W        W28993  17.336   2.676  12.706  0.2023 -0.1272  0.1272
13863W        W28994  13.554   3.185   0.686 -0.1637  0.1875 -0.0746
13864W        W28995   6.492  17.173   3.350 -0.0922 -0.0073  0.1593
13865W        W28996  17.837   9.846   1.274 -0.1025  0.1352  0.0704
13866W        W28997  14.516   8.754  12.816 -0.3537 -0.0993  0.1174
13867W        W28998   4.700   3.025  12.048  0.2766 -0.0301 -0.1718
13868W        W28999  11.520   3.034  12.989  0.0478  0.0249  0.4306
13869W        W29000   4.371   3.226  15.208  0.2516 -0.0748  0.0881
13870W        W29001   5.403  17.047   4.799 -0.1700  0.0519 -0.0094
13871W        W29002  11.818  15.245  11.908 -0.1816  0.0711  0.0628
13872W        W29003   7.250   4.687  13.545  0.2351  0.0046  0.2831
13873W        W29004  15.741  12.934  10.572 -0.3233  0.1983  0.0963
13874W        W29005   1.661   9.614   1.361  0.2141 -0.0738  0.0488
13875W        W29006  14.426  11.339  11.470 -0.0956 -0.2055 -0.1341
13876W        W29007   7.858  12.565   3.876  0.1446  0.1163 -0.3164
13877W        W29008   2.716  14.135   4.511 -0.0807 -0.2506 -0.3233
13878W        W29009   2.680   9.017   1.535  0.3553  0.0923 -0.0041
13879W        W29010  15.126   8.274  13.339  0.0290 -0.0537  0.2449
13880W        W29011  18.529  14.271   1.941  0.1101  0.4324 -0.0303
13881W        W29012  15.103  10.563   0.903  0.2044 -0.0732 -0.0096
13882W        W29013  13.655   6.774   0.037 -0.0747  0.3677 -0.1507
13883W        W29014  18.378   6.385   3.611 -0.0434 -0.0703 -0.0955
13884W        W29015   8.813   1.916   2.615  0.0999  0.0598  0.1885
13885W        W29016   4.908  17.387  11.671  0.2577  0.2002 -0.1022
13886W        W29017   2.264   0.352   0.444 -0.1349  0.1110  0.1818
13887W        W29018   5.697  18.330   2.919  0.0303 -0.1989 -0.0995
13888W        W29019   0.472   3.201  15.446  0.3657 -0.1995 -0.1003
13889W        W29020   9.628  17.920   2.387  0.0057  0.1006  0.0984
13890W        W29021   2.376  15.326  13.202 -0.1879 -0.0919 -0.0095
13891W        W29022  18.172  17.668  14.638  0.1403 -0.0038 -0.2368
13892W        W29023   7.972  13.306  15.568  0.0372 -0.1058 -0.1216
13893W        W29024   1.528  13.968   5.152 -0.2603  0.0660  0.2344
13894W        W29025  16.448   4.099  14.455  0.2159  0.0702 -0.1082
13895W        W29026  12.059  13.302   1.343  0.0187 -0.3413 -0.1675
13896W        W29027  10.898   6.207  10.845 -0.3239  0.1540  0.0452
13897W        W29028   1.747   4.302  11.853 -0.0020  0.2333 -0.3266
13898W        W29029  18.141   7.400  15.288  0.1636 -0.1766  0.1228
13899W        W29030   7.510   4.802   3.958 -0.0881 -0.3034 -0.2471
13900W        W29031   4.985  15.183  11.298 -0.1128 -0.0136 -0.0366
13901W        W29032  18.518  16.105  11.954  0.2971  0.1380 -0.1650
13902W        W29033  18.561   5.173   4.536  0.1046  0.1675  0.2478
13903W        W29034   0.842  14.144   3.647 -0.0960 -0.0969 -0.2517
13904W        W29035   8.129   0.199   4.865 -0.2065  0.1596 -0.0358
13905W        W29036   8.835   3.060   2.160  0.0076 -0.4130 -0.1999
13906W        W29037   8.973  12.305  15.573  0.1785 -0.2310 -0.0735
13907W        W29038   7.212   6.658   4.031 -0.1071 -0.3199  0.2131
13908W        W29039  14.850   4.649  14.506  0.1031 -0.1785 -0.2949
13909W        W29040  12.722   5.644   2.891  0.1772  0.2495  0.2117
13910W        W29041   6.380   3.090   4.027 -0.1991 -0.1935  0.0186
13911W        W29042  12.835  14.130  15.668 -0.0376  0.2303 -0.2535
13912W        W29043  16.554   0.514  12.607 -0.0189  0.2540  0.0503
13913W        W29044   4.800  11.085   0.077 -0.0918  0.6448 -0.2611
13914W        W29045   1.671   8.130   3.498 -0.0312 -0.0298  0.0908
13915W        W29046   2.895   8.443  12.898  0.3032 -0.0580  0.0594
13916W        W29047   7.699  16.770   3.922  0.0594 -0.1604 -0.0667
13917W        W29048   7.846  15.489  12.068 -0.0892  0.0522  0.4744
13918W        W29049   8.870   2.701   6.751 -0.1620  0.4047 -0.2651
13919W        W29050  16.787  11.277   3.906  0.0471 -0.1087 -0.1540
13920W        W29051  13.017   9.789   3.811  0.2607  0.1921  0.2703
13921W        W29052   2.760  16.021   4.823  0.0616  0.2996  0.1970
13922W        W29053   7.916   8.889  11.696  0.0513 -0.1655 -0.0949
13923W        W29054   1.416   5.702  14.829  0.0589 -0.1512  0.0487
13924W        W29055   2.012  18.135  13.493  0.1250 -0.4214 -0.4973
13925W        W29056  10.749  18.428   2.490  0.1500 -0.0255 -0.4098
13926W        W29057  13.877  17.047  11.871  0.4276 -0.2542  0.0785
13927W        W29058  10.439   0.264   4.981  0.0114  0.0184 -0.2830
13928W        W29059  17.501   6.691   2.717  0.3672 -0.1560 -0.0054
13929W        W29060  16.631   8.123  11.797  0.1042  0.0078  0.0556
13930W        W29061   5.754  16.343  14.731  0.2807 -0.2747 -0.4621
13931W        W29062   9.373   4.861  11.584 -0.1937  0.3565  0.0694
13932W        W29063  14.361   5.291  12.691 -0.3636 -0.0813  0.1334
13933W        W29064   8.441   9.105  10.690 -0.0630  0.1615 -0.1217
13934W        W29065  13.983  11.310   4.797  0.0075 -0.1979  0.0412
13935W        W29066   5.499   2.177   3.621 -0.1254 -0.0561 -0.0394
13936W        W29067  11.085   2.879   2.712 -0.3274  0.1593 -0.2032
13937W        W29068  10.512   4.135  11.796 -0.2273 -0.0708  0.1551
13938W        W29069  15.425  10.481  11.855 -0.2509  0.1014  0.5129
13939W        W29070  15.469  16.952  13.812  0.3070 -0.1020 -0.2118
13940W        W29071  16.211   1.932   5.757 -0.0785 -0.2693 -0.0153
13941W        W29072   1.269  18.321  11.664  0.0474 -0.1547 -0.1732
13942W        W29073   6.283   3.275  14.154  0.1978  0.1072 -0.4486
13943W        W29074  12.187  12.024   4.066 -0.2525  0.1299 -0.0118
13944W        W29075   4.171   9.381   9.563  0.0052  0.2194  0.1505
13945W        W29076   3.117   7.828  15.237  0.1198  0.2127  0.1665
13946W        W29077  15.877   0.655   0.920 -0.3253 -0.1967 -0.1574
13947W        W29078  15.487   8.302   2.176  0.1603  0.0843  0.2393
13948W        W29079   6.839  13.689   2.494 -0.0243  0.0103  0.2104
13949W        W29080  15.850   9.033   4.059  0.0502 -0.1689  0.1392
13950W        W29081   3.697   5.801   0.088  0.2303 -0.3225  0.0766
13951W        W29082  16.653   3.035   4.956  0.0457  0.0107 -0.1909
13952W        W29083  10.621  16.892   1.404 -0.3129  0.2284 -0.1219
13953W        W29084   1.215   0.001   2.267  0.2695  0.1146 -0.0129
13954W        W29085  15.793  18.669   3.810 -0.3762  0.0502  0.0308
13955W        W29086  16.463   8.500   2.407 -0.1326 -0.0349  0.0524
13956W        W29087  12.583   0.178  13.112 -0.2313  0.1196 -0.2376
13957W        W29088  13.249   7.407   2.561 -0.0087 -0.1949 -0.0148
13958W        W29089  13.635   7.260  12.496 -0.0070 -0.2169 -0.1003
13959W        W29090   4.093  13.913   2.253 -0.1368  0.0860 -0.3998
13960W        W29091  16.735   1.156   5.428 -0.2310 -0.0797  0.0203
13961W        W29092   5.910   5.306  11.388  0.0271 -0.2137  0.2286
13962W        W29093  16.271   7.323   4.190  0.1202 -0.0827  0.0172
13963W        W29094  15.544  13.081   5.085  0.2428  0.1218  0.1186
13964W        W29095  14.989   9.584  14.067  0.2186 -0.0562 -0.0599
13965W        W29096  14.702   7.136   5.249 -0.0589  0.1230 -0.0184
13966W        W29097  10.005  13.998  10.365 -0.1509  0.0746  0.1996
13967W        W29098   1.346  10.622  15.355  0.1079 -0.4124 -0.1736
13968W        W29099  16.862  10.283   3.218 -0.2764  0.4565 -0.1151
13969W        W29100   0.074  13.338   1.993 -0.1921  0.2838 -0.0416
13970W        W29101  16.113  14.567   2.207  0.0581 -0.0949 -0.3088
13971W        W29102  15.387   8.951  13.816 -0.0973 -0.3624 -0.0128
13972W        W29103   9.314   3.950  14.181  0.1664  0.0208  0.0863
13973W        W29104  16.734   5.401  14.146 -0.2513 -0.0906 -0.3410
13974W        W29105  14.433   2.611   1.921 -0.0896  0.2055  0.0062
13975W        W29106   4.773   5.460  11.966  0.0470 -0.1028  0.1625
13976W        W29107  15.001   6.703  11.654  0.3111  0.0887  0.2012
13977W        W29108  10.100   8.874  10.245  0.1321 -0.0993  0.0747
13978W        W29109   2.589  17.533   3.604  0.1600  0.0116 -0.1208
13979W        W29110   4.117   2.500  13.868 -0.1626  0.0895 -0.0196
13980W        W29111   0.657   5.908   1.714 -0.0994  0.1546 -0.0554
13981W        W29112   7.770  18.387   3.363 -0.2789 -0.4345 -0.4192
13982W        W29113   3.745   1.999   5.626  0.0980  0.1975  0.1314
13983W        W29114   3.182  16.549   2.928 -0.0370 -0.0194 -0.0774
13984W        W29115   6.419  17.000  15.549  0.2176 -0.0596 -0.1397
13985W        W29116   9.620  12.761  11.705  0.2411  0.0765  0.2688
13986W        W29117   9.506   8.558  15.046  0.0670  0.2681  0.3838
13987W        W29118  18.072  18.130  15.195  0.0383  0.2343 -0.1433
13988W        W29119  16.577   2.159  13.478 -0.2469  0.3654  0.2623
13989W        W29120   4.654   1.200   4.470  0.0910 -0.1384 -0.1925
13990W        W29121  15.557   0.638  11.815  0.1422  0.2024 -0.2337
13991W        W29122   6.175   4.325   0.830 -0.2201  0.1107  0.3952
13992W        W29123   5.907  18.129   0.732 -0.1210 -0.0049 -0.3327
13993W        W29124  15.291  14.624  11.736 -0.0246 -0.0980 -0.0977
13994W        W29125   5.519   9.941   3.026  0.4713  0.2690 -0.0376
13995W        W29126   6.732   5.085  12.977 -0.0651 -0.0194  0.3656
13996W        W29127   8.663   9.502  10.890  0.1680  0.3780  0.0885
13997W        W29128   8.433   1.432  11.230 -0.0595  0.2387  0.0521
13998W        W29129   3.940   4.234  14.486  0.3068 -0.4197 -0.0449
13999W        W29130   4.322   9.633  14.216 -0.1890 -0.0089 -0.3457
14000W        W29131   2.119  17.423   3.373 -0.2357 -0.0712  0.3209
14001W        W29132   0.785  14.117   1.124  0.1774 -0.0224  0.0513
14002W        W29133  12.167  17.201  10.696  0.4808  0.1280  0.2360
14003W        W29134  15.336   2.873   0.970 -0.2210 -0.1026 -0.0921
14004W        W29135  17.620  12.433  12.659 -0.3278 -0.2470 -0.1889
14005W        W29136  15.900   4.104   1.647  0.0082  0.2313 -0.0680
14006W        W29137  15.743  15.687  12.874 -0.1163  0.3147 -0.3374
14007W        W29138   6.246   8.156  10.829  0.0909  0.3346  0.1745
14008W        W29139  14.087   3.096   3.219  0.0068 -0.3179 -0.0428
14009W        W29140  17.389  11.841  14.239 -0.0244  0.1274 -0.3007
14010W        W29141   0.703  18.046   4.558 -0.0945 -0.1723  0.0030
14011W        W29142  10.752  13.825   5.268 -0.3273 -0.0829  0.1335
14012W        W29143  17.017   0.199   3.051  0.1189 -0.0870  0.0999
14013W        W29144   6.121   3.142   1.371  0.3032  0.0733  0.0882
14014W        W29145   1.690  12.713   2.870 -0.1670 -0.1458  0.2162
14015W        W29146  11.145   0.950   2.869 -0.2608 -0.0654  0.0289
14016W        W29147   6.033   6.114   3.585 -0.1567  0.0569  0.1589
14017W        W29148   7.614   5.361  14.199 -0.0119 -0.0856 -0.0016
14018W        W29149   1.993  10.836  11.096 -0.3974 -0.0981 -0.4713
14019W        W29150   3.368  14.935   4.847 -0.0251  0.0628 -0.4391
14020W        W29151  12.590   8.749  11.518 -0.3005  0.2525  0.0991
14021W        W29152  13.002  16.828   0.033  0.0429  0.1582 -0.2782
14022W        W29153   4.646  14.443   4.443 -0.0387  0.2599 -0.1494
14023W        W29154   9.902  13.248  11.691  0.0823 -0.3205  0.2254
14024W        W29155   5.360   5.109  15.334  0.2838  0.0853  0.0569
14025W        W29156  16.325  14.067   1.303 -0.2531  0.0757 -0.2291
14026W        W29157   3.240  15.644  11.321 -0.2741  0.2341 -0.4430
14027W        W29158   3.001   5.298  11.962 -0.0785 -0.0316 -0.4433
14028W        W29159  14.905   7.747  10.661 -0.1230  0.1523 -0.3453
14029W        W29160   5.744   7.978   3.486  0.0625  0.3355 -0.1906
14030W        W29161   9.254  12.579   5.232  0.0114  0.1810 -0.1996
14031W        W29162   0.279   2.715   1.941 -0.1554  0.3192 -0.0696
14032W        W29163   8.420  12.786   2.000 -0.2853 -0.1656  0.0578
14033W        W29164  16.711  16.224  12.072  0.3802 -0.1015  0.0738
14034W        W29165  11.596   5.028   9.222  0.0209  0.0185  0.2169
14035W        W29166   1.272   9.511  11.564  0.3325  0.1912 -0.2780
14036W        W29167  10.734  10.758   4.520 -0.1258 -0.0831 -0.2986
14037W        W29168  13.343  13.360   1.315 -0.0413 -0.0712 -0.1944
14038W        W29169  10.119  10.369   3.776 -0.3140  0.0002 -0.1001
14039W        W29170   6.090   1.329   3.433  0.0481 -0.1101 -0.2704
14040W        W29171   8.189  18.580  13.799  0.1586 -0.2084 -0.0766
14041W        W29172  18.586   5.008  12.855  0.3620 -0.0272  0.1243
14042W        W29173   3.266  17.264   3.464  0.1015  0.2406 -0.2102
14043W        W29174  12.105   6.147   4.685 -0.1630  0.1780 -0.0502
14044W        W29175   4.348  17.213  13.800  0.1226 -0.2543 -0.3995
14045W        W29176  15.402  11.268   0.929 -0.1509 -0.3898 -0.1417
14046W        W29177   7.411  15.323  14.740  0.2416 -0.2296 -0.1413
14047W        W29178   2.016   8.839   1.906  0.1916  0.0342 -0.1117
14048W        W29179  15.368  11.900  11.719 -0.0280  0.1704 -0.0373
14049W        W29180   0.633  14.896   0.523 -0.2483 -0.0624  0.0863
14050W        W29181   2.547  12.663  11.424  0.0083 -0.0039  0.1267
14051W        W29182   7.650   2.428  14.737  0.0765  0.2193 -0.4138
14052W        W29183   8.214  14.999   3.798 -0.1246  0.0598 -0.0766
14053W        W29184   1.696   2.388   4.458  0.1185  0.5278 -0.1397
14054W        W29185  12.321  17.807   2.698 -0.1776 -0.0560  0.1900
14055W        W29186   6.351   4.522  15.718  0.2375  0.4788 -0.2208
14056W        W29187  11.645   9.128   4.019 -0.1073  0.1050 -0.1858
14057W        W29188  15.196  13.526   1.357  0.0779 -0.0719 -0.0081
14058W        W29189  17.820   3.550  13.615  0.0888  0.2176 -0.1566
14059W        W29190  14.397   6.768  14.059 -0.1691  0.1861 -0.0237
14060W        W29191   4.384  16.875  11.897 -0.0977 -0.2373 -0.3787
14061W        W29192   4.856  15.225   3.449  0.1342 -0.0552  0.3698
14062W        W29193  11.347   1.150   2.089 -0.0977 -0.2281  0.1247
14063W        W29194  18.031  12.215   1.653 -0.1856  0.1084  0.0454
14064W        W29195   9.536   6.545  14.429 -0.4242  0.4054 -0.1389
14065W        W29196  16.250   4.840   1.126  0.1696  0.2315 -0.2355
14066W        W29197   5.064   6.247  15.542  0.0573 -0.0878  0.0315
14067W        W29198   8.714   0.936   0.057  0.1179 -0.0853  0.1047
14068W        W29199   0.672   6.618   3.466 -0.3500 -0.3070 -0.0359
14069W        W29200  12.260  15.460  11.042  0.3031 -0.2509 -0.0321
14070W        W29201  17.865  15.998   2.277  0.0375 -0.0559 -0.2497
14071W        W29202   7.181  13.545  15.054  0.2473 -0.1240  0.1986
14072W        W29203   2.107   2.383  12.205 -0.0816  0.1962  0.0279
14073W        W29204   3.625  13.916  12.410  0.5198  0.1676  0.0274
14074W        W29205   9.195   7.105  10.688 -0.1377  0.3111 -0.4849
14075W        W29206  17.745  14.580   0.203 -0.0798  0.0982  0.1186
14076W        W29207   9.012  16.634  15.651  0.2477  0.1211  0.2245
14077W        W29208  17.908   5.056  10.369 -0.1387  0.0577 -0.2585
14078W        W29209   8.994  17.392   3.994 -0.1231  0.3200  0.1429
14079W        W29210   7.267  10.575   0.052  0.1716 -0.0330  0.0686
14080W        W29211  15.713   3.865   3.458 -0.1140 -0.1205  0.3380
14081W        W29212  16.833  18.090  13.542  0.1584 -0.0341 -0.0052
14082W        W29213  17.720   6.057  12.788  0.1083 -0.0828  0.3610
14083W        W29214   0.930  13.679   2.550  0.1293 -0.1083 -0.5540
14084W        W29215  17.617  13.148  15.236 -0.0699 -0.0770 -0.1562
14085W        W29216  17.133  16.311   2.444 -0.1898 -0.2663 -0.1669
14086W        W29217   2.686   3.781  14.083 -0.1586 -0.2520 -0.1663
14087W        W29218  15.643  18.159   5.490  0.0060 -0.2342 -0.0431
14088W        W29219   6.946   3.913   2.506  0.0367 -0.1813 -0.2154
14089W        W29220  13.180  12.336  13.861 -0.2679  0.0950  0.1847
14090W        W29221   7.661   3.351   1.922  0.0538 -0.1226 -0.1456
14091W        W29222  13.005  11.315   1.568 -0.3215 -0.2136 -0.0096
14092W        W29223  15.548  16.078  12.635 -0.0417 -0.3355  0.3904
14093W        W29224  13.821   1.483   3.275  0.4171  0.1957 -0.1212
14094W        W29225  11.604  17.363  15.711 -0.1935  0.2340  0.2681
14095W        W29226  13.402   2.014   1.919 -0.2191  0.1201  0.0992
14096W        W29227   1.618  17.372   1.130 -0.1380 -0.1814 -0.2756
14097W        W29228   5.993  10.701   5.032 -0.0870  0.1596 -0.1195
14098W        W29229  11.789  15.816  14.620  0.0307  0.0201  0.2503
14099W        W29230   8.919   9.064   0.626  0.3535  0.1368  0.0909
14100W        W29231   4.212  17.529  14.351  0.3994 -0.0569 -0.0742
14101W        W29232  13.334   8.753   3.671  0.1334 -0.1587 -0.0866
14102W        W29233  17.508   8.879   0.328  0.2852 -0.0371  0.1428
14103W        W29234  12.229  14.102  14.337 -0.0648  0.4404  0.0029
14104W        W29235   8.940  15.975  13.580  0.4012  0.1910 -0.1994
14105W        W29236   4.285   7.504   3.140 -0.0460 -0.0904 -0.1502
14106W        W29237  10.023  17.329  14.175 -0.1772 -0.0039  0.1490
14107W        W29238   1.535   1.442  15.350 -0.3501  0.1814  0.1445
14108W        W29239  11.275   1.801  12.653  0.1521  0.2368 -0.3144
14109W        W29240   2.015   8.227   4.603  0.3563 -0.3480  0.1264
14110W        W29241  11.519   3.839  15.723 -0.3507 -0.0308  0.2994
14111W        W29242   2.909   3.635   5.658 -0.4239  0.5386  0.0283
14112W        W29243   2.638   9.880  14.277 -0.0153  0.1195 -0.2505
14113W        W29244  10.873  14.271   1.332  0.1259  0.0218  0.0290
14114W        W29245   7.259   7.796   2.447  0.1885 -0.5581 -0.1824
14115W        W29246   1.135   8.758   1.840  0.0489 -0.1100  0.1194
14116W        W29247   2.500   9.953  10.841 -0.0807  0.0012  0.2281
14117W        W29248   1.841   2.019   0.841 -0.0700 -0.2054  0.1001
14118W        W29249   5.475   4.926   4.419 -0.3921 -0.1193 -0.2652
14119W        W29250  13.111   3.260  13.815 -0.0905  0.0147  0.1927
14120W        W29251   7.279  10.628   5.496 -0.1497 -0.1286  0.0653
14121W        W29252   9.450  16.173  13.542 -0.1327 -0.0051 -0.0701
14122W        W29253  10.863   9.120   1.086 -0.0395 -0.2066  0.1239
14123W        W29254   7.090  16.489   5.309 -0.0277  0.2503  0.2239
14124W        W29255  15.470   0.217   4.018 -0.1686  0.5089 -0.0715
14125W        W29256  13.873   9.581   0.951 -0.1978  0.0689  0.2827
14126W        W29257   2.867  14.479  13.773  0.1501 -0.0026  0.0218
14127W        W29258   6.416  11.381  10.941  0.1752 -0.2393  0.1467
14128W        W29259   6.635  17.366  15.120  0.0051 -0.2090 -0.1531
14129W        W29260  11.301   2.345   5.631 -0.1334 -0.1109  0.0186
14130W        W29261   7.417  15.848  15.519  0.2334  0.0864  0.1070
14131W        W29262  15.052   3.531  12.856  0.1585  0.4249 -0.0395
14132W        W29263   8.903   3.527   2.605  0.2218 -0.1891 -0.0920
14133W        W29264   3.240   3.109  11.969  0.1563 -0.1445  0.1485
14134W        W29265  12.534   4.427   1.742  0.0290 -0.0643 -0.1645
14135W        W29266   7.404   7.978   5.221  0.2337  0.1967  0.0006
14136W        W29267   6.809   1.532   2.352  0.0244 -0.0921 -0.1312
14137W        W29268   1.866   8.844  10.910 -0.1446  0.2377  0.0137
14138W        W29269   4.882  15.406   1.857 -0.0598  0.0189  0.0300
14139W        W29270  13.506  12.997   1.025 -0.0523  0.1697  0.0564
14140W        W29271   5.609  15.041  15.206 -0.1256  0.2116 -0.2693
14141W        W29272   8.014  13.676   0.691 -0.1329 -0.2214 -0.0133
14142W        W29273   3.052   8.830   1.997  0.0485  0.0912 -0.1241
14143W        W29274  11.154  10.105  15.554 -0.4054 -0.1736  0.1573
14144W        W29275   9.139  13.489  12.206 -0.1170 -0.5032 -0.0399
14145W        W29276   1.682   9.180  11.714  0.1440  0.0684 -0.1137
14146W        W29277  16.216   3.831   4.704 -0.2099 -0.0444  0.0581
14147W        W29278  16.241  15.988  15.563 -0.0350  0.5396 -0.1000
14148W        W29279   1.894  16.102  15.349  0.0625  0.1626 -0.1665
14149W        W29280   1.692  17.526   3.040 -0.0114  0.0005 -0.0229
14150W        W29281  12.332   6.966  10.472  0.0221 -0.1113 -0.0433
14151W        W29282   1.798  10.374   4.496  0.1059 -0.2162 -0.0369
14152W        W29283   4.527  12.983   4.849  0.3959  0.1047  0.0051
14153W        W29284  11.055  11.570  15.093  0.0237 -0.0228 -0.1236
14154W        W29285  11.486   0.741   3.166 -0.0576 -0.0201  0.1027
14155W        W29286   7.731   7.062   1.378  0.1068  0.2844 -0.0413
14156W        W29287  12.219   2.348  15.587  0.0284 -0.0734  0.3446
14157W        W29288   1.031  10.767   1.631  0.1514 -0.2355 -0.0199
14158W        W29289  14.424   8.811  15.472  0.1680 -0.2938 -0.0425
14159W        W29290  12.792   5.615   0.179  0.2824  0.0096  0.0424
14160W        W29291  10.496   1.917  14.557  0.0920  0.0763 -0.0877
14161W        W29292   4.843   0.422   2.375 -0.0823 -0.1732  0.1381
14162W        W29293   3.004  13.852   3.968  0.0552  0.3582 -0.1657
14163W        W29294   7.442  15.211  11.682 -0.2686 -0.0373  0.0296
14164W        W29295  12.570   0.605  13.911 -0.2394  0.3021 -0.1467
14165W        W29296  16.637  17.617  11.592  0.1717 -0.0091  0.1297
14166W        W29297  11.441  17.320  12.674  0.1086  0.0340 -0.0924
14167W        W29298   8.625  14.141   2.247  0.0488  0.0242 -0.1494
14168W        W29299  13.503  18.181  14.323 -0.1218 -0.1370 -0.1249
14169W        W29300   2.614   7.744  15.082  0.1332  0.1008  0.2112
14170W        W29301   1.280   9.529   0.213 -0.0601  0.0177  0.0629
14171W        W29302   6.102  11.522  12.744 -0.1135  0.2191  0.1013
14172W        W29303   6.977  12.984   2.188  0.4619 -0.1558 -0.2732
14173W        W29304  10.033  11.869  13.713 -0.0128 -0.1190 -0.1198
14174W        W29305  15.228  18.538   1.133 -0.0058  0.3159  0.1395
14175W        W29306   7.550   4.676   2.070 -0.0390 -0.1351  0.0372
14176W        W29307  13.014  12.631  14.639 -0.0584  0.0168  0.0690
14177W        W29308   8.348  16.771   0.521  0.0682 -0.2776 -0.1527
14178W        W29309   3.434   3.473  15.011 -0.1785 -0.0826 -0.0510
14179W        W29310   7.703  10.209  10.603 -0.0226 -0.4205 -0.0861
14180W        W29311  16.698   2.557  15.566 -0.0291 -0.3215 -0.2626
14181W        W29312  14.693  11.578   0.355  0.2004 -0.3245 -0.2156
14182W        W29313   7.612  16.677  11.080  0.2019 -0.2050 -0.1435
14183W        W29314  12.921  11.346  10.758 -0.1288  0.1496  0.1424
14184W        W29315   4.317   8.499  13.864  0.0389  0.2750  0.1688
14185W        W29316   2.944   3.811  13.625  0.1314  0.1917  0.1846
14186W        W29317   8.168   5.755   2.352 -0.0696  0.1424 -0.2380
14187W        W29318   0.180  14.261   5.018 -0.0954 -0.2811  0.1277
14188W        W29319   9.105   1.634   4.469  0.0946 -0.0837 -0.2826
14189W        W29320  15.297   0.081  13.314 -0.1136 -0.0019  0.0644
14190W        W29321  14.147   6.654  13.274 -0.0569 -0.0519 -0.1029
14191W        W29322  12.888   6.123   0.578 -0.4540  0.2048  0.0055
14192W        W29323  18.358  12.129  14.810  0.4845  0.2146  0.1109
14193W        W29324  12.426  14.764  15.474 -0.2137  0.1538 -0.1703
14194W        W29325  14.695   5.676  10.949  0.1914 -0.1745  0.0059
14195W        W29326  14.060  18.661   5.241 -0.2269  0.0283 -0.2823
14196W        W29327  17.818  16.894   3.819  0.1633  0.0127 -0.3907
14197W        W29328   5.191   3.137  15.575  0.0292  0.0366  0.2884
14198W        W29329  18.291  12.152  13.838  0.0474  0.0571 -0.0421
14199W        W29330  16.564   7.374   3.101 -0.0019 -0.2223  0.0162
14200W        W29331  12.586   0.120   1.034  0.1158 -0.0317  0.0682
14201W        W29332   3.639   2.215   5.108  0.2131 -0.3216  0.1262
14202W        W29333   9.176   0.195  10.860 -0.0971 -0.1457 -0.2249
14203W        W29334   0.426  15.003  15.776 -0.2821  0.2362  0.2506
14204W        W29335  15.091   0.573   3.282  0.1874  0.3034  0.0872
14205W        W29336  14.827   7.048   3.242 -0.0922 -0.2579 -0.0491
14206W        W29337   4.844  15.172  13.819  0.1136 -0.3389  0.2380
14207W        W29338  18.484   1.470  11.357  0.0981  0.3026  0.0936
14208W        W29339  15.766   2.358  11.029  0.1236  0.2569  0.1561
14209W        W29340  17.934  14.741  15.488 -0.1160  0.0482 -0.1236
14210W        W29341   0.987  15.155  10.706  0.1197  0.3284 -0.1685
14211W        W29342   4.591   4.054  15.417  0.1444  0.1112 -0.4881
14212W        W29343   4.170  14.422  12.251  0.0683  0.0062 -0.2824
14213W        W29344   3.157   3.761   4.308  0.1426  0.0977  0.0157
14214W        W29345  17.334   5.431  12.248 -0.3209 -0.0679  0.0933
14215W        W29346  17.927  15.405   0.353 -0.0546 -0.3387  0.5994
14216W        W29347   3.555   1.634  12.192 -0.2991  0.3307  0.0353
14217W        W29348   8.161   2.814  12.954  0.2959  0.2165 -0.1088
14218W        W29349  13.079  15.665   2.303  0.3077 -0.2819 -0.2957
14219W        W29350   6.922   6.962  12.369 -0.2566  0.4392  0.2619
14220W        W29351   6.496   1.526  11.797  0.4063  0.1313  0.0039
14221W        W29352  18.588   6.003   5.552 -0.0077  0.0926 -0.0945
14222W        W29353   0.601   0.625   0.973  0.0071 -0.1442  0.2581
14223W        W29354  12.415  12.745   4.341  0.2483  0.0949  0.0385
14224W        W29355   8.415  17.012   0.990  0.1108  0.1755  0.2205
14225W        W29356  11.113   5.196  13.285 -0.1667  0.0184  0.0673
14226W        W29357  18.031  11.369   5.597  0.0880 -0.0499 -0.0979
14227W        W29358   0.593  18.591  14.372 -0.0313  0.1148 -0.3301
14228W        W29359   0.065   0.031   1.972 -0.1126 -0.3483  0.2664
14229W        W29360   7.891  16.426  11.372 -0.2494 -0.4525  0.1185
14230W        W29361   7.118  18.133  15.619  0.2312 -0.2895 -0.1373
14231W        W29362  10.948  15.037   1.893  0.1980 -0.2511  0.1609
14232W        W29363  17.467  13.272   4.340 -0.1618  0.3318  0.1559
14233W        W29364  12.451  18.657  12.123  0.1647  0.0190  0.1124
14234W        W29365  13.955   3.689   0.094  0.2116  0.2106  0.0480
14235W        W29366   2.201   4.335   0.033 -0.0313 -0.1144  0.2573
14236W        W29367  15.855   8.369   5.540 -0.0228  0.2414  0.3573
14237W        W29368   7.037   1.648  12.671 -0.0089 -0.0770 -0.2818
14238W        W29369  15.113  10.370  15.266  0.0512 -0.0132 -0.4092
14239W        W29370  15.533  14.222  11.332 -0.4542  0.1318 -0.2979
14240W        W29371   1.951  13.218  12.657 -0.1771  0.0178 -0.0056
14241W        W29372  12.457  10.883   4.229 -0.0537  0.0625 -0.0055
14242W        W29373  11.414   6.362   0.101 -0.3458 -0.3010  0.4343
14243W        W29374  12.206   8.127   4.351  0.1685 -0.0539 -0.2550
14244W        W29375   6.511  14.233   1.068  0.0099  0.0593  0.0997
14245W        W29376   6.818   7.706   4.314  0.1696  0.1164 -0.0467
14246W        W29377  16.937   1.788  11.447  0.1523 -0.0476  0.1340
14247W        W29378   6.335   7.818   5.310 -0.0564 -0.3074  0.2851
14248W        W29379  11.138  10.423  13.210 -0.0919  0.0289 -0.2909
14249W        W29380   6.490  14.946   0.883 -0.3159 -0.2007 -0.2405
14250W        W29381  14.077   4.117   5.079 -0.1620 -0.0573  0.2555
14251W        W29382   2.970   6.839  11.669 -0.1576 -0.3254  0.4503
14252W        W29383  13.420   8.789  15.432 -0.0715 -0.2272 -0.0757
14253W        W29384   8.545  12.296   0.861  0.0535  0.1647  0.3266
14254W        W29385   6.756  17.404   1.449  0.5074  0.0104 -0.3811
14255W        W29386  10.511   8.523   3.509 -0.0193 -0.0038 -0.3510
14256W        W29387  15.851   5.291  15.678 -0.0717  0.3893 -0.1752
14257W        W29388   0.011   7.436  11.268 -0.0445 -0.1737 -0.0011
14258W        W29389   4.567  10.103   4.698  0.1187 -0.2162  0.0237
14259W        W29390  10.115  11.177   1.263  0.0931 -0.0719  0.0892
14260W        W29391   9.570   7.103  13.124  0.6717 -0.2505 -0.5185
14261W        W29392  15.066   2.160  11.634  0.1724 -0.0078 -0.1502
14262W        W29393  12.273  17.740  10.512 -0.2055 -0.0508 -0.0269
14263W        W29394  16.085  13.000   4.413  0.2522  0.0091 -0.0982
14264W        W29395  12.367   3.506   1.527 -0.0243 -0.0538  0.1711
14265W        W29396   2.788   6.063  11.756  0.0932 -0.1569  0.4549
14266W        W29397  10.040  12.910   1.075  0.1069  0.2012 -0.0777
14267W        W29398   9.269   1.993   0.692 -0.3380 -0.4172  0.1111
14268W        W29399   5.912  16.298  12.365  0.2200  0.2678  0.1970
14269W        W29400   3.907   4.060   3.109  0.0240  0.3178 -0.2086
14270W        W29401   8.253  18.548   2.188 -0.1495  0.1883  0.0734
14271W        W29402  13.701  10.577   1.042 -0.0069 -0.0023  0.0545
14272W        W29403  17.084  13.449  11.947  0.1793 -0.0261 -0.1033
14273W        W29404  15.100  16.598  14.920 -0.2082  0.1369  0.0224
14274W        W29405   2.316  12.904  14.028  0.1077 -0.1165  0.2869
14275W        W29406   1.823   8.684  11.923  0.2938 -0.0120  0.0748
14276W        W29407  11.467  18.358   0.001 -0.0176  0.0034 -0.0785
14277W        W29408   1.774  16.129   3.004  0.0869 -0.0712 -0.0623
14278W        W29409  16.409   3.656   4.252  0.0453  0.0640 -0.0700
14279W        W29410   8.260   1.893   4.625  0.0022  0.3125  0.0396
14280W        W29411   8.844   1.447   1.898  0.1274 -0.4709 -0.2976
14281W        W29412   1.311  18.694   4.185 -0.0702 -0.2073  0.4121
14282W        W29413  10.869   9.170  13.157 -0.3409 -0.0749  0.0664
14283W        W29414  18.648   5.662   0.653  0.2440  0.4051 -0.2881
14284W        W29415  13.338  17.302   5.395  0.0614 -0.0223  0.1826
14285W        W29416  14.770  18.440   5.733 -0.2788 -0.3454  0.0116
14286W        W29417  12.431   5.981  14.751 -0.3502 -0.1904  0.0109
14287W        W29418  13.524   7.606  10.184 -0.1419 -0.0375  0.1117
14288W        W29419   8.701  11.128   0.728 -0.3942  0.0557  0.0944
14289W        W29420   5.997  16.097   4.038 -0.1283  0.0387 -0.1905
14290W        W29421  12.699   0.345   5.231  0.2719  0.2336 -0.1753
14291W        W29422  15.704  11.962  13.558  0.4530  0.3047 -0.0435
14292W        W29423   1.360   6.758  12.478  0.0881 -0.2447  0.4056
14293W        W29424   2.083   3.157  14.043  0.0621  0.1724 -0.1745
14294W        W29425  15.142   1.818  15.412 -0.0389 -0.1574  0.1003
14295W        W29426  16.012  15.745   3.093 -0.0644  0.0864  0.2408
14296W        W29427   1.576   5.268   0.287 -0.1146 -0.0333 -0.2398
14297W        W29428   6.596  15.408   1.012 -0.0961  0.0157 -0.4132
14298W        W29429  17.700   7.203   2.851 -0.2583 -0.1316  0.2069
14299W        W29430   5.492  12.102   2.521 -0.3977 -0.1281 -0.0455
14300W        W29431   8.886  16.532  14.311 -0.2899 -0.0370 -0.2621
14301W        W29432  15.212   5.386   2.072 -0.0746  0.1331  0.2704
14302W        W29433  13.827   7.237   5.133  0.1127 -0.1652 -0.3731
14303W        W29434  10.024   5.830  10.289 -0.1671 -0.0952  0.0469
14304W        W29435   5.648  11.670   4.776 -0.2446  0.1631 -0.0769
14305W        W29436   2.842   5.402   2.425 -0.5164  0.1808  0.5064
14306W        W29437   7.286   1.873  14.197  0.1671 -0.1883  0.0442
14307W        W29438  14.320  14.878  14.249  0.2018 -0.2395  0.2633
14308W        W29439  13.661  17.029   0.688  0.3430  0.0306  0.0003
14309W        W29440   4.487   3.168  14.213  0.2207  0.2478 -0.3666
14310W        W29441   2.218   5.992   1.615 -0.1244 -0.0125 -0.0953
14311W        W29442   4.489  16.830  12.991  0.0583 -0.1194  0.3713
14312W        W29443  15.125  13.300  14.714  0.1481  0.0134  0.0773
14313W        W29444  13.748   6.530   2.694  0.0082  0.0840 -0.1030
14314W        W29445   2.780  12.760   0.549 -0.2683  0.3682  0.1318
14315W        W29446   9.700  13.023  14.795 -0.1899 -0.2747  0.0737
14316W        W29447   0.466   9.227  11.796  0.0754  0.1258  0.1790
14317W        W29448  10.663  15.599  10.393  0.1959 -0.1847  0.0053
14318W        W29449   0.087  12.342  13.850 -0.0336 -0.0084  0.1964
14319W        W29450   5.585  11.680   3.754  0.1150 -0.1950  0.1024
14320W        W29451   0.581  13.758   3.031  0.1409  0.0419  0.1418
14321W        W29452   1.685   5.996   4.597  0.1301 -0.2014 -0.3281
14322W        W29453  16.030  12.673   3.959  0.1247  0.0544 -0.1571
14323W        W29454  17.586  17.502  14.988  0.0346 -0.3478 -0.0081
14324W        W29455   6.784   4.827  12.535 -0.0894 -0.2642 -0.3906
14325W        W29456  13.822  15.825   4.850 -0.0223  0.1155  0.3729
14326W        W29457  14.792  14.019   0.928  0.2167 -0.1278 -0.1677
14327W        W29458   7.085  10.470   0.884 -0.1210  0.2245 -0.4337
14328W        W29459   4.968  12.801  11.557 -0.1252 -0.0197  0.1229
14329W        W29460  10.785   5.931   3.890 -0.0287 -0.1637 -0.3164
14330W        W29461  10.330   6.338   1.038 -0.1513 -0.0945  0.1788
14331W        W29462  17.883   0.823   0.622  0.1265  0.0709  0.0024
14332W        W29463  13.192  16.645   2.766 -0.0969 -0.2332 -0.1581
14333W        W29464   6.792   6.719   1.514  0.0486  0.4085  0.0478
14334W        W29465   0.510   3.669  12.382  0.1421 -0.2076 -0.1502
14335W        W29466   7.148   6.512  10.889 -0.1996  0.0424  0.1485
14336W        W29467   9.497  12.977  10.898  0.0633 -0.4543 -0.1255
14337W        W29468  14.247   2.220  12.032  0.2743  0.0814 -0.1473
14338W        W29469   1.291   5.281   2.929  0.1187  0.1560  0.0545
14339W        W29470   0.910   9.914  11.409 -0.4465  0.1591 -0.0057
14340W        W29471  13.168  10.083  12.909 -0.0884 -0.1393  0.0210
14341W        W29472  18.596  11.798   0.568 -0.5931  0.1620 -0.1080
14342W        W29473   8.620  18.304   2.579 -0.0464 -0.0418  0.0348
14343W        W29474   4.322  12.161   1.728 -0.1789 -0.2953  0.0852
14344W        W29475   7.935  10.131   4.905  0.1385 -0.3155 -0.1031
14345W        W29476   9.355   1.407   0.741  0.0183 -0.1336 -0.2906
14346W        W29477  13.316  10.608   4.028 -0.5514 -0.2514 -0.1068
14347W        W29478  18.308  15.174   1.547 -0.1053  0.4175 -0.1152
14348W        W29479   5.783  10.502  11.421 -0.1378 -0.1929 -0.1877
14349W        W29480  15.717   1.113  12.961 -0.2823 -0.2676 -0.1437
14350W        W29481   2.557   0.722  13.598  0.0629  0.1475 -0.0272
14351W        W29482   0.202   7.748   2.181 -0.0461 -0.3254 -0.0303
14352W        W29483  18.440   7.417   3.194 -0.0406 -0.1065 -0.3097
14353W        W29484  15.508  12.636  12.244 -0.3774  0.2114  0.2250
14354W        W29485  17.081  18.475   3.360  0.0564 -0.0574  0.3116
14355W        W29486  17.619  17.054  14.517  0.0040  0.4060  0.2937
14356W        W29487   8.777   7.924   1.926 -0.1991  0.1368 -0.0556
14357W        W29488   0.094   4.546  15.046 -0.0863  0.3300  0.0691
14358W        W29489  17.682   1.504  15.131 -0.0680 -0.1282  0.0951
14359W        W29490  17.150  15.465  11.746  0.2263 -0.1033 -0.1186
14360W        W29491  11.081   0.420   1.436 -0.1088  0.3441  0.0198
14361W        W29492  11.058  11.847  14.459 -0.0373  0.2208  0.0529
14362W        W29493  17.427  16.892  11.984  0.0623  0.1974 -0.3194
14363W        W29494  17.649  10.950  11.879  0.0850  0.1266 -0.1412
14364W        W29495   7.501  14.701  10.952 -0.1123  0.0420 -0.3683
14365W        W29496   2.361  16.008  14.127  0.2158 -0.2038  0.0330
14366W        W29497  15.300   4.294  13.475  0.0345  0.2618 -0.3848
14367W        W29498   7.241  12.136   1.229  0.3827 -0.0003  0.1240
14368W        W29499   6.488   5.880   2.883  0.0635 -0.0161  0.1525
14369W        W29500  11.543   4.872  13.599  0.1785  0.0768  0.1173
14370W        W29501   2.926   4.401  12.632  0.1425  0.1312 -0.2800
14371W        W29502   8.429  12.654   4.933 -0.1408 -0.2667 -0.0408
14372W        W29503  16.995   5.290   3.191  0.4314  0.0154  0.1798
14373W        W29504   6.322   4.150  12.501 -0.1106  0.1084 -0.0173
14374W        W29505   3.407   1.806  15.362  0.4121  0.0644 -0.2092
14375W        W29506   6.763  14.266   4.494  0.1474 -0.3717  0.0385
14376W        W29507  10.166  12.034   1.685 -0.0798  0.0333 -0.0303
14377W        W29508   4.094  15.494   1.377  0.1680  0.1066 -0.2511
14378W        W29509   9.986  12.078   0.834  0.2546  0.5792 -0.1292
14379W        W29510  13.782   0.691   2.863 -0.0047  0.0056 -0.3563
14380W        W29511   3.907  15.013   3.205  0.1005 -0.0177  0.0428
14381W        W29512  11.223  16.656   2.743  0.2403  0.1080  0.3023
14382W        W29513   8.696   1.895   0.652  0.0699  0.4036  0.0325
14383W        W29514  15.172   9.226   0.583  0.1268 -0.0748 -0.0425
14384W        W29515   0.069   6.842  11.380  0.2858  0.0972  0.4378
14385W        W29516   3.350  17.754  13.104 -0.2050  0.2300  0.0511
14386W        W29517  18.601  16.124  14.972 -0.2481  0.0492 -0.0731
14387W        W29518  13.732   0.054   3.814 -0.2136  0.2002 -0.2190
14388W        W29519  15.551  17.054  15.624 -0.0324 -0.0259  0.0459
14389W        W29520   7.250   2.351   0.169  0.3546  0.0903 -0.0341
14390W        W29521  17.523  17.626  11.288  0.0068  0.3036  0.0643
14391W        W29522  15.286   0.650   3.765 -0.0911 -0.1017 -0.0631
14392W        W29523   3.821  10.189   0.958 -0.2167 -0.2942  0.2513
14393W        W29524  14.176   0.831   2.234 -0.1297 -0.0850 -0.0058
14394W        W29525  12.056   1.342  15.737  0.3081  0.2268 -0.2005
14395W        W29526  12.572  17.827   4.567  0.5143 -0.0441  0.0045
14396W        W29527   3.501   2.048   2.068  0.0662 -0.0312 -0.1810
14397W        W29528   6.276   9.350  13.270  0.0648 -0.0784 -0.1973
14398W        W29529   2.304   5.543  11.268  0.0966 -0.0009  0.0649
14399W        W29530   6.906   1.944   0.618  0.2132  0.5053 -0.2071
14400W        W29531  15.494   4.532   5.960 -0.0880  0.0859  0.1314
14401W        W29532  13.338  18.581   4.068  0.2018 -0.2974 -0.2269
14402W        W29533   6.513  18.007   4.588  0.0331  0.0172 -0.2324
14403W        W29534   6.033   0.912  15.065  0.1109 -0.0393 -0.0140
14404W        W29535  16.491  13.162   4.127 -0.0579  0.2312  0.2524
14405W        W29536  10.695  12.513  14.962  0.2329 -0.1686 -0.1163
14406W        W29537   5.217  10.802  12.026 -0.0143 -0.3771  0.3916
14407W        W29538   5.257  13.512  11.655  0.3370 -0.4862  0.2069
14408W        W29539   7.894  18.574   1.751  0.3324  0.2897 -0.2209
14409W        W29540   6.238   9.743  11.452  0.0177  0.1651  0.0377
14410W        W29541   4.387  17.431   1.915  0.0028 -0.3589  0.3028
14411W        W29542  17.796   5.428  11.782 -0.0264 -0.4869 -0.3654
14412W        W29543  11.981   5.328   4.091 -0.4276 -0.1109 -0.0054
14413W        W29544   3.042  18.727  14.510 -0.1082  0.1236 -0.0326
14414W        W29545  13.218   0.872  12.284 -0.0605 -0.1824 -0.2791
14415W        W29546  12.511   0.955  14.422  0.2191 -0.1763  0.3788
14416W        W29547  18.056   8.728   2.691  0.2202 -0.2634  0.0514
14417W        W29548   7.329   0.627   3.853  0.0690  0.0503  0.1032
14418W        W29549   8.465  13.134  12.669  0.2925 -0.1568 -0.2507
14419W        W29550  10.291  18.562   2.489 -0.1828 -0.1595 -0.0511
14420W        W29551  15.779  14.709   3.539 -0.2077  0.1297  0.0445
14421W        W29552   0.417  16.433  13.134 -0.0437  0.1315 -0.2593
14422W        W29553  15.455   8.622  11.130 -0.2466  0.1434 -0.4719
14423W        W29554  11.868  12.285   2.310 -0.1387  0.1872 -0.1210
14424W        W29555   2.998   7.660  14.700  0.2271  0.2439 -0.1435
14425W        W29556  18.582   6.745   0.533  0.0483  0.2215  0.0428
14426W        W29557  13.692  15.225  11.327 -0.2085 -0.4134 -0.2926
14427W        W29558  17.595  12.226   5.215  0.2009  0.0412 -0.2748
14428W        W29559  13.341   3.034   2.044  0.1229  0.0032  0.0124
14429W        W29560  16.033  18.291  14.801 -0.0440  0.0038 -0.1044
14430W        W29561   7.317  18.333   3.277  0.0090 -0.0468  0.0909
14431W        W29562   2.079   6.356  10.549  0.0619 -0.1311  0.0402
14432W        W29563   7.803  17.493  14.586  0.0424  0.1198 -0.4280
14433W        W29564  15.123   4.902  10.254  0.2053 -0.2251  0.0166
14434W        W29565  13.120   8.503   1.770 -0.0971 -0.1023  0.3187
14435W        W29566   7.757   1.499  14.849  0.3297  0.2454 -0.2253
14436W        W29567   6.743   8.825  11.894 -0.0906 -0.2178  0.0057
14437W        W29568  16.680   6.878   3.180  0.1719  0.2431  0.0816
14438W        W29569  10.096   6.564  10.659  0.3579  0.1504  0.1059
14439W        W29570   3.421  10.627   0.090 -0.0550  0.0270  0.2914
14440W        W29571   3.780  14.379  13.217  0.0637 -0.1267  0.1057
14441W        W29572   0.554  15.203   4.570 -0.1197  0.2217  0.3239
14442W        W29573  15.964   7.966   1.860 -0.0248 -0.3780  0.3215
14443W        W29574  12.520   2.176  12.088  0.1486  0.1050 -0.2717
14444W        W29575   1.056   1.267  13.206  0.0393 -0.0826 -0.2134
14445W        W29576  10.110  14.192  13.339  0.5129  0.1538 -0.0637
14446W        W29577  13.565  10.966  13.159 -0.1281 -0.0953  0.0650
14447W        W29578   3.649   9.356   0.296 -0.1154 -0.1093  0.1863
14448W        W29579  15.473  18.266  10.322 -0.2177 -0.2688  0.0934
14449W        W29580  11.090   7.954  10.911  0.2346  0.0335 -0.0251
14450W        W29581   8.610  17.692  11.407  0.1579  0.0985 -0.0468
14451W        W29582   2.229   0.878  11.445 -0.1062 -0.0835  0.1333
14452W        W29583   5.674   3.996  11.994  0.0105  0.4120  0.1296
14453W        W29584   8.325   0.327   2.982  0.0298  0.0337  0.0750
14454W        W29585  11.798  14.820  14.254  0.2063  0.1440  0.0314
14455W        W29586   6.241   0.141   4.182 -0.3691 -0.1596 -0.2560
14456W        W29587  16.557  17.767   0.685 -0.0194  0.1308 -0.0424
14457W        W29588   3.810   6.654  14.976  0.2141 -0.0527  0.1291
14458W        W29589  12.549  11.869  14.191 -0.1906  0.0532 -0.0669
14459W        W29590   4.949  11.593   4.568  0.0362 -0.1042  0.0716
14460W        W29591   0.732  16.139   0.472 -0.2321  0.0086  0.0458
14461W        W29592  15.104   0.404  11.868 -0.0573 -0.1306 -0.0115
14462W        W29593   9.549   8.606   2.208  0.0465  0.1386  0.0329
14463W        W29594   1.343  14.305   4.076  0.0916 -0.1885 -0.1034
14464W        W29595   1.622   6.765  13.016 -0.2305  0.3382  0.0895
14465W        W29596   8.892  18.685  13.744  0.0081  0.0491 -0.1049
14466W        W29597  11.118   8.972   0.679  0.1132  0.0489 -0.1048
14467W        W29598   1.600   4.974   1.030 -0.2836 -0.1047  0.0316
14468W        W29599   0.757  13.383  13.109  0.0658 -0.0806  0.0410
14469W        W29600   2.947  10.694  14.525 -0.0472  0.0704  0.1189
14470W        W29601  11.976  17.998   2.409 -0.1024 -0.0084  0.0508
14471W        W29602   7.158   8.528   5.429  0.1212  0.3112  0.1618
14472W        W29603   8.093  12.501  15.249 -0.2147  0.1838 -0.1249
14473W        W29604  14.992  17.207  13.651  0.4149 -0.0715 -0.3516
14474W        W29605  12.935   1.936  14.868 -0.3671  0.1258 -0.3044
14475W        W29606  14.383   8.751  10.795  0.1249  0.2286 -0.2825
14476W        W29607   6.723   2.911   3.577 -0.0645 -0.0358 -0.0382
14477W        W29608  10.214   2.496  15.113  0.0251 -0.1397  0.0690
14478W        W29609   3.023   9.998   3.762 -0.1542  0.0584 -0.2038
14479W        W29610  16.226  16.130   1.110  0.0136  0.0453  0.0489
14480W        W29611   5.952   6.201   5.175  0.0883  0.0074 -0.0253
14481W        W29612   2.907   3.834   6.075 -0.4680 -0.3377 -0.0200
14482W        W29613  13.109   7.303  11.311 -0.0146 -0.2750 -0.2019
14483W        W29614  13.303  14.430  12.662  0.2079 -0.0006 -0.1210
14484W        W29615   3.939  11.626  10.811 -0.0787  0.3173 -0.0986
14485W        W29616  14.471   4.530  11.597  0.0390 -0.0786  0.2301
14486W        W29617   8.907  11.020   2.008 -0.0038 -0.0357 -0.1956
14487W        W29618  17.973   9.168   3.041 -0.0708  0.0729  0.0161
14488W        W29619  10.466   8.213  14.409 -0.1376 -0.0515  0.3264
14489W        W29620   4.824  10.954   0.762 -0.1107  0.1199 -0.1479
14490W        W29621  10.901  13.865  11.470  0.0013  0.0607 -0.2250
14491W        W29622  13.141  18.093  14.716  0.0792  0.0837  0.2295
14492W        W29623  14.498  10.437   3.814 -0.5323 -0.2951  0.3357
14493W        W29624   8.747   3.107   4.904  0.2691 -0.0502  0.0954
14494W        W29625   8.294  15.415  11.841 -0.1590 -0.3188 -0.0256
14495W        W29626  12.509  17.819  12.123 -0.3125  0.2014 -0.2842
14496W        W29627   9.801   0.743  13.765 -0.1565  0.1357  0.0023
14497W        W29628  13.898   2.155  12.554 -0.2655  0.1925  0.1063
14498W        W29629   1.596   5.640  12.216  0.1959  0.0272  0.2383
14499W        W29630  12.364  14.386   2.234 -0.0141 -0.4133  0.0457
14500W        W29631   6.469  18.516   2.952  0.1725  0.0240  0.1020
14501W        W29632  15.974  18.377   5.138 -0.0105 -0.3988  0.1118
14502W        W29633   0.308  11.427  15.545 -0.2678  0.0880 -0.4588
14503W        W29634  16.078   4.532   3.786 -0.0126 -0.0687  0.3109
14504W        W29635  13.022  15.661  11.404  0.0748  0.1075 -0.0927
14505W        W29636   9.909   1.533  15.473  0.3011  0.0257  0.3241
14506W        W29637  18.549  17.409  14.913 -0.1835  0.4033 -0.2561
14507W        W29638   7.116  18.568  15.426  0.2692 -0.2559  0.3732
14508W        W29639   4.971   2.314   1.571 -0.0951 -0.1342  0.2963
14509W        W29640   4.298  15.778   1.039  0.1750 -0.3401  0.0526
14510W        W29641   2.214   6.701  14.715  0.1065  0.3857 -0.0311
14511W        W29642  14.565  13.146  14.041  0.2974  0.0495  0.3415
14512W        W29643   7.916  10.182  15.351 -0.0525  0.1228 -0.0459
14513W        W29644  18.609   7.956  14.753 -0.0166  0.3295  0.1487
14514W        W29645  10.364  18.076  13.680  0.0393  0.1730  0.2183
14515W        W29646  12.601  18.111   3.021 -0.0416 -0.0529  0.0141
14516W        W29647  11.052  15.799  11.378  0.1685  0.0128 -0.0027
14517W        W29648  14.337  16.516   4.384 -0.0092 -0.0219 -0.1050
14518W        W29649   9.724   3.830  11.308  0.3545 -0.1145  0.2540
14519W        W29650  13.681  13.926   4.517 -0.0895  0.2232 -0.0425
14520W        W29651   5.482  14.867   5.319 -0.0879  0.4207  0.0874
14521W        W29652   2.712   6.222  12.258 -0.3473 -0.1041  0.0332
14522W        W29653  17.835  12.852   1.126  0.3478  0.0933  0.3242
14523W        W29654  17.813  15.424   3.770  0.4912 -0.0340  0.0256
14524W        W29655   3.608  16.931  10.544 -0.1129  0.0046  0.0464
14525W        W29656   2.590  15.210  14.803  0.1035 -0.0508  0.0874
14526W        W29657   9.802   3.011  13.831 -0.3246  0.2707 -0.2947
14527W        W29658   7.458   9.878  15.123  0.0896  0.0277  0.2201
14528W        W29659  12.779  13.524  11.100  0.1015 -0.2718 -0.1845
14529W        W29660  12.488   7.383  13.335  0.0866  0.2973  0.3204
14530W        W29661  16.225   4.647  11.158 -0.3541 -0.0559 -0.1383
14531W        W29662  14.608   4.417  15.582  0.0917  0.0402 -0.0282
14532W        W29663   0.516   1.907  10.221 -0.0407 -0.1711  0.1875
14533W        W29664   0.071   0.830   5.430 -0.1153 -0.0660  0.0775
14534W        W29665  16.826  18.071  14.418 -0.1039 -0.1133 -0.2790
14535W        W29666   7.850   7.113  10.681 -0.1828  0.2120 -0.0232
14536W        W29667  11.542  16.608   0.044  0.1783 -0.0667  0.0532
14537W        W29668  13.272   0.265  13.838  0.0420  0.2414  0.0312
14538W        W29669   9.585   4.720  10.137 -0.1078  0.1218 -0.1315
14539W        W29670  13.719  12.088   2.405  0.0287  0.0649 -0.3683
14540W        W29671  15.722  12.895  11.460 -0.0826 -0.1397  0.1612
14541W        W29672  16.432  14.903   1.323 -0.0088 -0.1188 -0.3522
14542W        W29673   1.201  17.643   3.272  0.1979  0.0357  0.2139
14543W        W29674   4.442  16.293   5.679 -0.1006 -0.1154 -0.3630
14544W        W29675  16.337  15.510   0.021  0.0950 -0.0811  0.2525
14545W        W29676   7.927   2.454  12.205 -0.0149  0.1748 -0.1013
14546W        W29677  14.412  14.230   0.728 -0.2056  0.4527  0.5039
14547W        W29678   5.317   3.232  12.761 -0.0586 -0.0284  0.1454
14548W        W29679  15.989  17.124   3.289 -0.2001  0.0433  0.1205
14549W        W29680   7.760  15.949  12.315  0.0335 -0.0342 -0.1585
14550W        W29681  13.871  12.057   0.997 -0.0592  0.0655 -0.0158
14551W        W29682   2.655  12.915   2.078 -0.0374  0.3307  0.0164
14552W        W29683  11.719   2.354  13.373 -0.0973  0.3128 -0.1235
14553W        W29684  11.969   4.147   4.253 -0.5603 -0.2561 -0.1344
14554W        W29685  18.446   4.699   2.698  0.0059  0.1664  0.0343
14555W        W29686   0.662  18.475  11.597 -0.1530 -0.2210  0.3850
14556W        W29687  12.573   5.072  15.477 -0.2551  0.3381 -0.0765
14557W        W29688   8.449   7.737   4.464 -0.1889 -0.2812  0.3108
14558W        W29689   2.428   8.246   2.973 -0.2926 -0.0812  0.2528
14559W        W29690  16.426   0.160   4.012  0.3349  0.0193  0.1383
14560W        W29691  18.234  11.104  13.384 -0.2792  0.3012  0.0870
14561W        W29692   0.086  15.148  12.446  0.0299  0.3007  0.0270
14562W        W29693   6.661   8.418   0.130 -0.2459 -0.0479  0.1122
14563W        W29694  14.725   6.222  13.444  0.0923  0.0416  0.0265
14564W        W29695   4.433  11.413   4.888  0.1932 -0.0786 -0.0282
14565W        W29696   7.482  17.238   4.810 -0.1803  0.0798  0.1133
14566W        W29697   1.531  10.978   0.766  0.0258 -0.1125 -0.0191
14567W        W29698  13.330   6.401  14.652 -0.1639 -0.1129 -0.0378
14568W        W29699   8.116  18.122   1.735  0.1152  0.0174 -0.1069
14569W        W29700   8.280  15.800  12.241  0.1527 -0.3917 -0.0434
14570W        W29701  15.154   0.634   5.214 -0.4648  0.1340 -0.2503
14571W        W29702   6.772   7.755  11.365 -0.1951  0.1386  0.0075
14572W        W29703   5.656  14.829   0.511  0.1407 -0.2210  0.0221
14573W        W29704  13.968   7.935  15.331  0.0023 -0.0796 -0.0801
14574W        W29705   9.757   8.251   1.699 -0.0260  0.2881  0.1908
14575W        W29706   8.402  12.750   5.437 -0.1479  0.0263 -0.2371
14576W        W29707  13.906  10.146   2.317 -0.2831  0.1043 -0.2002
14577W        W29708   9.122   1.151   3.049  0.4988 -0.0687  0.1912
14578W        W29709  11.874   3.947   0.873 -0.2284  0.0770  0.0247
14579W        W29710   0.375  12.621  14.740  0.0415  0.2722 -0.0827
14580W        W29711  12.328  10.856  10.545 -0.0045 -0.0748  0.1208
14581W        W29712   5.570   5.385  10.670 -0.1634  0.2476 -0.3837
14582W        W29713   3.110  14.850  14.001  0.0082 -0.0115 -0.0060
14583W        W29714  17.692   7.775  14.395 -0.0269  0.3494 -0.0631
14584W        W29715   0.551  10.257  11.301  0.0604 -0.0476  0.0317
14585W        W29716  12.038   1.963   1.470 -0.2690  0.1276 -0.1847
14586W        W29717  18.548  14.643   4.937  0.0837  0.1791  0.2084
14587W        W29718   9.215  16.637   0.902  0.0082 -0.0769  0.0308
14588W        W29719  12.236   1.437  13.260  0.2543 -0.2646 -0.0078
14589W        W29720   4.044   0.563   2.187 -0.0252  0.3241  0.2207
14590W        W29721   7.281   2.457   4.792 -0.0173 -0.1412  0.4048
14591W        W29722   0.115  15.546  13.429  0.1228  0.1057  0.1409
14592W        W29723  14.925  17.951   0.941  0.0371  0.0962  0.1484
14593W        W29724   4.569   1.598   3.255 -0.1010  0.0610  0.2966
14594W        W29725  14.361   8.196   4.605 -0.0987  0.2236  0.1597
14595W        W29726   2.757   1.082  12.981  0.2404 -0.0095  0.0187
14596W        W29727   6.563   7.085  11.972  0.2558 -0.3357 -0.0608
14597W        W29728   0.464   9.996  15.531 -0.1412  0.0235 -0.0480
14598W        W29729   0.922   4.734  13.439  0.2937  0.1636  0.0689
14599W        W29730  14.125  10.449   1.985 -0.4404 -0.2736 -0.0943
14600W        W29731   1.065   6.712   2.018 -0.1151  0.0455 -0.0755
14601W        W29732   8.370   2.357  15.798 -0.0569 -0.0686  0.0352
14602W        W29733   1.490  10.941   2.137 -0.0438 -0.1733 -0.1404
14603W        W29734  17.340  15.089   6.289 -0.1597  0.1517  0.0055
14604W        W29735   7.052   2.183  11.269  0.3161 -0.0257 -0.1409
14605W        W29736   2.100   9.006   2.987 -0.0164 -0.2226  0.1423
14606W        W29737   0.177   2.951  12.904 -0.0682 -0.2039 -0.0162
14607W        W29738  12.587   0.874  10.908  0.0550  0.3122  0.0079
14608W        W29739   7.705   6.636   5.081 -0.2723 -0.0838  0.0784
14609W        W29740  11.945  15.071   0.844 -0.2248 -0.4609 -0.1409
14610W        W29741  15.031  16.379  11.413 -0.1587 -0.1183  0.2729
14611W        W29742  11.791   9.894  13.846  0.1342  0.0958  0.1635
14612W        W29743   7.337  10.274  13.801 -0.0790  0.0634 -0.0019
14613W        W29744   0.448   2.465   4.228 -0.1209 -0.0344 -0.2291
14614W        W29745   2.256  11.568   2.131  0.2406  0.3051  0.2922
14615W        W29746  11.177  11.252   2.992  0.1566 -0.0249  0.2355
14616W        W29747  16.735   6.758  12.159  0.2358 -0.0425 -0.1966
14617W        W29748  17.197   6.004   4.806 -0.5404 -0.0418 -0.1228
14618W        W29749   8.272   9.754  14.621  0.2038  0.3230  0.5426
14619W        W29750  14.006  17.016  14.189 -0.2876  0.3161 -0.3678
14620W        W29751   0.091   9.058   3.238 -0.0492 -0.0343 -0.3469
14621W        W29752  17.782  13.854   5.751  0.2506 -0.0739 -0.1476
14622W        W29753   4.873   3.214  13.843  0.0458  0.0438  0.0102
14623W        W29754  10.124  12.095  14.149 -0.4244  0.0085 -0.4235
14624W        W29755  13.856  12.617  14.168  0.3935  0.0274  0.2049
14625W        W29756  13.195  13.036  14.436 -0.0180  0.2219  0.0575
14626W        W29757   8.139  12.524   3.074 -0.2919 -0.0136 -0.0843
14627W        W29758  13.181   4.722  11.964 -0.1112 -0.1975 -0.0400
14628W        W29759   5.038   7.443   4.542  0.1873 -0.1187  0.2888
14629W        W29760  10.913   0.780   0.107  0.0034 -0.3510  0.2550
14630W        W29761  11.192   7.952  13.405 -0.0124  0.3007 -0.2531
14631W        W29762   9.135  11.652  12.360  0.0671 -0.0051  0.2400
14632W        W29763   9.995   0.720  10.759  0.0698 -0.1457 -0.0184
14633W        W29764  15.803  11.954   2.030  0.2343 -0.0016 -0.1027
14634W        W29765   2.676   0.335  11.215  0.1101  0.2119  0.0365
14635W        W29766  15.178   5.596   0.981 -0.0212  0.3671 -0.2583
14636W        W29767  12.775  16.350   2.799 -0.2552  0.0092 -0.0342
14637W        W29768  13.514   9.496  11.756 -0.2045  0.3331  0.1918
14638W        W29769   1.849  14.881   3.259 -0.2116  0.1004 -0.0248
14639W        W29770   4.730   4.725   1.721 -0.1198 -0.1211  0.0974
14640W        W29771  12.152   8.094   9.983  0.3493 -0.1430  0.3005
14641W        W29772   5.936   2.807   6.347  0.1352  0.0080  0.2149
14642W        W29773  17.743   1.346   3.021 -0.1033  0.1480  0.1790
14643W        W29774   4.096  13.198  14.617  0.3153 -0.4186  0.1490
14644W        W29775   3.729  12.636  11.274  0.0485 -0.1559  0.2709
14645W        W29776  15.888   4.890  11.378  0.1569  0.0497 -0.0304
14646W        W29777   3.350  18.491  12.633  0.0084 -0.1281  0.2487
14647W        W29778   4.752   6.558   1.447 -0.3793 -0.0533  0.0910
14648W        W29779   3.477   0.097   2.614 -0.4417 -0.0252 -0.1409
14649W        W29780  10.232   4.648   2.935  0.1418 -0.4614 -0.0561
14650W        W29781  10.993  11.904  10.870 -0.2196 -0.1523 -0.2662
14651W        W29782   6.722   8.706  11.379 -0.1255  0.2228 -0.0506
14652W        W29783  14.675   9.882  12.218  0.1508  0.1530 -0.0975
14653W        W29784   8.475  13.595  14.662  0.1283  0.0452 -0.2773
14654W        W29785   0.496  11.550   2.387 -0.0848  0.1093 -0.5074
14655W        W29786  11.267   7.670  15.618  0.0500 -0.2386  0.3602
14656W        W29787   6.265   5.107   0.363  0.1114  0.1953  0.1863
14657W        W29788   8.132   7.343   4.328 -0.1357  0.2315  0.2519
14658W        W29789   6.468   5.051   4.827  0.0227 -0.1198  0.1303
14659W        W29790   3.267   1.374   4.515 -0.0734 -0.0555  0.2816
14660W        W29791   6.427  17.386   5.840  0.2318 -0.0101 -0.3111
14661W        W29792  18.706  15.318   5.729  0.3078 -0.6473  0.3635
14662W        W29793  14.151  16.532  15.133 -0.1397 -0.0481  0.0112
14663W        W29794   7.649  12.378  15.787 -0.3339  0.2671  0.0109
14664W        W29795   5.275  16.004  15.794  0.1676  0.0258 -0.1128
14665W        W29796  11.115  15.143   4.366 -0.1019 -0.1319 -0.0995
14666W        W29797   8.231   9.455   0.731  0.4021 -0.0163 -0.1227
14667W        W29798  11.175  18.320   0.434  0.1871  0.0420  0.0242
14668W        W29799  13.638   1.625  14.984 -0.2779  0.0041  0.2264
14669W        W29800   4.442   7.760  12.016  0.1790  0.2259  0.3858
14670W        W29801   4.715   3.069   0.932  0.1452 -0.0900  0.3531
14671W        W29802   0.800  14.137   2.696  0.0066  0.0616 -0.1674
14672W        W29803   1.788   7.583  15.122  0.0747  0.0000 -0.2067
14673W        W29804  13.667  10.257   1.852  0.0998 -0.4235  0.0903
14674W        W29805  13.860  16.515   4.258  0.2190 -0.1975 -0.2064
14675W        W29806   4.913   7.518  13.251  0.0503 -0.1879  0.0394
14676W        W29807   7.243   0.971   5.135  0.2886 -0.1796  0.3484
14677W        W29808  12.197  18.655   2.220  0.0497 -0.2959  0.0609
14678W        W29809  10.748  11.938  14.857  0.3428  0.0928 -0.2248
14679W        W29810  11.890  14.688  14.736 -0.2524  0.2506 -0.1085
14680W        W29811  15.917   5.595  14.667  0.1339  0.0146 -0.2122
14681W        W29812   7.449  16.670  11.654  0.1542  0.2938  0.1819
14682W        W29813  10.061   4.053  14.792  0.0651 -0.2266 -0.1939
14683W        W29814  18.047  14.888   1.893  0.1588 -0.0016 -0.0871
14684W        W29815   7.654   2.022  12.475 -0.0060  0.0123 -0.2529
14685W        W29816   4.356   9.808   1.652 -0.1726  0.4028 -0.2313
14686W        W29817   0.417   8.011   4.180  0.2155  0.5336 -0.0339
14687W        W29818  15.801  11.473   3.168 -0.0292  0.3139 -0.0560
14688W        W29819  10.357  14.845  11.719 -0.2081 -0.0497 -0.0537
14689W        W29820   7.743   2.946   1.354 -0.1729  0.1387 -0.0961
14690W        W29821  13.638  18.203   2.021  0.0134 -0.0674 -0.0298
14691W        W29822   6.013  11.390   4.530  0.1426  0.2490 -0.0949
14692W        W29823   5.268   1.173  13.935  0.1172  0.1809 -0.1792
14693W        W29824   2.859   2.951  13.456 -0.3460  0.2230  0.2676
14694W        W29825   2.804  12.971  11.759 -0.0944 -0.1072  0.1272
14695W        W29826  18.337  13.515  13.099 -0.1008  0.3125  0.2072
14696W        W29827  17.310  13.280  12.355  0.1323  0.1403 -0.0243
14697W        W29828   9.268   1.224   1.990 -0.0411 -0.2060  0.0800
14698W        W29829   7.278   1.482  13.622 -0.0913  0.2444  0.2303
14699W        W29830  12.771  16.077   4.239  0.2706  0.1113  0.0005
14700W        W29831  12.029  15.634   2.112  0.1732  0.0252 -0.3304
14701W        W29832  15.486   0.087  12.068  0.0386 -0.0151 -0.2226
14702W        W29833  15.302   5.807  15.136  0.1894 -0.0698  0.1251
14703W        W29834  15.089  10.358   4.412 -0.1366 -0.1879  0.2024
14704W        W29835  16.342  18.539   4.622 -0.0441  0.0083 -0.1311
14705W        W29836   0.260   6.314   1.793  0.0615  0.2655  0.0841
14706W        W29837  10.044  11.956  15.407 -0.0006 -0.0496  0.0138
14707W        W29838  11.619  17.044   0.325 -0.2460 -0.4777  0.0498
14708W        W29839   9.862  11.430  13.913  0.0342 -0.1292 -0.1028
14709W        W29840   1.132   3.443   3.157  0.0078  0.0984  0.0236
14710W        W29841   1.979   2.707  11.461  0.1334 -0.3975  0.1154
14711W        W29842  11.529  14.853   0.460  0.0683  0.0816  0.0109
14712W        W29843   8.791   5.704  15.190 -0.0066 -0.1926 -0.0062
14713W        W29844   9.681   2.511   5.361  0.1144 -0.1619  0.2774
14714W        W29845  10.618  17.673   2.451  0.0809 -0.3882  0.0053
14715W        W29846   3.559   9.450   2.356 -0.3230 -0.1378 -0.0617
14716W        W29847  12.777  18.251  14.434 -0.3090  0.3295 -0.0818
14717W        W29848  10.844   0.175   1.784 -0.2711 -0.2035 -0.0741
14718W        W29849  17.640   7.646   1.608 -0.0614 -0.2261  0.1931
14719W        W29850   5.438  16.665   0.685  0.0921  0.1452  0.4549
14720W        W29851   3.972   0.552   4.415  0.0145  0.1420 -0.0792
14721W        W29852   8.693  16.041   2.015 -0.0397  0.0404  0.0428
14722W        W29853  10.411   5.790  12.252  0.2792 -0.0040 -0.0117
14723W        W29854  14.820  14.109   0.417 -0.0094  0.2613 -0.1156
14724W        W29855   2.983   3.905  11.968  0.0412 -0.2721 -0.2604
14725W        W29856   3.153   7.640   1.352  0.0232 -0.0111 -0.0627
14726W        W29857   2.037   3.308  14.969 -0.0277 -0.0414 -0.1783
14727W        W29858  12.943   8.904  14.247  0.0439 -0.1566 -0.0450
14728W        W29859  18.069  18.043   2.751 -0.0436 -0.1919  0.0073
14729W        W29860   2.548   4.160  11.425  0.1031 -0.0404  0.1949
14730W        W29861  17.906   1.852  15.467  0.1347  0.2098 -0.1353
14731W        W29862  12.844   4.746  13.807 -0.0909  0.0526  0.2079
14732W        W29863   3.800  10.333  12.054  0.0111  0.4317 -0.0737
14733W        W29864   1.995  12.854   6.519  0.0992  0.3070 -0.2004
14734W        W29865   6.168   5.339  14.691 -0.0077  0.0538 -0.0430
14735W        W29866  17.664   3.754   0.950 -0.1271 -0.1141  0.1026
14736W        W29867   4.692  12.007   5.796  0.0532 -0.1622 -0.2999
14737W        W29868   7.768   7.630   5.294 -0.0662 -0.3076  0.1125
14738W        W29869   2.656   4.062   0.308 -0.1096 -0.1420 -0.3024
14739W        W29870  14.545   7.811  12.885  0.3680  0.0884  0.0893
14740W        W29871   3.657   3.578   5.270 -0.0136 -0.1265 -0.3205
14741W        W29872   9.620   1.364   3.825  0.1871  0.0488 -0.0783
14742W        W29873  17.330   7.116   5.378 -0.1257  0.0414 -0.1106
14743W        W29874   4.048   3.163  15.561  0.1106  0.2262 -0.1293
14744W        W29875   1.756   3.758  15.186 -0.0268  0.0880 -0.0820
14745W        W29876  16.311   6.445  11.032 -0.2180 -0.1695  0.0177
14746W        W29877  11.169   4.082   0.692 -0.0829  0.0073 -0.2245
14747W        W29878   2.319  13.804   3.396 -0.1040 -0.0114  0.0792
14748W        W29879   9.244   6.678  12.142  0.2602  0.0041 -0.2040
14749W        W29880  13.607  11.270   5.155  0.2360  0.0273 -0.1880
14750W        W29881   3.060  16.504   2.459  0.0267  0.0206 -0.1679
14751W        W29882   8.970   2.082  12.587 -0.1891  0.2256 -0.3373
14752W        W29883  17.778  17.620   1.510  0.0109 -0.0166  0.3503
14753W        W29884  13.297   3.757   4.681  0.1475  0.1083 -0.0917
14754W        W29885   5.583  15.068   4.560  0.0272  0.0928  0.1964
14755W        W29886  13.747  14.665  12.652  0.0962 -0.0623 -0.3011
14756W        W29887  14.140   3.924  11.546  0.0624  0.0190 -0.1622
14757W        W29888   2.133  10.022   3.321 -0.0596 -0.2937 -0.0316
14758W        W29889   3.219  10.760  12.800  0.2276  0.0961 -0.0665
14759W        W29890   8.992   3.328   0.572  0.1405 -0.0631  0.2172
14760W        W29891  13.804   0.045  11.876 -0.3507 -0.3202  0.2772
14761W        W29892   8.073  10.921   4.429  0.0125 -0.0289 -0.1366
14762W        W29893  16.618   2.274  11.873  0.0542  0.0736 -0.0609
14763W        W29894  14.102   4.167   0.158 -0.4000 -0.0087 -0.0034
14764W        W29895   5.783   9.880  10.269 -0.1461  0.2576 -0.3173
14765W        W29896   3.377   8.237  11.586  0.0468 -0.0772  0.3171
14766W        W29897   7.001  14.217  12.369 -0.0306  0.0872 -0.1363
14767W        W29898  18.105  18.468  14.081 -0.4299 -0.0296  0.0574
14768W        W29899   5.759  18.645   5.076 -0.0527  0.0502  0.2681
14769W        W29900   1.262  16.133   0.365  0.1282  0.2419  0.0104
14770W        W29901   9.413   6.159  11.427 -0.1929 -0.2219 -0.1779
14771W        W29902  13.503   8.966  14.936 -0.2658 -0.0897  0.0059
14772W        W29903  14.394   2.590  14.450  0.2008 -0.2791  0.2398
14773W        W29904   3.263   3.364   1.260  0.2127  0.1158  0.3200
14774W        W29905   8.467   6.715  14.476  0.0538  0.0238 -0.1633
14775W        W29906  12.224  17.047  10.229 -0.0762 -0.0067 -0.1093
14776W        W29907  14.751  10.215   5.572 -0.0330 -0.0448  0.2202
14777W        W29908  18.101   4.088  10.304 -0.3445  0.1395 -0.1303
14778W        W29909   1.697   3.880   0.238 -0.1628 -0.2528  0.0213
14779W        W29910   0.990  11.532   4.415 -0.0300 -0.0684 -0.1744
14780W        W29911   7.174   9.314   4.525  0.2234 -0.1069 -0.1807
14781W        W29912   0.574  10.376  10.828 -0.1357 -0.0892 -0.0910
14782W        W29913   0.652  11.840   1.717  0.0816 -0.0032  0.3637
14783W        W29914   7.555  11.985  12.406 -0.0733  0.2146  0.0404
14784W        W29915  17.780  13.100   1.637  0.0628  0.0555  0.1407
14785W        W29916   1.709   2.342  11.300 -0.1819 -0.1085  0.2963
14786W        W29917   6.908  13.851   4.711 -0.0536 -0.0912 -0.0677
14787W        W29918  10.456  17.497  12.728 -0.0709  0.1745 -0.0771
14788W        W29919   3.029   5.150  14.111  0.2925 -0.1901  0.0124
14789W        W29920  16.384  11.583   4.009  0.2295 -0.3311 -0.2028
14790W        W29921   2.594  13.561   3.700 -0.2330  0.0936  0.1448
14791W        W29922   6.061  10.157   1.911  0.1955  0.1642 -0.0786
14792W        W29923  11.142  13.471  11.544 -0.1649 -0.0405 -0.0964
14793W        W29924  13.202   3.830   5.246 -0.1376 -0.1079  0.1400
14794W        W29925  16.225  14.933  13.466 -0.3905  0.0413 -0.2295
14795W        W29926   1.710  12.373  11.870 -0.1998  0.1845  0.2053
14796W        W29927  18.371  11.678  12.140  0.0342 -0.2621 -0.0478
14797W        W29928  18.501   1.523   0.685 -0.1005 -0.0735 -0.3145
14798W        W29929  14.822   2.436   9.800 -0.2205 -0.3675 -0.0953
14799W        W29930   1.555   9.003  12.996 -0.1247  0.0143 -0.4996
14800W        W29931  14.068   2.057  13.853  0.3961 -0.1503  0.1058
14801W        W29932   7.141   6.612   5.707  0.0017 -0.0130  0.0367
14802W        W29933   2.517   2.900   3.353  0.0810  0.0015  0.4390
14803W        W29934  12.266   3.200   3.159 -0.0998  0.0589  0.0616
14804W        W29935  18.562  14.850  11.149 -0.3264 -0.0794  0.0667
14805W        W29936   1.197  11.025   5.175  0.1666 -0.0871  0.1324
14806W        W29937  16.323   5.049  11.573 -0.0332  0.1114 -0.4036
14807W        W29938   4.276   7.904   0.097  0.0238  0.2030 -0.0654
14808W        W29939   7.968   2.300   5.937 -0.0502 -0.4668 -0.1842
14809W        W29940   3.163   8.255  15.753 -0.0581 -0.0599  0.2069
14810W        W29941  15.859   1.487   2.551  0.2012 -0.3757  0.0321
14811W        W29942  17.493   1.192   3.811 -0.0641  0.0035  0.3893
14812W        W29943   5.200  14.921   3.705 -0.1977 -0.1309 -0.1525
14813W        W29944   1.266  14.340  15.386 -0.1302  0.1926 -0.3823
14814W        W29945   9.501  12.653  15.752 -0.0019 -0.0067  0.0488
14815W        W29946  14.004  11.555   3.342 -0.0124  0.1938  0.3206
14816W        W29947   0.267  17.993  12.637  0.1469  0.0320 -0.0747
14817W        W29948   1.211   9.754   4.599 -0.1037 -0.2236 -0.1358
14818W        W29949   1.707   6.231   0.651  0.0172  0.5649 -0.2541
14819W        W29950   4.726   1.088  11.409 -0.2570  0.0201 -0.3334
14820W        W29951   1.945  11.252   3.580 -0.1038  0.0986  0.3784
14821W        W29952   1.985   4.655  13.057 -0.0368  0.1006  0.0309
14822W        W29953   5.721   4.299   4.885 -0.0929  0.1933  0.0174
14823W        W29954   9.864   5.514  13.915  0.3509 -0.0196 -0.0263
14824W        W29955  16.190   8.861  11.514 -0.2687  0.0995  0.0479
14825W        W29956   4.923   2.335   3.813  0.0111 -0.1291  0.1948
14826W        W29957   0.357   5.718   3.722  0.1648  0.2483  0.0108
14827W        W29958   8.100  13.313   9.572 -0.0113 -0.2611 -0.1352
14828W        W29959  10.246  11.613   3.186  0.0348  0.0493  0.1382
14829W        W29960  10.985  13.703  10.013 -0.4697  0.0817  0.0351
14830W        W29961   0.569   8.357  15.441  0.0633  0.0792 -0.0144
14831W        W29962  14.746  13.033   4.368 -0.2223  0.1844 -0.1124
14832W        W29963   8.698   7.050  12.997  0.0509  0.3177 -0.2264
14833W        W29964  15.743   3.886  14.114  0.4344 -0.0107 -0.2366
14834W        W29965  13.747  15.330   3.071  0.1925  0.1313 -0.1582
14835W        W29966   7.505  17.894  12.959 -0.1014  0.0721 -0.3245
14836W        W29967   1.281  18.026  15.071 -0.1003  0.0883  0.0536
14837W        W29968   4.102  18.650  14.078 -0.1044  0.2128  0.2271
14838W        W29969   6.360  11.784   2.446  0.1578  0.0087  0.0782
14839W        W29970   1.717  14.815   0.333 -0.1983  0.1556 -0.1898
14840W        W29971  11.833   0.670  11.080  0.2583 -0.0403 -0.0981
14841W        W29972   1.122   3.750   5.050  0.1339  0.0184  0.0027
14842W        W29973   4.680   0.815   1.152 -0.2159  0.1495  0.2222
14843W        W29974  16.011   5.814   0.552 -0.4713  0.0707 -0.2783
14844W        W29975   2.889  10.472  11.428  0.2025 -0.1480  0.1163
14845W        W29976   0.144  12.070   2.793  0.1317 -0.0521  0.3245
14846W        W29977   3.568   8.806   1.914  0.1105 -0.1754  0.0237
14847W        W29978  11.492  10.839   1.624  0.2741 -0.3078 -0.2170
14848W        W29979   9.856   0.197  11.491  0.1081  0.0898  0.1083
14849W        W29980  12.499  17.240   2.835 -0.1040 -0.1690 -0.1126
14850W        W29981   9.489  17.618  13.556 -0.3901 -0.0662 -0.1256
14851W        W29982   2.377   8.079  11.774 -0.1930  0.2155  0.0085
14852W        W29983   8.090   7.754  10.244  0.4026  0.1412 -0.1053
14853W        W29984   0.982  16.765   4.937  0.2509 -0.3232  0.0087
14854W        W29985   5.211   9.272   3.926  0.3029  0.3441 -0.1422
14855W        W29986  12.826  17.351   4.571 -0.2748 -0.3702 -0.2562
14856W        W29987   2.453   3.978   2.167  0.3514  0.0684 -0.0903
14857W        W29988   2.272   4.043  13.791 -0.1778  0.0631  0.1180
14858W        W29989   4.044   9.235   3.194 -0.0493  0.1322  0.0092
14859W        W29990  15.805   6.743  11.928 -0.0551  0.0374 -0.2678
14860W        W29991   4.472   6.103   1.469 -0.0511  0.0918  0.1807
14861W        W29992   8.566   0.465   4.803  0.2869 -0.0917 -0.1802
14862W        W29993   0.391  15.419   2.479  0.0542  0.1474  0.2142
14863W        W29994  10.706   1.989   0.754 -0.0493  0.2203  0.0451
14864W        W29995   4.583  17.079  14.197  0.0267 -0.3387 -0.0472
14865W        W29996  17.548  17.352  12.171 -0.3613  0.2275 -0.0154
14866W        W29997  11.336   7.580  12.030 -0.2819 -0.2284 -0.1989
14867W        W29998  11.283   7.202  14.268 -0.2918 -0.0745  0.2799
14868W        W29999   7.671   5.517   2.195  0.0243  0.2069  0.0652
14869W        W30000  11.811   3.941  14.034 -0.1069  0.0371 -0.0795
14870W        W30001   2.735  15.247   1.802 -0.0861  0.1155  0.0609
14871W        W30002   5.020  17.498   3.275  0.1507  0.1025  0.4452
14872W        W30003  10.231   0.247  15.453  0.1279  0.1747  0.2867
14873W        W30004  15.218   7.344   3.386 -0.0703 -0.3166  0.2819
14874W        W30005  14.093  14.987  11.541  0.0101 -0.1037 -0.2359
14875W        W30006  16.850  10.796   1.683 -0.2008  0.0745  0.1065
14876W        W30007  18.317  15.527   3.040  0.0977  0.0179  0.1960
14877W        W30008   4.273  10.293   1.750 -0.2379  0.0972 -0.0594
14878W        W30009   3.663   8.965  13.230 -0.0130  0.1562 -0.0888
14879W        W30010   0.716   3.501   5.269  0.0677 -0.0679  0.1158
14880W        W30011   7.512   8.625  12.857  0.1280  0.0810  0.1107
14881W        W30012  13.779   6.656   9.666  0.1036  0.0876 -0.1064
14882W        W30013   7.970  11.693  11.937 -0.1386  0.1645  0.1971
14883W        W30014   1.351  16.274  11.136 -0.0232  0.1908  0.1262
14884W        W30015   5.968   7.449  11.252 -0.2006  0.0254  0.2045
14885W        W30016   0.152  13.185  13.851  0.0645 -0.0854  0.2006
14886W        W30017   0.796  18.554   2.473  0.2942  0.4153  0.0529
14887W        W30018   6.910   1.650  13.890 -0.2744 -0.0610 -0.2989
14888W        W30019   8.812  16.953   0.751 -0.1088 -0.2056  0.2806
14889W        W30020  11.198  15.652  14.118  0.0408 -0.0384 -0.0560
14890W        W30021   1.103   0.810   1.218  0.1231 -0.2326 -0.1554
14891W        W30022  15.446  16.879   2.130 -0.0151  0.1561 -0.3573
14892W        W30023   9.646   4.404   5.563  0.5182 -0.0421  0.4968
14893W        W30024   9.899  18.414  11.487  0.1114  0.0402  0.1043
14894W        W30025  10.547   2.025   4.130 -0.1469  0.2127 -0.3114
14895W        W30026   4.914  13.835   3.964 -0.1147  0.1382  0.1147
14896W        W30027   7.905  14.407   3.559 -0.2619  0.0107 -0.0249
14897W        W30028   9.121   1.085  12.623 -0.3563 -0.1208 -0.2550
14898W        W30029  11.419   9.817  10.789 -0.2349 -0.1681 -0.1765
14899W        W30030   8.332  18.207   3.890  0.1511 -0.1249 -0.6050
14900W        W30031   6.082   0.583  12.774 -0.0165  0.0150 -0.1429
14901W        W30032   2.921   3.523  14.471  0.2763 -0.0040  0.1027
14902W        W30033   8.701  14.238  11.655 -0.1591  0.0623 -0.1968
14903W        W30034   3.482  18.006   3.343  0.0396  0.0004  0.2132
14904W        W30035   5.506  14.230  10.316 -0.0467 -0.2150 -0.2017
14905W        W30036  18.008   3.538   3.340 -0.1558 -0.0589 -0.0600
14906W        W30037   6.883  10.241  15.711  0.0236  0.2613  0.0639
14907W        W30038  13.819   5.544   5.281 -0.1980 -0.2411 -0.0994
14908W        W30039  11.051   8.015  12.067  0.2889  0.1397  0.3576
14909W        W30040   7.679  16.563  14.392 -0.1103  0.1114 -0.2440
14910W        W30041  18.527   3.225   0.117 -0.2955 -0.1381  0.0328
14911W        W30042   6.796  17.882  12.256  0.4576  0.1548  0.2093
14912W        W30043   5.904   7.345   4.819  0.4437  0.1971 -0.0058
14913W        W30044  13.912  17.694  14.272 -0.0787  0.1650  0.1923
14914W        W30045  16.536   0.676   5.405 -0.0739 -0.1130  0.0039
14915W        W30046  10.185  15.866  12.274  0.2881  0.4392 -0.1739
14916W        W30047   3.999  13.932   3.979 -0.0829  0.1646 -0.0449
14917W        W30048  11.573   1.201   1.196  0.0215 -0.1117  0.4142
14918W        W30049   5.160   9.835  15.093 -0.0431  0.2938 -0.3342
14919W        W30050   3.860   2.584   1.195  0.2613 -0.0502  0.0844
14920W        W30051  14.272   9.129   5.141 -0.0509 -0.1492 -0.4055
14921W        W30052   6.895   7.101  10.575 -0.0302 -0.0651 -0.4623
14922W        W30053   5.838   6.824  15.553 -0.3059  0.1321  0.2494
14923W        W30054  15.538  12.519   4.378 -0.1368  0.1118 -0.1545
14924W        W30055  13.956   4.135   2.112  0.5535 -0.1939  0.1721
14925W        W30056  13.635  10.720   2.199  0.2453 -0.3213  0.1925
14926W        W30057   7.774   3.344   4.439 -0.1181  0.2216 -0.0212
14927W        W30058   4.500   2.404  15.705 -0.0620  0.0134  0.0331
14928W        W30059   4.384  17.054   0.578  0.3263  0.0785 -0.0094
14929W        W30060   1.723  17.037   0.736  0.1880  0.0550  0.2856
14930W        W30061  11.990   1.454   3.372  0.1419  0.3551 -0.0337
14931W        W30062   6.646   1.033   5.736 -0.2958 -0.3902 -0.2029
14932W        W30063  11.035   1.461   1.295  0.0741  0.1388 -0.0129
14933W        W30064   9.232  15.767   5.284 -0.1881  0.0663 -0.4114
14934W        W30065   7.652  15.156  11.192  0.0455 -0.0456 -0.1883
14935W        W30066  11.508  13.258   4.765 -0.1792 -0.1814 -0.3259
14936W        W30067  10.132  14.738   1.818 -0.1409 -0.0295  0.0579
14937W        W30068   0.818   3.718  15.605  0.0306 -0.1942  0.0774
14938W        W30069  17.013  12.352   3.495  0.1380 -0.0360  0.0065
14939W        W30070   1.570  10.831   1.627  0.5032 -0.2226 -0.2275
14940W        W30071   1.414  16.049  10.486  0.0093  0.0565  0.0796
14941W        W30072  11.298  15.552   3.202  0.1331  0.2798  0.1724
14942W        W30073  15.409  10.223   1.572 -0.1712  0.1036 -0.4662
14943W        W30074   5.261  14.038   1.050 -0.2095 -0.3039 -0.2797
14944W        W30075   3.756  18.100  14.297 -0.3396 -0.0911  0.0740
14945W        W30076  15.487   3.418  15.050  0.2065  0.0773  0.0704
14946W        W30077   6.489   8.903   1.692  0.2634 -0.1003  0.2735
14947W        W30078   7.099   8.113  15.775  0.0963  0.2717 -0.0055
14948W        W30079   8.627   5.116  10.777  0.3795  0.3407 -0.2535
14949W        W30080  14.989  16.542  14.477  0.1715 -0.3082 -0.1891
14950W        W30081   0.448   2.487  12.065  0.4240  0.1542 -0.1014
14951W        W30082   6.811   0.158  15.061 -0.0118  0.0544  0.2967
14952W        W30083   5.352   9.809  14.518  0.1540  0.3526  0.1871
14953W        W30084  17.560  16.441  11.762 -0.0778 -0.1167  0.1050
14954W        W30085   7.075   4.163  11.902 -0.3768  0.2006 -0.0744
14955W        W30086   9.200   2.030   4.804  0.1464  0.1055 -0.0736
14956W        W30087  10.782   3.138   5.163  0.0390  0.2644  0.0977
14957W        W30088  17.051  15.418  13.561 -0.1809 -0.1200  0.0289
14958W        W30089  18.274   2.486  11.547 -0.0193  0.1567  0.0638
14959W        W30090  12.490   4.557  13.441 -0.1148 -0.0088  0.0146
14960W        W30091   0.197   4.312   4.657  0.4151 -0.0493  0.2374
14961W        W30092  13.851  18.554   0.955 -0.0112 -0.0628  0.1802
14962W        W30093  12.187  10.843   2.765  0.2242 -0.4233 -0.3120
14963W        W30094  17.322   1.432   2.733 -0.2475 -0.2070 -0.1005
14964W        W30095  16.841   0.145   0.813  0.0277  0.0538 -0.0653
14965W        W30096  10.284  14.308   0.799 -0.1883  0.1827 -0.0704
14966W        W30097  14.183  13.140  14.466 -0.2085 -0.1195 -0.3327
14967W        W30098   5.707   5.897  12.243 -0.2021 -0.1695 -0.1066
14968W        W30099   7.546  17.518  11.478  0.0661  0.1997 -0.0422
14969W        W30100  16.107  10.429  14.443 -0.0139 -0.0818  0.1618
14970W        W30101   4.835   3.865   3.245  0.1066  0.1030  0.2348
14971W        W30102   3.057  18.107   5.714  0.0778 -0.3342 -0.2082
14972W        W30103   6.422  10.239  12.266  0.1356  0.1207 -0.1471
14973W        W30104  10.047  16.817   5.374 -0.0615  0.0604 -0.0678
14974W        W30105  10.320   6.010   4.140  0.1176  0.0154 -0.2361
14975W        W30106  13.100   3.347   0.611 -0.2803 -0.2714 -0.0928
14976W        W30107   8.624   3.439  11.918 -0.1551 -0.0257 -0.2643
14977W        W30108  14.687  14.898  13.924  0.0109  0.2175 -0.2175
14978W        W30109   3.155   0.421   2.338  0.2316  0.0537  0.2290
14979W        W30110  15.526   3.733   1.552  0.1821 -0.2623  0.1330
14980W        W30111   4.697  12.493  14.623 -0.0060  0.0768 -0.0562
14981W        W30112  15.069   9.553   2.861  0.1223 -0.1354 -0.2597
14982W        W30113   7.820  10.795   2.011 -0.1603  0.0064  0.2893
14983W        W30114  15.375   4.125   1.851 -0.2944  0.2151 -0.1012
14984W        W30115  17.910  14.777  11.943  0.0020 -0.0566 -0.1831
14985W        W30116   1.677  10.856   5.277  0.0175  0.1944  0.0873
14986W        W30117   1.702  18.445   2.911 -0.0922 -0.2372 -0.5341
14987W        W30118   6.589   5.181  14.861 -0.3767 -0.0183  0.3827
14988W        W30119   2.262   2.230  14.159  0.0879 -0.2640  0.0560
14989W        W30120  15.628  10.080   2.054 -0.1554  0.1386  0.0192
14990W        W30121  15.086   4.634  15.645 -0.1723 -0.5327 -0.0921
14991W        W30122  13.070  13.264   3.261  0.2279 -0.2806  0.2613
14992W        W30123  16.914   7.717  14.341  0.1641  0.0235 -0.0271
14993W        W30124  17.974  10.616   0.804 -0.2700 -0.3206  0.2555
14994W        W30125   7.405   6.584   3.229 -0.0560 -0.0452  0.0373
14995W        W30126   1.725   0.842   2.245  0.3476 -0.1143  0.2201
14996W        W30127   2.760  14.355   1.431  0.2341 -0.0816 -0.1289
14997W        W30128   9.261   1.079  13.587 -0.3001 -0.0864 -0.1688
14998W        W30129  14.924   4.900   2.864  0.2706 -0.0091  0.5093
14999W        W30130  12.951  15.954   1.030 -0.0958  0.0001  0.0320
15000W        W30131  18.666  16.448  12.720  0.0363  0.3453 -0.0892
15001W        W30132   8.148   5.491   9.615  0.3530  0.0399 -0.0664
15002W        W30133   4.545   0.061  11.034  0.4314  0.0671  0.1642
15003W        W30134   7.516   9.541  14.038 -0.2248 -0.1638  0.2985
15004W        W30135   8.005   2.841  13.916 -0.0511 -0.1889 -0.0850
15005W        W30136  15.656   8.488   0.014  0.0463  0.1405  0.0550
15006W        W30137   0.242   1.698   5.158  0.0116  0.2149 -0.0141
15007W        W30138   2.422   8.480  15.561 -0.0990  0.0341  0.1208
15008W        W30139  10.427   5.693  13.419  0.0298 -0.1227 -0.3306
15009W        W30140  18.608  17.002  12.553 -0.3744  0.0038 -0.0166
15010W        W30141  13.605  11.241  11.376 -0.1000  0.0860 -0.2482
15011W        W30142  11.077  17.614  15.101 -0.3144 -0.3342 -0.1565
15012W        W30143  16.894  15.485   4.343 -0.1826  0.1432  0.0914
15013W        W30144   5.784   3.226   3.418  0.0860 -0.0053  0.1954
15014W        W30145   4.482  10.113   5.766  0.0833  0.0671 -0.2754
15015W        W30146  15.033  18.720   1.630 -0.3221  0.1263 -0.0621
15016W        W30147   0.642  12.332   2.096  0.0140 -0.1779 -0.0839
15017W        W30148  11.103  12.630   2.758 -0.3341  0.0415  0.3961
15018W        W30149  17.084  13.875  11.063  0.1338  0.1806 -0.1061
15019W        W30150  11.356   2.080  14.476  0.0176 -0.2657 -0.2517
15020W        W30151  10.380  14.157  12.503  0.1686  0.0248  0.2576
15021W        W30152   9.962  18.642  12.961  0.0794  0.2477 -0.0857
15022W        W30153   7.025   1.845  13.281  0.2263  0.1166  0.2726
15023W        W30154   3.915   3.851   1.081 -0.1813 -0.0190  0.0752
15024W        W30155  17.957   3.246  12.881  0.0522 -0.2840  0.3099
15025W        W30156  16.495   9.702   0.679  0.0262  0.1386  0.0109
15026W        W30157   6.800  17.012  11.282 -0.1047  0.0771  0.1560
15027W        W30158  13.517   3.685  10.934 -0.2357 -0.1575 -0.2797
15028W        W30159   6.301   7.860  11.219  0.0068  0.0994 -0.0189
15029W        W30160   5.526   7.513   5.142 -0.1931 -0.1000  0.4071
15030W        W30161   8.691  12.617  13.938 -0.3373 -0.0140  0.2043
15031W        W30162   4.610   4.306  12.476  0.2873 -0.1274  0.2414
15032W        W30163  17.639   0.973   1.471 -0.2190  0.0236  0.4697
15033W        W30164   2.732  12.639  13.953 -0.5022 -0.0271  0.0732
15034W        W30165   8.419  15.957  13.557 -0.4138  0.1862 -0.8346
15035W        W30166   5.753   5.586  14.473  0.0907  0.1973 -0.1479
15036W        W30167   1.825   0.475  15.437  0.0915 -0.2845 -0.4592
15037W        W30168  14.943  13.316   0.005 -0.2674 -0.1602  0.2661
15038W        W30169  14.509   8.649   1.946  0.0213  0.4085 -0.0591
15039W        W30170   9.044  13.767   3.744 -0.0366 -0.0875 -0.2597
15040W        W30171  17.906   9.215   5.426 -0.3027  0.2238 -0.0584
15041W        W30172   1.279  18.652   6.119  0.3040 -0.0196  0.3019
15042W        W30173  16.722  14.344   4.928  0.0232  0.0495 -0.1861
15043W        W30174  12.861   1.700  11.509 -0.0826  0.1146 -0.3346
15044W        W30175  16.332   7.809   0.494  0.3451  0.0987 -0.0051
15045W        W30176  15.146   2.586  13.236 -0.2051 -0.4009 -0.1253
15046W        W30177   0.335   9.224  14.613  0.0044 -0.1127 -0.0703
15047W        W30178   1.855  12.381  15.207 -0.0280  0.0639 -0.3313
15048W        W30179  15.349  16.702   4.425 -0.1449  0.1769 -0.0491
15049W        W30180   0.840  14.709   0.000  0.1462  0.2486  0.0254
15050W        W30181  11.231  14.211  11.246  0.0409  0.0498  0.0548
15051W        W30182  12.192   4.071   1.348 -0.0917  0.0749  0.2817
15052W        W30183   2.873  11.663   3.779  0.0950  0.3041  0.1952
15053W        W30184   9.287   8.817  15.522 -0.1016 -0.0394 -0.0314
15054W        W30185  14.358   8.235   4.079  0.0389  0.1484  0.3189
15055W        W30186  14.248   4.350   4.572 -0.2907  0.1093 -0.0756
15056W        W30187  15.142  13.166  12.235  0.0639 -0.0538  0.0885
15057W        W30188  15.012   5.309  11.786 -0.0481 -0.2427  0.1279
15058W        W30189   6.043   3.369   0.958  0.1326 -0.1247  0.0890
15059W        W30190   5.646  12.193  14.279  0.4085 -0.1429 -0.0480
15060W        W30191  11.221   0.207  14.094  0.0369 -0.0550 -0.3000
15061W        W30192  14.271  13.159   3.894  0.2256 -0.0956 -0.1211
15062W        W30193   1.358   4.023   1.914  0.0183 -0.1074 -0.4802
15063W        W30194   3.011   0.331  13.607 -0.6427 -0.1303  0.2248
15064W        W30195   6.333  14.382   5.123  0.0962 -0.0859 -0.2972
15065W        W30196  17.406   4.307   5.012  0.1986  0.2333 -0.3110
15066W        W30197   1.301  16.571  12.928 -0.0577  0.0855  0.3056
15067W        W30198  14.173  18.008   1.568  0.1082  0.0779 -0.0143
15068W        W30199  12.885   7.498   4.684 -0.3287  0.0482  0.1054
15069W        W30200   1.777  18.279  14.287 -0.2114 -0.0243 -0.3157
15070W        W30201   7.039  14.248  14.069 -0.5672 -0.0830  0.1539
15071W        W30202  10.215  18.240  12.079  0.0572  0.1027 -0.2769
15072W        W30203  17.081   6.970  14.699  0.3103 -0.0620  0.2672
15073W        W30204  17.827   1.571   3.591 -0.3907  0.0055  0.2784
15074W        W30205   0.387  17.047  12.220  0.0290 -0.0869 -0.1777
15075W        W30206  13.914  12.026   9.971  0.2161  0.0550 -0.0113
15076W        W30207   3.911  10.712   4.077  0.0095 -0.2114  0.1240
15077W        W30208   0.704  12.154  15.622 -0.1001 -0.0382  0.0104
15078W        W30209   1.545   3.025  12.177  0.3298 -0.2459  0.4235
15079W        W30210   7.665   9.851   5.183 -0.2647 -0.0901 -0.2346
15080W        W30211  10.842  16.675   9.503  0.2744  0.1693 -0.0566
15081W        W30212   9.387   6.152  10.862 -0.1190 -0.2227 -0.2448
15082W        W30213  14.056   3.158  11.102  0.2673 -0.0479 -0.0837
15083W        W30214   3.164  11.662   2.110 -0.0422 -0.0243  0.1437
15084W        W30215  12.061  15.345   4.320 -0.2702 -0.0649  0.2302
15085W        W30216   5.038   3.395   4.728 -0.1063  0.1663 -0.2807
15086W        W30217  17.356  15.295   5.692  0.0851  0.5020 -0.1708
15087W        W30218   5.772  16.022  13.842 -0.0982 -0.2937 -0.0377
15088W        W30219   0.396  11.626   0.626 -0.0742  0.1500  0.1817
15089W        W30220  13.171   5.616  13.034  0.2050 -0.1867  0.0190
15090W        W30221   2.321   1.014   1.522  0.1073  0.2054 -0.0523
15091W        W30222   9.266   6.555   3.070 -0.1793 -0.2356 -0.1133
15092W        W30223  14.489  12.619   1.543  0.1433  0.4804 -0.0789
15093W        W30224  11.995  15.884  14.082 -0.3365 -0.2381  0.1745
15094W        W30225   0.041  10.902   4.109 -0.1041 -0.0140 -0.2353
15095W        W30226  14.133  11.554   0.294  0.0631 -0.1078 -0.1354
15096W        W30227   6.327   1.609   3.076  0.3443  0.1019  0.2249
15097W        W30228   8.770   6.777   1.670 -0.3447 -0.1478 -0.1128
15098W        W30229  18.306   1.962  13.272 -0.3609  0.0920  0.1950
15099W        W30230  14.249   7.277  14.018 -0.0835  0.3361  0.0112
15100W        W30231  13.953  10.805  15.067  0.0625 -0.0796  0.0800
15101W        W30232  14.431  13.761  13.379  0.2581  0.2677  0.4051
15102W        W30233   1.565  17.641  12.265 -0.1559 -0.1732  0.0240
15103W        W30234   0.254   3.789  12.015 -0.2402  0.0065 -0.3834
15104W        W30235  14.188   2.912  12.428  0.0217  0.2571 -0.0949
15105W        W30236   8.687  16.436  13.806 -0.0388 -0.0351 -0.0883
15106W        W30237   5.736  15.452   0.739 -0.0762  0.4367  0.5809
15107W        W30238  14.672   7.758  15.347  0.3307  0.0474  0.0131
15108W        W30239   3.221   2.139   0.233 -0.0864 -0.1260 -0.2020
15109W        W30240  13.725   5.219   3.578  0.2042  0.3856  0.0509
15110W        W30241   0.061   2.150   3.500 -0.0479  0.1201  0.1401
15111W        W30242  15.028  16.072  11.779 -0.1901  0.3035 -0.5066
15112W        W30243   1.823   3.352   1.582 -0.0669 -0.0454  0.0731
15113W        W30244  15.810   8.574  11.730 -0.3320 -0.4106 -0.1763
15114W        W30245   5.515   7.652   2.465 -0.0333 -0.2099  0.0161
15115W        W30246  11.044   8.341   0.732  0.0343 -0.1049 -0.0260
15116W        W30247  14.527  12.176   3.722  0.0344  0.1572 -0.1090
15117W        W30248  15.694   3.133   4.892  0.1596  0.0884  0.0134
15118W        W30249   8.181  14.511  11.576  0.0511  0.0642 -0.1658
15119W        W30250  18.299  17.701   3.558 -0.0878  0.1339 -0.0324
15120W        W30251   1.752   1.858  12.900  0.3729  0.0969  0.1077
15121W        W30252  10.664  10.737  15.589  0.1132 -0.1909  0.0811
15122W        W30253   9.012  13.335  13.790 -0.1210 -0.3786 -0.1266
15123W        W30254  10.000   7.370   3.482  0.0774  0.0804  0.1912
15124W        W30255   6.750   6.974   3.316 -0.0854 -0.1909 -0.1159
15125W        W30256  16.216  12.641  12.796 -0.1663 -0.1171 -0.4018
15126W        W30257   3.802   3.098  12.033  0.4005  0.0156 -0.3888
15127W        W30258  17.445  11.553  13.097 -0.0054  0.0113  0.2444
15128W        W30259  14.668  13.572  11.231  0.3168 -0.0628  0.2489
15129W        W30260   7.696   8.006  10.938  0.1945  0.0661  0.4330
15130W        W30261  14.558  15.809  14.636 -0.1712  0.0440  0.0495
15131W        W30262   3.115   9.271  15.467  0.1046  0.0479 -0.2632
15132W        W30263  14.159  14.256  12.767 -0.0187 -0.2545 -0.4292
15133W        W30264   1.851   3.982  14.741 -0.2605  0.0717 -0.0578
15134W        W30265   7.429  10.756  12.860  0.1066 -0.0007  0.0280
15135W        W30266   9.974   2.480  10.414 -0.2545 -0.0908 -0.1047
15136W        W30267   7.846  13.588   2.306 -0.1767 -0.3900  0.0312
15137W        W30268  17.562   4.160   5.718 -0.0658 -0.2656  0.0104
15138W        W30269   6.186   0.227   1.391  0.2224  0.0984  0.0226
15139W        W30270   2.254   2.959   2.304 -0.0557 -0.2861 -0.1260
15140W        W30271  16.840  10.591  15.575  0.0526  0.2257 -0.2833
15141W        W30272  13.155  18.630  14.502 -0.0266 -0.1120  0.0927
15142W        W30273   1.089   5.988   1.426 -0.1399  0.2134 -0.2746
15143W        W30274   4.549   0.617  15.657  0.0071  0.0797  0.0240
15144W        W30275  18.093  10.318   5.417  0.0727 -0.1923 -0.0057
15145W        W30276  13.016  13.253  11.798  0.3281 -0.0979 -0.3316
15146W        W30277   9.322   9.214  14.203 -0.5633 -0.2593 -0.1359
15147W        W30278  16.038  17.017   0.074  0.0534  0.1789  0.1431
15148W        W30279   9.687   9.484  13.608 -0.0490  0.1128 -0.1345
15149W        W30280  13.353   9.804   1.962  0.1352  0.0401 -0.1187
15150W        W30281   3.346  13.070  12.995 -0.5150  0.1551  0.0054
15151W        W30282  15.319   2.379   1.176  0.0119  0.3471  0.1621
15152W        W30283  10.113  15.512   3.898 -0.0437 -0.0819 -0.1999
15153W        W30284   4.302  11.169  12.298 -0.2455  0.1324 -0.0102
15154W        W30285   6.110   4.335  14.755  0.0275  0.0230 -0.1825
15155W        W30286  16.010   2.648  13.243 -0.1200 -0.0436  0.2232
15156W        W30287  18.065  10.655   3.744  0.0253 -0.1180 -0.1550
15157W        W30288   8.218  13.100  11.235  0.3115  0.2419  0.0729
15158W        W30289   4.642  18.039  15.586 -0.1683  0.0602 -0.0110
15159W        W30290  11.508   8.546  15.287  0.0448 -0.2026 -0.3477
15160W        W30291   4.666   0.948  14.615 -0.0691 -0.4866 -0.0490
15161W        W30292  12.492  12.700   2.969  0.2126 -0.1148 -0.2183
15162W        W30293   8.346   7.739  15.558 -0.2620  0.0715 -0.0166
15163W        W30294   9.446   6.883   1.316  0.1207 -0.4063  0.3337
15164W        W30295  15.692  16.390   1.103  0.1802  0.2257 -0.3612
15165W        W30296  18.685   2.529  13.924 -0.0388  0.4168  0.0255
15166W        W30297  18.290   6.004   0.367 -0.1966 -0.0990 -0.3095
15167W        W30298   6.339   3.634   1.386 -0.1063 -0.1033 -0.1164
15168W        W30299   5.658   9.476  15.402 -0.1830  0.0625 -0.0376
15169W        W30300  11.967  12.945  13.750  0.3355 -0.1062 -0.0263
15170W        W30301  18.437   2.689   3.973 -0.1598  0.2424 -0.2065
15171W        W30302   3.218   8.726  14.497 -0.1972  0.1617 -0.2282
15172W        W30303   6.619  10.324  13.214 -0.1170 -0.2548 -0.0811
15173W        W30304   4.109  17.434  11.305  0.1669  0.1896 -0.2085
15174W        W30305   4.032  15.892   1.756  0.0771 -0.2717  0.0867
15175W        W30306  18.276  11.704  13.107  0.0117 -0.0862 -0.0238
15176W        W30307  17.622   3.064  14.831 -0.0773  0.0837  0.1033
15177W        W30308  17.344   6.225  11.496  0.0695 -0.3202  0.0449
15178W        W30309   6.992  10.444  11.672  0.4724  0.1026  0.2023
15179W        W30310  12.395  15.160   0.655  0.0800 -0.3636  0.2767
15180W        W30311  18.363   8.377   1.732 -0.1392 -0.1549  0.2038
15181W        W30312  14.391   1.015  15.071  0.2015 -0.2741 -0.2738
15182W        W30313  15.249  14.098  13.635 -0.1434 -0.0079  0.2673
15183W        W30314   7.156   0.022  13.559  0.0720  0.1361 -0.1595
15184W        W30315  15.790   4.669   2.946  0.0816 -0.1273  0.0779
15185W        W30316  10.837  13.285  15.469 -0.1754  0.0470 -0.2878
15186W        W30317   7.434   1.256  15.806 -0.1174 -0.0019 -0.1878
15187W        W30318  18.129  14.181   6.141  0.3353 -0.2884 -0.4286
15188W        W30319   9.914  14.995  14.060 -0.2909 -0.0659  0.1402
15189W        W30320   5.385  10.529  14.409  0.0812 -0.1464  0.1694
15190W        W30321  10.406   8.361  13.907 -0.3754 -0.0772  0.0208
15191W        W30322  16.552   1.109  15.097  0.3542  0.2474  0.2056
15192W        W30323   4.868   4.497   0.430 -0.2092 -0.3341 -0.0887
15193W        W30324  15.826   6.533  14.375 -0.1238 -0.2357  0.1923
15194W        W30325   9.903  15.442   3.051  0.0110 -0.0046 -0.1134
15195W        W30326   8.081   3.327  13.067 -0.3193  0.1255  0.2308
15196W        W30327   5.198  13.961  11.418 -0.1283  0.2019 -0.4167
15197W        W30328   3.151   9.913  14.170  0.2003 -0.0003 -0.2820
15198W        W30329   0.994  17.071   2.339 -0.0651  0.0608  0.1532
15199W        W30330   2.357   7.504  11.924 -0.0659  0.0643  0.2874
15200W        W30331  16.695   9.460  15.510  0.0019 -0.1456 -0.0616
15201W        W30332   2.529   7.962  14.107  0.0373 -0.1652 -0.3164
15202W        W30333   9.215   1.611  12.742  0.1523  0.0905  0.0104
15203W        W30334   2.383   3.766   4.827 -0.2584 -0.0529  0.2497
15204W        W30335  12.302  12.438  11.146 -0.0261 -0.0392 -0.1264
15205W        W30336   8.941  15.628   1.344 -0.1418 -0.2155 -0.0263
15206W        W30337   4.316  11.128  12.839 -0.0693 -0.2225 -0.0984
15207W        W30338  16.942   9.494   0.905 -0.0921 -0.1904  0.1663
15208W        W30339  10.079  13.893  10.850  0.2095 -0.2087 -0.0167
15209W        W30340   9.249   4.008  12.576  0.0570  0.5540  0.2001
15210W        W30341   4.906  11.380   0.463 -0.1878  0.1444 -0.2945
15211W        W30342  14.310   1.974   4.145 -0.4072 -0.0708  0.1892
15212W        W30343   5.441   9.097   1.392  0.2367  0.1321  0.1884
15213W        W30344  16.639   4.990   1.383 -0.1829 -0.0639  0.0370
15214W        W30345  11.464  15.736   9.887 -0.2614  0.2000 -0.1139
15215W        W30346   6.207  12.754  11.063  0.1952  0.1993  0.1728
15216W        W30347  12.353  14.329  15.749 -0.0435  0.4249  0.0786
15217W        W30348  13.687   5.761  15.309 -0.0200  0.0856  0.0477
15218W        W30349   4.157  10.986   4.698 -0.1461  0.2012  0.1444
15219W        W30350  10.206   3.512   3.400 -0.0891 -0.4084 -0.2521
15220W        W30351   4.470  15.943  14.117 -0.0556  0.3125  0.0497
15221W        W30352   0.965  18.263  14.716  0.0866  0.2692 -0.1138
15222W        W30353  13.238   3.507   3.545 -0.1863  0.0524 -0.1220
15223W        W30354   9.863   6.108  10.992 -0.1099 -0.0505  0.5444
15224W        W30355   4.348   9.926   5.293  0.0967  0.3470  0.0584
15225W        W30356  11.463  18.265   1.791 -0.1139 -0.0757  0.1822
15226W        W30357  10.609   8.525  11.976 -0.1524  0.1236  0.0204
15227W        W30358   2.705  16.938   1.685  0.2784  0.4338 -0.2594
15228W        W30359   6.534  15.618  10.143  0.1397 -0.2721  0.1818
15229W        W30360   3.020  18.356   0.442 -0.0429 -0.0509  0.0170
15230W        W30361   9.157   6.424   2.187  0.0812  0.4053  0.2483
15231W        W30362  16.888   2.598   1.193 -0.0522  0.1350  0.1009
15232W        W30363  10.133  15.446  13.852 -0.1482 -0.0820 -0.0284
15233W        W30364  10.136   2.988  15.235 -0.0883  0.1136  0.0673
15234W        W30365  17.673   4.260   1.679  0.2369  0.1706 -0.0669
15235W        W30366  14.207  13.621  12.540  0.1280 -0.1711  0.0830
15236W        W30367   2.182  13.332  14.217 -0.3513 -0.0125  0.0268
15237W        W30368  11.370  13.050   3.615  0.0742 -0.1292 -0.3706
15238W        W30369   0.372   9.243   4.241 -0.1304  0.0325 -0.1133
15239W        W30370   1.091  13.902   0.133  0.1352 -0.0399 -0.1439
15240W        W30371  14.674   7.591   3.453  0.3195 -0.1063  0.2204
15241W        W30372  15.431   3.660   3.038 -0.1833 -0.1568 -0.1445
15242W        W30373   9.998   9.101   3.865  0.0817 -0.0910 -0.1738
15243W        W30374   3.337   6.007   5.409  0.0411 -0.0916  0.1320
15244W        W30375   3.837   8.708  13.639  0.1632  0.0790  0.1405
15245W        W30376   8.348  13.103   0.114  0.1690  0.1963 -0.1356
15246W        W30377   7.893  10.626  15.136  0.0163 -0.0877 -0.0955
15247W        W30378   2.153   5.553  15.480 -0.2586 -0.0590  0.2048
15248W        W30379   0.532   7.109  15.624  0.0835  0.2715  0.0169
15249W        W30380  11.433   1.939  11.390  0.0091 -0.0980  0.0673
15250W        W30381  12.036   0.629   1.844  0.0127 -0.5116 -0.0604
15251W        W30382  11.651  12.725  14.096 -0.1902 -0.2566  0.0401
15252W        W30383  18.584   6.490  11.042 -0.1988  0.2542 -0.1797
15253W        W30384   5.221  10.726   1.556 -0.0607 -0.4301  0.0671
15254W        W30385   7.907   2.134  15.010  0.2190  0.0498 -0.1125
15255W        W30386   1.558   1.933   4.693 -0.2001  0.0487 -0.1500
15256W        W30387   2.101   3.233   2.958 -0.0196  0.0398  0.2307
15257W        W30388   5.659  16.623   4.059  0.2484 -0.1342  0.0890
15258W        W30389  17.948  12.588   3.748  0.0181  0.2142 -0.1790
15259W        W30390  15.862   0.084   4.382  0.0584 -0.1148 -0.0694
15260W        W30391   7.741   4.822  13.519 -0.1737  0.3824 -0.0805
15261W        W30392  13.206   0.314  14.823  0.0097  0.0667  0.0517
15262W        W30393   7.645   2.656  14.276 -0.2887 -0.1421 -0.0710
15263W        W30394   5.032   5.431   2.273 -0.0741  0.1805  0.1629
15264W        W30395   7.099  14.604   3.029 -0.1609 -0.0902 -0.2640
15265W        W30396   3.390  15.000  12.258 -0.0179 -0.2807 -0.0852
15266W        W30397  11.558   6.408   3.947 -0.3971 -0.0426 -0.0002
15267W        W30398  10.806   5.327   4.283 -0.1815  0.0898 -0.2720
15268W        W30399  12.949  10.546   5.416  0.0134  0.0639  0.2593
15269W        W30400  15.488   6.794  13.908 -0.0776 -0.0189  0.3791
15270W        W30401   7.388  14.232  13.202  0.1134  0.1911  0.0647
15271W        W30402   0.039   9.202   5.082  0.0472 -0.2708 -0.0444
15272W        W30403  14.944  14.945  10.994 -0.1294 -0.0303  0.4221
15273W        W30404  12.622   2.990  14.749 -0.0523  0.0574 -0.0090
15274W        W30405  10.069   7.280  14.745 -0.2414  0.1408 -0.0256
15275W        W30406   1.046  15.704   1.058 -0.0416  0.1087 -0.1469
15276W        W30407   4.308   3.308   3.181  0.1449  0.0939  0.1725
15277W        W30408   7.104  16.118   3.952 -0.0351 -0.2106  0.2120
15278W        W30409   4.162  16.728   2.714  0.0594 -0.1813  0.1519
15279W        W30410  14.156  12.828  13.106 -0.0787  0.0661  0.0375
15280W        W30411   7.995   1.025   2.230  0.0231  0.1291 -0.2285
15281W        W30412  17.266   9.705  15.779  0.2270 -0.2618  0.0739
15282W        W30413   3.164  13.890   0.016 -0.0769 -0.2412 -0.0513
15283W        W30414   7.184   8.915  12.533 -0.2180  0.0266 -0.0483
15284W        W30415   1.228   9.839   3.167 -0.1360  0.0706  0.0162
15285W        W30416   4.413   5.684  12.812  0.1321  0.0275  0.0533
15286W        W30417   4.599  10.099   0.025 -0.0950 -0.0707  0.0401
15287W        W30418   0.540   0.298  11.362 -0.4152 -0.2813 -0.2537
15288W        W30419   0.964   8.240   2.038  0.4184 -0.1369 -0.0596
15289W        W30420   3.162  14.189  12.204  0.0277  0.2705 -0.0847
15290W        W30421   8.763   5.515   3.872  0.3527 -0.0908  0.0629
15291W        W30422  14.966  14.066   1.508 -0.2284 -0.0166  0.0331
15292W        W30423   7.563   8.967  15.483  0.2472  0.3184  0.1829
15293W        W30424  17.246  18.566  11.800  0.2032  0.0577 -0.0378
15294W        W30425   3.405  10.106   0.650  0.0313  0.1281  0.1507
15295W        W30426  14.486  18.056   2.007 -0.1381 -0.1969 -0.0748
15296W        W30427  17.015   2.680   0.706  0.2951 -0.1867  0.1748
15297W        W30428   2.002   6.508  12.810  0.3064  0.0370  0.1064
15298W        W30429   8.889   2.800  11.458 -0.0415 -0.0791 -0.1691
15299W        W30430  17.743  10.038  10.289 -0.2053  0.0596 -0.1933
15300W        W30431  17.663   1.492   1.532  0.0457 -0.1405 -0.1426
15301W        W30432  17.803   2.995   0.284 -0.0096 -0.1205 -0.0457
15302W        W30433   5.927  13.672   4.767 -0.1559  0.1806 -0.1089
15303W        W30434  18.569   7.262   0.469 -0.1221  0.1607  0.4965
15304W        W30435  14.232   4.102   2.501  0.0825 -0.3375  0.0873
15305W        W30436  15.259   6.180  11.285 -0.1253 -0.1904  0.0067
15306W        W30437   5.921  16.549  11.262  0.0474 -0.0503  0.1718
15307W        W30438   2.053   1.094   0.841 -0.2907  0.0041  0.0450
15308W        W30439   1.658   1.406  12.524 -0.1648 -0.0596  0.2012
15309W        W30440  17.361  12.973  10.948  0.2042  0.1074 -0.0046
15310W        W30441   8.961  15.128   2.941  0.0417  0.2048 -0.0254
15311W        W30442   7.854  10.850  13.199 -0.2095  0.2786 -0.0764
15312W        W30443   0.015  11.219   2.195  0.3057 -0.1839 -0.0942
15313W        W30444   2.140   7.292  15.309  0.2881  0.0470 -0.1593
15314W        W30445  18.039   5.511  11.278  0.0911  0.3475  0.1442
15315W        W30446   7.146   4.965   0.372 -0.0860  0.3823 -0.2490
15316W        W30447  16.755   6.579   2.201 -0.3587  0.0541 -0.0807
15317W        W30448   6.617   3.257  10.542 -0.0684 -0.0269  0.0681
15318W        W30449  16.021   5.261   4.233  0.2635 -0.3648  0.0104
15319W        W30450  14.455   2.839  10.902 -0.0336 -0.1292  0.1346
15320W        W30451   1.123  12.015   4.213 -0.1328  0.0688  0.0920
15321W        W30452  11.551   1.851  11.861  0.1171 -0.1316  0.1846
15322W        W30453   0.715   1.099  12.547 -0.0488 -0.0641  0.2110
15323W        W30454  13.329  11.430  12.951 -0.2792 -0.4221  0.0563
15324W        W30455  10.879   5.888   4.426  0.2165  0.1949  0.1437
15325W        W30456  18.331   4.883   1.161  0.1541  0.2425 -0.1953
15326W        W30457  13.945   1.555   3.921 -0.0318  0.2204 -0.0243
15327W        W30458  17.923   4.309  12.405  0.3580 -0.2095 -0.3812
15328W        W30459   2.135  12.636   1.428 -0.2253  0.2047 -0.0979
15329W        W30460   0.840  14.282  13.215 -0.2720  0.2796 -0.0482
15330W        W30461  14.573   1.377   1.484  0.0435 -0.2978 -0.3028
15331W        W30462  18.146  18.339   5.870 -0.1274 -0.2787 -0.1268
15332W        W30463  10.337  18.479   1.652 -0.4745  0.3947  0.0243
15333W        W30464  16.807   8.983  10.524 -0.0436  0.3966 -0.0108
15334W        W30465   2.320   1.983   1.111 -0.2034  0.3401 -0.0445
15335W        W30466  11.288  17.645   2.011 -0.1084 -0.1522 -0.0024
15336W        W30467  10.974   4.575   1.517  0.1327  0.0696 -0.0247
15337W        W30468   9.255   8.268  10.980 -0.0730  0.4025  0.0607
15338W        W30469   3.170  14.920   2.570 -0.1389 -0.1278  0.6495
15339W        W30470  16.674   1.964  10.594 -0.2305 -0.1868  0.1515
15340W        W30471   6.871   3.347   3.351  0.2261 -0.1835  0.5472
15341W        W30472   6.809  14.961   5.699  0.0423  0.1033 -0.0658
15342W        W30473   9.892   9.662   2.884 -0.2365 -0.2089  0.4051
15343W        W30474   4.558  14.364   6.235  0.1333  0.2171 -0.0294
15344W        W30475  17.902   9.235   5.999 -0.0932  0.0200 -0.2004
15345W        W30476  18.322  12.072  14.331 -0.0556 -0.0593  0.1116
15346W        W30477  15.220  14.695  14.780  0.0657 -0.2107 -0.0894
15347W        W30478  18.197  13.846  12.343 -0.0969  0.0029  0.1200
15348W        W30479  15.305  16.718   3.105  0.2074 -0.5454 -0.2121
15349W        W30480  17.383  16.446   5.312 -0.1141 -0.0986  0.1697
15350W        W30481  13.095   5.141   1.119 -0.0279  0.0311 -0.1190
15351W        W30482   5.351   8.445   2.077 -0.0475 -0.0498 -0.0179
15352W        W30483  10.731  16.012   1.987 -0.0186  0.1978 -0.0364
15353W        W30484   1.137   2.557  12.398 -0.0938 -0.0189  0.0308
15354W        W30485  10.256   3.703   0.957  0.2907 -0.1439  0.0591
15355W        W30486  14.808  17.642  14.494 -0.0369 -0.1577  0.0954
15356W        W30487  14.595   1.144   2.395 -0.0615 -0.1116  0.3112
15357W        W30488  15.646  10.462  14.819  0.1562  0.0578  0.2118
15358W        W30489  14.384   0.490   4.772  0.1235  0.0043  0.0825
15359W        W30490   1.296   5.442   3.416 -0.3001 -0.0098 -0.1257
15360W        W30491  14.296   2.178   0.570 -0.0428  0.0004  0.1025
15361W        W30492   6.675   2.087  13.555 -0.0539 -0.0777 -0.0676
15362W        W30493  15.993  17.719  14.742  0.0385 -0.3003 -0.2044
15363W        W30494   2.197  12.386   5.608 -0.0507  0.1055  0.1469
15364W        W30495  10.393   3.986  13.345  0.0668 -0.4254 -0.1617
15365W        W30496   1.066  13.794   0.712 -0.0807 -0.3549 -0.0229
15366W        W30497  17.250   8.381   1.141  0.0933  0.1578  0.1990
15367W        W30498   3.535  13.007  11.018 -0.3538 -0.1887  0.4556
15368W        W30499  12.218   6.932   4.358  0.1101  0.0655  0.1885
15369W        W30500   7.588   9.701   2.837  0.1865 -0.1320 -0.1243
15370W        W30501   5.930  11.990  13.425 -0.1602 -0.2149 -0.1671
15371W        W30502   2.815  17.518  12.681 -0.2483  0.2062  0.1395
15372W        W30503  15.899   4.410   0.975  0.4535  0.2906  0.1717
15373W        W30504   5.922  17.537   5.930 -0.0211 -0.2497  0.0466
15374W        W30505  12.944   2.453   3.541  0.1400 -0.1370 -0.2297
15375W        W30506   0.151   6.398   2.324 -0.1749  0.1922 -0.0870
15376W        W30507  18.726   2.189   3.978 -0.1718 -0.1005  0.0104
15377W        W30508   8.507   5.957   3.977  0.3038  0.2747 -0.2356
15378W        W30509   0.290   5.876   4.205 -0.1219  0.0502 -0.3682
15379W        W30510  16.531  17.629   0.070  0.1772 -0.2066 -0.2744
15380W        W30511   5.722   7.897  10.976  0.0310 -0.0125 -0.0109
15381W        W30512  16.850   3.391   4.299  0.0301 -0.2820 -0.2019
15382W        W30513   8.915  18.137  12.837  0.1153 -0.2317  0.0520
15383W        W30514  10.036  12.566  11.351  0.0978 -0.3435 -0.1983
15384W        W30515   8.295  18.049   9.827 -0.5546  0.2085  0.1502
15385W        W30516  15.182   5.652  13.867 -0.2477  0.0202 -0.0387
15386W        W30517   7.472   5.139  13.774 -0.0235  0.2781 -0.1385
15387W        W30518  13.420  12.176  12.509 -0.2674  0.0897  0.1125
15388W        W30519   9.569   6.269   1.559 -0.2242 -0.3067  0.1049
15389W        W30520   7.505   7.881  13.834 -0.5173  0.0016 -0.2069
15390W        W30521   9.673   8.418  11.586  0.0647 -0.2036  0.0384
15391W        W30522   0.252  13.373   4.843 -0.3104  0.3164 -0.1296
15392W        W30523  14.578   4.947   3.984  0.1352  0.1290 -0.1545
15393W        W30524  12.121   5.048  11.882 -0.2635  0.0187  0.2346
15394W        W30525  15.712   2.534   4.060 -0.0738 -0.1357 -0.1249
15395W        W30526   1.889  13.959   2.720  0.2944 -0.1802 -0.0786
15396W        W30527  11.690   1.019  15.576 -0.4322 -0.1589 -0.0828
15397W        W30528   5.969   9.290   2.396  0.0279 -0.1116 -0.1641
15398W        W30529   7.361   8.029  15.253 -0.0658  0.2025 -0.1704
15399W        W30530  11.853   5.533  14.941  0.3354  0.1521 -0.0351
15400W        W30531   9.287  14.213   3.857  0.1275  0.2568  0.2034
15401W        W30532   4.126   1.186  11.500 -0.0332 -0.0136 -0.1744
15402W        W30533  13.579  18.073  12.397 -0.1153  0.3507  0.1440
15403W        W30534  11.675   4.451   2.291 -0.2425  0.0970  0.0712
15404W        W30535   1.493  13.862  12.221 -0.1632 -0.0058  0.1228
15405W        W30536   4.337   7.512   4.189 -0.4203 -0.3214  0.2457
15406W        W30537  13.293   3.623  12.407 -0.3570 -0.1425 -0.0539
15407W        W30538   9.161   9.589   5.079 -0.3041  0.1666 -0.0154
15408W        W30539   6.829   4.794  11.436 -0.4243 -0.2199 -0.1583
15409W        W30540   6.787  15.808   5.553  0.2987 -0.1474 -0.1423
15410W        W30541   5.410   2.546  11.916 -0.1500 -0.1548  0.1002
15411W        W30542  16.577   4.173   4.759 -0.1312 -0.1628  0.0967
15412W        W30543  15.970  18.128  12.252  0.2272 -0.0187  0.3330
15413W        W30544   2.286   3.045   1.179  0.4093 -0.3124 -0.0145
15414W        W30545   2.021   5.482   0.158  0.0566  0.1957 -0.2116
15415W        W30546  13.595  13.467   2.557 -0.0506  0.0343 -0.1462
15416W        W30547  11.618  17.930   9.801 -0.0584  0.0002  0.0642
15417W        W30548  10.406  18.599   0.122  0.0287  0.0812  0.0510
15418W        W30549  14.300  11.184  12.689  0.1897 -0.1522 -0.1982
15419W        W30550  18.316   1.111   5.348  0.2115 -0.0998  0.0504
15420W        W30551   3.725   7.418  11.711  0.2434  0.1668 -0.2994
15421W        W30552   0.727   7.918  15.271  0.1109 -0.0901 -0.0181
15422W        W30553   0.942   3.576   0.529 -0.0834  0.0723  0.3283
15423W        W30554   5.627   5.327  12.371  0.0334  0.0771  0.0084
15424W        W30555   9.692  18.451  15.354 -0.1313 -0.1990  0.0587
15425W        W30556   6.258  17.744   9.979  0.2698  0.0482  0.0568
15426W        W30557  11.273  12.197   0.361  0.1073 -0.2792  0.2345
15427W        W30558   2.666  11.760  14.227  0.2001  0.2421  0.3101
15428W        W30559   9.546   0.213  15.584  0.2157  0.1479 -0.2878
15429W        W30560  10.473  12.591   0.960 -0.0282 -0.0871 -0.1018
15430W        W30561   1.040   0.032  14.585  0.3729 -0.1978  0.2058
15431W        W30562   0.944  10.885   4.690 -0.2154 -0.1722 -0.0490
15432W        W30563   5.942   5.340  15.195 -0.3388 -0.0063 -0.0392
15433W        W30564  17.394   5.275   0.554 -0.5272 -0.1721 -0.1648
15434W        W30565  14.275  17.378  14.475  0.2698  0.0331 -0.4860
15435W        W30566   1.199  13.585   5.253  0.0735  0.0324 -0.2724
15436W        W30567  12.887   7.382   0.195 -0.0118 -0.2801 -0.1028
15437W        W30568   0.095  13.566   1.351  0.3010  0.1127 -0.0950
15438W        W30569  15.856   7.617   6.101 -0.2539 -0.3383 -0.1601
15439W        W30570  15.646   1.641  13.066 -0.1149 -0.0072 -0.3190
15440W        W30571   7.371  18.455  13.926  0.2555 -0.2517 -0.2655
15441W        W30572  13.653   3.561  14.991 -0.1670  0.1489 -0.1010
15442W        W30573  11.740   7.663  15.423  0.0546  0.2110 -0.1010
15443W        W30574   3.461   0.886  12.671  0.0301 -0.0843  0.1936
15444W        W30575   6.914   5.445  15.097 -0.0962 -0.1108 -0.1339
15445W        W30576   4.160  14.665  10.472  0.0290  0.0739  0.0442
15446W        W30577   8.078   4.534   1.452  0.0985 -0.0609  0.0702
15447W        W30578   0.467   7.505  11.445  0.5694  0.1881 -0.1284
15448W        W30579  13.311   7.239   4.331  0.0819 -0.0111  0.3315
15449W        W30580   4.400   6.059   3.832 -0.1106  0.3558  0.1371
15450W        W30581   8.330  11.537   1.370 -0.1937 -0.0201  0.1422
15451W        W30582   4.336  17.616  15.617 -0.3504 -0.1446 -0.2586
15452W        W30583   0.072  10.972  15.520 -0.0971 -0.2307  0.0610
15453W        W30584  12.905  11.455  14.228 -0.1225 -0.2791  0.0088
15454W        W30585   8.881  10.456   2.735  0.3130  0.1057  0.2556
15455W        W30586  14.430  16.798  14.315 -0.3361  0.1693  0.1506
15456W        W30587  11.496   6.767  14.367 -0.0015 -0.2546 -0.0269
15457W        W30588  12.096  13.725  15.136 -0.0681  0.2399  0.1430
15458W        W30589   3.043  17.642   2.101 -0.0032 -0.2655 -0.1371
15459W        W30590   9.558   8.145  12.882 -0.0886  0.1941  0.0821
15460W        W30591  18.635  13.502   3.195  0.0235  0.0104  0.0827
15461W        W30592   6.620   3.114   1.390  0.0539 -0.2125 -0.0076
15462W        W30593  13.063  14.866   1.830  0.3307  0.0353  0.4337
15463W        W30594  12.857  12.716  10.389 -0.0088 -0.1682 -0.0792
15464W        W30595   6.070  15.483   4.850  0.1319  0.2584 -0.0043
15465W        W30596  16.250  14.940  10.508 -0.0206  0.0297 -0.1140
15466W        W30597  13.330   0.886   1.798  0.3921  0.0265 -0.0724
15467W        W30598  10.713  15.997  14.064  0.1254  0.1074 -0.3619
15468W        W30599  12.312   8.041  12.158  0.5405 -0.0998 -0.0700
15469W        W30600   1.396   5.097   4.779 -0.1337  0.0015  0.2804
15470W        W30601  12.192  11.751  11.900  0.0525  0.0865 -0.0714
15471W        W30602  11.082   5.276  12.757 -0.0195 -0.0270 -0.0982
15472W        W30603   0.669  14.439   4.928 -0.0313 -0.3022  0.3315
15473W        W30604  12.771   9.323  14.320 -0.3690  0.0010  0.4005
15474W        W30605   6.303   8.698  11.641 -0.0392 -0.0649 -0.1873
15475W        W30606  12.752   4.537  10.332  0.0316 -0.1312  0.1566
15476W        W30607  11.317   5.878   0.080  0.0148  0.0977 -0.0515
15477W        W30608   6.546   8.256   5.401 -0.2182  0.2364  0.1968
15478W        W30609  17.789  17.850  12.250  0.1251 -0.5520 -0.0451
15479W        W30610  18.173   6.257   5.696  0.2447  0.2020  0.0102
15480W        W30611   6.007  16.975  12.419  0.0980  0.1130 -0.1550
15481W        W30612  11.336  17.498   1.333  0.3047 -0.2667 -0.2563
15482W        W30613  10.603   8.831  14.667 -0.0054 -0.3917  0.1355
15483W        W30614  13.836   8.454  15.384  0.2205 -0.4609  0.2819
15484W        W30615   8.605   8.681   2.528 -0.2622  0.3956  0.0707
15485W        W30616   6.637   8.315  12.175 -0.0930  0.3738 -0.0561
15486W        W30617  10.278   2.798   3.484  0.2890 -0.0224 -0.3857
15487W        W30618  17.798   7.453  12.246  0.1213 -0.0858  0.4804
15488W        W30619   5.688   9.115   3.382 -0.2315 -0.0625 -0.1036
15489W        W30620   6.473   6.515   1.787  0.2026  0.0225  0.0818
15490W        W30621  16.722  15.648  14.422 -0.2747  0.1173  0.0644
15491W        W30622   3.101   1.582  11.004  0.3293 -0.1652 -0.1184
15492W        W30623   9.325  16.295   5.354 -0.0989 -0.0323 -0.2417
15493W        W30624   9.082  18.718   3.116 -0.1094  0.3223 -0.1877
15494W        W30625  17.823   2.124  12.439  0.0274 -0.2340 -0.0872
15495W        W30626  18.371   6.731  14.101 -0.1545 -0.2568  0.4065
15496W        W30627  10.470   7.901   4.957  0.0617 -0.1556  0.3364
15497W        W30628  10.309  14.593  12.855 -0.0915  0.3038  0.0894
15498W        W30629  15.290   9.257   3.222  0.3542 -0.0526  0.0603
15499W        W30630  11.638   4.837  15.124  0.0400  0.2391 -0.3335
15500W        W30631   7.876   0.500  12.750 -0.1125  0.1177  0.3956
15501W        W30632  18.378  15.103  14.863 -0.1932 -0.1332  0.2272
15502W        W30633  16.382   7.849  14.944 -0.0649 -0.0592  0.0607
15503W        W30634   4.844  10.201   3.498  0.1119 -0.2243 -0.1310
15504W        W30635   0.379  16.011  13.446 -0.1175  0.0133 -0.1460
15505W        W30636   3.508  11.928   2.357 -0.1361 -0.0278  0.3105
15506W        W30637  18.540  15.457   4.692  0.3805  0.1691 -0.2979
15507W        W30638   5.102   2.720  14.749 -0.0614  0.0055 -0.0332
15508W        W30639   9.116  13.658   4.279  0.2887  0.0883  0.3064
15509W        W30640  16.859   1.749   2.723 -0.1476  0.1070  0.2797
15510W        W30641   6.943  15.228   4.460 -0.2169 -0.0112  0.2816
15511W        W30642   6.944  15.129  11.839  0.2065  0.0360 -0.2941
15512W        W30643  18.356  15.752  13.455 -0.3521  0.2455 -0.2160
15513W        W30644  16.498  15.140   4.108 -0.0699 -0.1688 -0.0268
15514W        W30645  13.297   8.285   0.400 -0.1452 -0.0001  0.0676
15515W        W30646  15.913  18.672  11.361  0.2196  0.1167  0.1244
15516W        W30647  16.307   7.474   1.798  0.3717 -0.2285  0.4569
15517W        W30648  16.106   6.102  15.516 -0.1931 -0.1091 -0.2393
15518W        W30649   4.301   7.151  14.398 -0.0889 -0.2307 -0.2230
15519W        W30650  15.742  12.170   1.379  0.2450  0.1137 -0.1660
15520W        W30651  11.938   6.123   3.735  0.1639  0.0118 -0.1302
15521W        W30652   4.048   0.742  12.812 -0.1095 -0.0215  0.0438
15522W        W30653   0.151   3.476  10.429 -0.1299  0.0173  0.4733
15523W        W30654   1.081  17.091  13.726 -0.1053  0.1177  0.0586
15524W        W30655   7.216  17.134   1.969  0.0376  0.1980  0.0458
15525W        W30656   0.355  16.818  10.884  0.1076  0.0415  0.0388
15526W        W30657  11.602  10.902  12.883  0.0643  0.0669 -0.2394
15527W        W30658  18.724   3.878  13.657  0.2861 -0.0838  0.2545
15528W        W30659   0.283  17.270  13.429  0.0006 -0.0889 -0.0119
15529W        W30660   2.841   7.649   3.902 -0.3181 -0.1032 -0.0246
15530W        W30661   9.965   6.704   3.965  0.0176 -0.1244  0.1117
15531W        W30662   5.567  17.116   4.221  0.2104 -0.3179 -0.3896
15532W        W30663   3.956  16.462  14.007 -0.1280 -0.2029  0.0183
15533W        W30664   9.152   7.946   1.043 -0.1075  0.1580  0.3242
15534W        W30665  14.977  12.797   1.599  0.0738  0.1477 -0.0747
15535W        W30666   8.979   1.159   5.086  0.2049 -0.0376  0.0851
15536W        W30667   0.802  18.444  15.308  0.0691 -0.1619  0.1347
15537W        W30668   5.666   3.211   0.363 -0.1230  0.0213  0.2939
15538W        W30669   1.431  15.987   4.350  0.1980 -0.1572  0.1116
15539W        W30670   1.344  16.317   4.733 -0.1104 -0.1474 -0.3108
15540W        W30671  15.417   0.122   4.706 -0.3321 -0.2378  0.3095
15541W        W30672   6.252  13.015   5.214  0.3494 -0.2032 -0.1965
15542W        W30673   3.927  16.995  13.350  0.2096 -0.1515 -0.0197
15543W        W30674  11.202   2.276  11.724 -0.2841  0.1088  0.0922
15544W        W30675   7.806   9.269   4.242 -0.2405 -0.1093 -0.3607
15545W        W30676  17.665   6.390  11.146  0.0066  0.1513 -0.1395
15546W        W30677  10.655   1.426  11.440 -0.1665 -0.1975 -0.2276
15547W        W30678  16.712  14.447  11.373  0.2566  0.2004 -0.2836
15548W        W30679   3.109   2.240   4.943 -0.0728  0.1880  0.1132
15549W        W30680   1.477   0.116   0.891  0.0681  0.2835 -0.3053
15550W        W30681   3.893  14.188   2.652  0.0916  0.1336 -0.2623
15551W        W30682  14.595  14.880   4.630  0.1914 -0.0962 -0.0426
15552W        W30683   9.210  16.332  12.121 -0.1250  0.1455  0.0662
15553W        W30684   0.724  12.270  10.980  0.0994 -0.1244 -0.2114
15554W        W30685  12.923   4.131   1.195  0.1848 -0.0202 -0.1756
15555W        W30686   3.041   0.815   4.223  0.4695 -0.0221  0.5910
15556W        W30687   6.985  10.104  15.238 -0.0658 -0.2388 -0.4197
15557W        W30688  10.505  17.826   4.678 -0.4019 -0.0425 -0.1304
15558W        W30689  14.881   3.240   2.659 -0.1791  0.0473 -0.1540
15559W        W30690  13.017   1.930  13.597 -0.1459  0.0746  0.3069
15560W        W30691   3.720   5.074   2.517 -0.0742 -0.1417 -0.1863
15561W        W30692   2.349   9.092   5.112 -0.0444 -0.1959 -0.0609
15562W        W30693   6.608   8.540  15.369 -0.1881 -0.1683  0.0347
15563W        W30694  12.706  15.385   4.138 -0.2135  0.2877  0.2587
15564W        W30695  10.676   8.257   1.170 -0.4552  0.1139 -0.0820
15565W        W30696   9.001   9.930   1.275 -0.1729  0.0667  0.2106
15566W        W30697   6.472  15.171  11.305 -0.1909 -0.5330  0.1111
15567W        W30698  11.124   3.755   4.495 -0.2115 -0.1946  0.0668
15568W        W30699   8.448  10.795  15.719 -0.1630 -0.0134  0.4536
15569W        W30700   5.091   8.276  14.954  0.4152 -0.3389  0.0858
15570W        W30701  13.730   0.972   3.289  0.1480  0.1459 -0.0220
15571W        W30702   4.278  11.344  11.255 -0.3543 -0.3247 -0.0938
15572W        W30703   0.282   8.868  11.484  0.0980  0.1342 -0.0458
15573W        W30704   1.541  18.402   4.670  0.0174 -0.1289  0.1168
15574W        W30705   1.365   9.349  12.496 -0.0904  0.0756 -0.3084
15575W        W30706   4.820   4.265   1.373 -0.1469  0.0365 -0.0543
15576W        W30707   0.515   7.110  11.030  0.0561 -0.2038 -0.2463
15577W        W30708  17.109   0.026   1.307  0.0229  0.1573  0.0459
15578W        W30709  12.022   8.892   5.696 -0.0923 -0.3047  0.0448
15579W        W30710  10.248  13.675  13.130 -0.2490  0.2287 -0.1382
15580W        W30711   3.197   6.879  13.921 -0.0033  0.0294 -0.0608
15581W        W30712  17.866   4.277   0.680  0.0703 -0.1980 -0.1199
15582W        W30713   8.731  11.009  15.259  0.2234  0.2869  0.0867
15583W        W30714  14.144  11.818   3.884  0.0818 -0.3990  0.0374
15584W        W30715  17.753   8.798  13.885  0.0247 -0.0548  0.1770
15585W        W30716   7.430  13.428   4.646  0.2445 -0.0139  0.1519
15586W        W30717  13.593   8.480  15.805 -0.2416  0.2026  0.0244
15587W        W30718   5.441   8.581   0.541  0.0096 -0.1699 -0.1470
15588W        W30719  17.115  13.316   3.265  0.0927  0.1141  0.0155
15589W        W30720   8.548  13.229   3.187  0.0929 -0.0949 -0.1322
15590W        W30721  17.897   3.782  15.214 -0.0380  0.0712  0.0703
15591W        W30722  11.372   2.417  11.135 -0.3285 -0.2323  0.0991
15592W        W30723  13.124  11.962   9.475 -0.1535  0.0004  0.2748
15593W        W30724  13.788  17.083   4.111  0.2022  0.1312 -0.0126
15594W        W30725  12.928  12.802   3.246 -0.2430  0.0778  0.0607
15595W        W30726  16.589  13.429  11.344 -0.1712 -0.0397  0.5585
15596W        W30727   3.134   6.193  11.420 -0.1363  0.0696 -0.1205
15597W        W30728  16.931  15.903   3.493 -0.1351  0.1051 -0.2298
15598W        W30729  17.535  17.850  12.823 -0.0287  0.1765 -0.3451
15599W        W30730   0.143   7.383   3.497  0.1517 -0.0594 -0.1826
15600W        W30731   8.653   4.045   0.926 -0.2508  0.3169  0.1610
15601W        W30732  15.502   0.569   2.979  0.0241  0.0840 -0.1656
15602W        W30733   7.484   2.864   5.193  0.0604 -0.1556  0.2069
15603W        W30734   7.840   7.705  13.014 -0.1168  0.1784 -0.0598
15604W        W30735  18.275   1.415   4.424 -0.4021 -0.0046 -0.1870
15605W        W30736  18.239   7.606   0.679 -0.0028 -0.1440  0.0760
15606W        W30737  16.703  14.583  14.645  0.2470  0.2115 -0.0721
15607W        W30738   9.750   8.526  11.011 -0.4222  0.1819 -0.3262
15608W        W30739  14.219   4.890  11.292 -0.0738  0.1069  0.0178
15609W        W30740   3.320  14.619   4.447 -0.0850  0.3124 -0.1397
15610W        W30741  15.531  16.566   3.978 -0.3458 -0.3885 -0.1911
15611W        W30742  11.311   5.697   3.140  0.1653 -0.1378 -0.3553
15612W        W30743  15.519   7.371   2.332 -0.3746  0.0595  0.0251
15613W        W30744  15.109  13.142   0.515 -0.2285  0.2460 -0.2579
15614W        W30745   1.308  17.446   0.571  0.0046 -0.0444  0.1590
15615W        W30746   5.710   5.295   4.113 -0.0089 -0.0022 -0.2262
15616W        W30747   4.678  15.036   2.931 -0.0326 -0.3314 -0.0332
15617W        W30748  12.540  16.780  11.158 -0.3678 -0.1779 -0.0505
15618W        W30749   4.511   2.497   4.223  0.1198 -0.0342  0.2273
15619W        W30750  12.070   7.219  13.141  0.0812  0.0688 -0.1977
15620W        W30751   2.849   6.018   0.258 -0.1530  0.0610  0.2110
15621W        W30752  13.498  17.276  14.036 -0.4039 -0.1709 -0.3291
15622W        W30753  10.685   7.558   0.599 -0.0793 -0.0202  0.0079
15623W        W30754  16.908   7.498  11.002 -0.0235 -0.1042  0.2115
15624W        W30755  10.097  18.458  13.877 -0.0260 -0.2852 -0.0558
15625W        W30756   3.902  13.742  13.516 -0.2277  0.1710  0.1054
15626W        W30757   2.150  17.096  12.279 -0.4098  0.1472  0.1159
15627W        W30758  11.296  17.258  14.763 -0.2770 -0.1959 -0.0362
15628W        W30759   5.480   4.850   5.454  0.2933 -0.0440  0.1066
15629W        W30760  10.773   4.836  15.227  0.0886  0.1905  0.0377
15630W        W30761  14.239   2.078  14.303  0.0163  0.0843  0.0433
15631W        W30762  16.739   9.375  15.021  0.1366 -0.1903 -0.2608
15632W        W30763  10.580  17.754  14.470  0.1362  0.0080 -0.2190
15633W        W30764  14.700   7.127  13.783  0.0034  0.5504 -0.1120
15634W        W30765   5.678   5.387   4.603  0.3851  0.2271  0.1285
15635W        W30766  10.326  18.665  14.960 -0.1969  0.0436 -0.1064
15636W        W30767  10.994  16.298  12.231  0.2798 -0.0087 -0.2909
15637W        W30768  13.220   1.028   4.407 -0.5139  0.0397  0.0427
15638W        W30769   6.352  12.302  11.925 -0.1653 -0.1220  0.0101
15639W        W30770   5.835   0.650  11.061 -0.0370  0.3055 -0.2648
15640W        W30771  13.471   4.807   1.559  0.0118 -0.2585 -0.3119
15641W        W30772   7.203   1.457   2.828  0.3561 -0.2401 -0.2486
15642W        W30773   9.469  12.025   2.534  0.2362  0.0619  0.0228
15643W        W30774  10.610   0.435  12.011  0.2469  0.1290  0.0890
15644W        W30775   1.284  16.409   2.580 -0.0912 -0.1031 -0.3492
15645W        W30776  12.525   3.011   1.383 -0.2070 -0.2164  0.3878
15646W        W30777  13.071   7.688  10.340  0.3257 -0.1203  0.0019
15647W        W30778   4.944   8.852   4.393  0.1731  0.0946 -0.0637
15648W        W30779  16.682  17.638  13.411  0.2222 -0.0287  0.0312
15649W        W30780  16.307  17.918  13.674 -0.0093 -0.0746 -0.2422
15650W        W30781   6.685   5.759   0.496  0.1245 -0.0134  0.0003
15651W        W30782   2.792  13.047   6.048  0.2669 -0.0770 -0.0530
15652W        W30783   4.932  13.063   2.558  0.1154 -0.2494 -0.1683
15653W        W30784   8.530  12.661  11.638 -0.1047 -0.1843  0.2381
15654W        W30785   0.327   9.370   5.919  0.1347 -0.1241 -0.0727
15655W        W30786   9.745   5.057   4.778 -0.0518  0.0586  0.4762
15656W        W30787   6.850   3.165   4.164 -0.1506  0.0385 -0.1031
15657W        W30788   5.333  18.327   3.314  0.2150  0.0693 -0.1863
15658W        W30789   6.046  10.946  14.962  0.2703  0.1284  0.0247
15659W        W30790   4.396   6.570  11.647  0.0593 -0.0770 -0.0860
15660W        W30791  14.076  11.242  11.833  0.0911 -0.0015  0.0656
15661W        W30792   2.253   1.983   3.084  0.1592  0.1953 -0.1225
15662W        W30793   9.507  12.242  14.470 -0.0427 -0.1173  0.0365
15663W        W30794   0.214  16.519  10.441  0.0996 -0.3272  0.2423
15664W        W30795   6.468  17.446  14.208  0.0535  0.1550 -0.1267
15665W        W30796   9.220  14.283   0.418  0.1252 -0.0727  0.0301
15666W        W30797   7.339   5.477  10.673 -0.0185 -0.1660 -0.2379
15667W        W30798  18.308  14.339   0.062 -0.1876  0.0532 -0.1623
15668W        W30799  13.650   3.920  13.658 -0.1032  0.0947  0.0168
15669W        W30800   2.302  16.618   1.833  0.3642  0.1337 -0.0380
15670W        W30801   9.331  13.422   3.929  0.2741 -0.2928  0.0212
15671W        W30802  11.004   8.201   2.585 -0.0616 -0.0855 -0.0270
15672W        W30803  16.664  15.993   4.740 -0.2348  0.1167 -0.1556
15673W        W30804   3.606  13.943   4.799 -0.2736 -0.2053 -0.1331
15674W        W30805  14.759   9.907   2.125 -0.1107 -0.1051  0.3240
15675W        W30806   5.565  17.093   5.282  0.0970  0.0151 -0.2388
15676W        W30807   7.370   7.263  10.660 -0.1368  0.0610 -0.0791
15677W        W30808  18.438  10.842   4.569  0.0752 -0.2108 -0.2018
15678W        W30809  15.024  15.441  10.938 -0.0726 -0.0786  0.0965
15679W        W30810   7.823   7.286  12.713 -0.0538 -0.1469 -0.0290
15680W        W30811  11.651   8.108  14.271  0.5915  0.0509  0.2052
15681W        W30812   9.807   9.016   9.867 -0.0258 -0.3620  0.0690
15682W        W30813   1.513  17.749  12.747 -0.0890 -0.0413 -0.0042
15683W        W30814  10.916  12.626   1.877  0.3498  0.0042 -0.3133
15684W        W30815  13.714  17.950  11.269 -0.2395 -0.1769 -0.1721
15685W        W30816   4.331  10.044   3.574 -0.2532 -0.0976  0.1089
15686W        W30817   4.754   3.930   1.000 -0.0568 -0.3009  0.2545
15687W        W30818   1.472   7.730  14.723  0.1249 -0.0875  0.1874
15688W        W30819  15.799  13.249   1.198 -0.1485  0.1183 -0.2570
15689W        W30820  14.911  10.363   6.050 -0.1995  0.3948  0.0985
15690W        W30821  15.120   0.772  10.938 -0.2110  0.2599 -0.2160
15691W        W30822   4.392   4.983  14.285  0.0296  0.3096  0.0107
15692W        W30823  13.055   5.600   0.799 -0.0346 -0.1370 -0.0754
15693W        W30824  15.528   3.358  13.069  0.1316  0.1654 -0.0375
15694W        W30825   9.830  15.986   2.186  0.2987  0.0587 -0.0406
15695W        W30826  13.715  13.027  14.415 -0.0868 -0.1846 -0.0482
15696W        W30827  18.389  17.010  11.669 -0.1967  0.0211  0.1398
15697W        W30828   6.971   8.488   4.527 -0.0590  0.1529 -0.0088
15698W        W30829   2.409   6.436  13.511 -0.0796 -0.1062  0.2528
15699W        W30830   3.321   5.117  10.872 -0.0646 -0.0629  0.1253
15700W        W30831   2.540  13.334   4.614 -0.0268  0.1261 -0.1080
15701W        W30832  13.679  13.791  14.820  0.1305 -0.3091 -0.3446
15702W        W30833   8.741  16.423   0.274  0.0383 -0.2159 -0.0503
15703W        W30834  10.930   8.980  11.201  0.0085 -0.0625  0.1211
15704W        W30835   9.968   2.844  13.374  0.1024  0.2442  0.1647
15705W        W30836  12.875  12.007  10.662  0.1097 -0.0155 -0.1451
15706W        W30837  13.663   9.227   5.550 -0.2799  0.2098  0.4081
15707W        W30838  18.052   7.702   4.994  0.1425  0.3395  0.0832
15708W        W30839   0.689  14.421  14.862  0.1398 -0.0288  0.0906
15709W        W30840   8.791  16.515  12.847  0.0952  0.5554 -0.0597
15710W        W30841   9.359   8.899   2.935  0.3767 -0.0860 -0.1910
15711W        W30842  16.920   9.500   5.242 -0.2534  0.0895 -0.3282
15712W        W30843  18.660  16.638  11.409 -0.2121  0.0351  0.0968
15713W        W30844   9.517  12.296  15.424  0.1835  0.0345 -0.1964
15714W        W30845  13.297   5.452  15.107 -0.0349  0.0286 -0.0607
15715W        W30846   7.303  16.613   5.815  0.0444  0.1315 -0.0658
15716W        W30847  15.445   7.813  11.530 -0.1231 -0.2297 -0.0033
15717W        W30848  16.981   7.598   3.460  0.0364 -0.0111  0.1657
15718W        W30849   2.915   2.043  12.744  0.2197  0.0345 -0.1506
15719W        W30850   7.577  17.390   3.969  0.0827  0.1094  0.0858
15720W        W30851   8.735  10.666   5.311  0.1676  0.0938  0.4735
15721W        W30852  11.353   4.127  13.597 -0.2353 -0.1250  0.1672
15722W        W30853  16.480   5.752  11.975 -0.1113 -0.0360 -0.0579
15723W        W30854  17.945  18.610   2.615 -0.0440 -0.4935  0.0005
15724W        W30855  13.019   2.627  10.000  0.1856  0.2458  0.1095
15725W        W30856   8.085   2.335  14.544  0.3146 -0.0559 -0.1667
15726W        W30857   6.409  11.898  11.051  0.0202  0.1508 -0.1875
15727W        W30858  17.113  10.460   0.533 -0.1481 -0.1928 -0.0050
15728W        W30859  10.498  16.671  11.689 -0.1257 -0.1692 -0.2481
15729W        W30860  13.312   1.865  13.150  0.1520 -0.1469 -0.5759
15730W        W30861  18.180   2.114   2.273  0.1715 -0.1491  0.1769
15731W        W30862   1.811   0.740   3.374 -0.2082 -0.2675  0.2431
15732W        W30863   2.994   0.555   1.783 -0.2991 -0.1944 -0.0030
15733W        W30864  15.439   3.919  12.950 -0.2914  0.1635 -0.2456
15734W        W30865   3.842  10.355   0.395  0.0187  0.1082  0.2284
15735W        W30866   6.991  13.478  13.514 -0.0913  0.1148  0.0850
15736W        W30867  10.149  15.011   1.315  0.0028 -0.2185 -0.0269
15737W        W30868  12.276   0.675  12.130  0.4078  0.4545 -0.1302
15738W        W30869   1.614   8.380  11.237 -0.0217  0.1230  0.1971
15739W        W30870  11.561   5.042  13.049  0.1955  0.4394 -0.1187
15740W        W30871  12.012  12.080   1.902  0.1058 -0.0527  0.2239
15741W        W30872  13.589   2.970  14.897  0.0971  0.1936 -0.1480
15742W        W30873  15.453  12.113   0.416  0.0055 -0.4203  0.1546
15743W        W30874   9.627   3.393   5.265 -0.1874 -0.2312  0.1602
15744W        W30875   6.062  11.983  14.349  0.0722 -0.0253 -0.0552
15745W        W30876  17.793  15.299   1.717  0.0483  0.0882  0.3128
15746W        W30877   8.852  17.869   2.236  0.6368 -0.0980  0.0752
15747W        W30878   9.673   4.668   0.565  0.1572 -0.1618 -0.3008
15748W        W30879   7.556   5.419  12.407 -0.0115  0.0591 -0.1679
15749W        W30880   0.184   7.865   0.974  0.1613 -0.0042  0.0194
15750W        W30881  12.381   6.053  13.521 -0.0181 -0.1117  0.3301
15751W        W30882   4.851   8.508  13.968 -0.4122 -0.4560  0.3606
15752W        W30883  13.739  13.524   0.989  0.1077  0.0440  0.0952
15753W        W30884  10.009   7.605   0.970  0.2879 -0.0967  0.0310
15754W        W30885   7.534  15.441   3.402 -0.0565 -0.1208 -0.0493
15755W        W30886   6.759   6.040  15.182 -0.0617 -0.1178 -0.1740
15756W        W30887   6.482  18.137   5.624  0.1637  0.1607 -0.4791
15757W        W30888   5.317  12.493  11.264 -0.1035 -0.1549  0.0702
15758W        W30889  16.184   1.215  14.292 -0.0452 -0.3300  0.1672
15759W        W30890   0.103  10.720  14.185  0.1447  0.1244  0.0749
15760W        W30891   3.090   0.245   5.396 -0.4068  0.0466 -0.2872
15761W        W30892   3.628  13.659   0.126  0.1697  0.0075 -0.1830
15762W        W30893  16.575  16.477   5.489  0.1299  0.0868  0.0063
15763W        W30894   9.608  11.773  12.822 -0.0267 -0.1353  0.0819
15764W        W30895   8.766  16.189  11.155 -0.2201 -0.1565  0.0238
15765W        W30896  10.355  12.035  15.796  0.1312  0.3448  0.0051
15766W        W30897   7.750   4.330  13.677  0.0622 -0.0827 -0.2558
15767W        W30898  14.919  10.440   1.478 -0.1512  0.0161  0.1120
15768W        W30899   4.037  11.265   6.082  0.0986 -0.2924 -0.0410
15769W        W30900  16.313  13.828  12.152 -0.2081  0.0803 -0.0554
15770W        W30901   9.123   8.318   3.949  0.0470  0.2709 -0.1113
15771W        W30902  16.161  14.480  13.177 -0.0009  0.0334  0.2471
15772W        W30903   2.886   6.038   4.009  0.1630 -0.0625 -0.1228
15773W        W30904  14.404   9.075   2.169  0.3083 -0.2566 -0.2452
15774W        W30905  12.201  12.417   3.570 -0.0828  0.1439  0.0636
15775W        W30906   5.465   0.264   1.588 -0.1885  0.0029  0.1995
15776W        W30907  17.187  10.782  15.283  0.1885  0.2740  0.0182
15777W        W30908  15.076   1.546   3.075 -0.0438  0.1487  0.0630
15778W        W30909   6.727   7.394   5.226  0.2708 -0.2856  0.3389
15779W        W30910  13.578  10.738  12.306  0.0484  0.1304  0.0208
15780W        W30911  10.461   3.703   9.613  0.1007  0.0359  0.1429
15781W        W30912   9.937  14.057   4.369 -0.2094  0.3368 -0.0247
15782W        W30913  11.711  14.621   1.723  0.0565 -0.1875 -0.0368
15783W        W30914  13.723   9.847   5.383  0.0278 -0.2064 -0.0344
15784W        W30915   7.200   5.274   2.209 -0.0571  0.2406 -0.1692
15785W        W30916  18.214   9.561   5.744  0.0224 -0.0795 -0.0573
15786W        W30917   1.555   0.404  13.977 -0.0907  0.1537 -0.2096
15787W        W30918   9.959  12.906  12.039  0.1072  0.1670 -0.2874
15788W        W30919  17.391  16.588   0.165 -0.4792 -0.1917  0.3339
15789W        W30920  14.122  15.912  10.610  0.0196 -0.2618 -0.1216
15790W        W30921   0.751  16.760  11.943  0.2662  0.2141 -0.1706
15791W        W30922   1.613  18.035  13.193  0.2191  0.0383  0.3389
15792W        W30923  11.742   8.300  12.565  0.0187  0.0104  0.0707
15793W        W30924   6.056  17.729  14.332  0.0408  0.0633 -0.1031
15794W        W30925   4.329  14.267   2.517 -0.0079 -0.0737  0.2061
15795W        W30926  14.668   8.320  14.614 -0.1637  0.0430  0.0217
15796W        W30927   5.825  13.895   2.486  0.3063  0.1515  0.2536
15797W        W30928  18.161   7.844  14.965 -0.0049 -0.0675 -0.0863
15798W        W30929   0.084  17.516  13.927  0.1218 -0.2816  0.4278
15799W        W30930   2.728  15.989   1.191  0.0724 -0.0927 -0.2109
15800W        W30931  17.695  13.754  15.049  0.1425 -0.1603 -0.1288
15801W        W30932  15.617   6.645   4.698  0.0172 -0.0361  0.2192
15802W        W30933  12.704   9.462   3.496 -0.2842 -0.1292  0.0150
15803W        W30934  16.957  16.747  13.609  0.5025 -0.1230 -0.0495
15804W        W30935   7.594  12.957   3.934  0.1055 -0.1565 -0.0848
15805W        W30936  18.283  16.703   3.565  0.1201  0.0807 -0.0995
15806W        W30937  17.434   5.178  15.649  0.2914  0.0655  0.0946
15807W        W30938  10.716   6.333   2.921  0.0854 -0.0584 -0.0179
15808W        W30939   1.275  12.153   0.436 -0.1587  0.0518  0.2747
15809W        W30940  10.160  12.154   3.112  0.1334  0.0949 -0.2646
15810W        W30941  18.130  16.111   1.340  0.2137  0.0496 -0.0472
15811W        W30942   0.844  18.188   1.109  0.1547  0.0096 -0.0416
15812W        W30943  11.579  10.420  11.957  0.0257 -0.0020 -0.2050
15813W        W30944  18.544   6.623   1.660 -0.3138 -0.2885 -0.1433
15814W        W30945   2.998  16.797   5.451 -0.2019  0.1389 -0.0962
15815W        W30946  12.905   1.433   2.966 -0.2271 -0.3860 -0.1936
15816W        W30947  18.636   1.627  14.143 -0.1314  0.0891  0.3509
15817W        W30948  13.454   5.451  11.186  0.3050  0.1797 -0.2858
15818W        W30949   4.419  15.312   0.983 -0.0247 -0.1049 -0.3661
15819W        W30950   5.382   9.503   0.384  0.0665  0.0062 -0.2506
15820W        W30951   6.820  14.356   3.508  0.0058  0.0050 -0.0148
15821W        W30952  14.796  10.062   0.335  0.0079 -0.0566 -0.1755
15822W        W30953   3.156  15.623  12.746 -0.2609  0.0682 -0.4499
15823W        W30954   8.519   5.520   2.659  0.0976 -0.0236 -0.0809
15824W        W30955  12.380   7.675   2.198  0.1912 -0.0305  0.1720
15825W        W30956  15.777   0.621  12.929 -0.0462  0.3944 -0.0695
15826W        W30957  18.226   5.238   2.644 -0.0621  0.2045  0.1469
15827W        W30958  12.581   2.497  11.752 -0.2660 -0.0321 -0.2282
15828W        W30959   6.861  14.322   5.001 -0.0929  0.0550 -0.3460
15829W        W30960   3.129   6.749   6.120  0.0158 -0.0970  0.1461
15830W        W30961   4.872  16.335  12.905  0.1138  0.0575  0.2226
15831W        W30962   7.722   9.413   3.734  0.4042  0.0794  0.4539
15832W        W30963  18.226   2.264   3.067  0.0136  0.1696 -0.0703
15833W        W30964   7.238   8.828   2.093  0.1911  0.2154 -0.2445
15834W        W30965  17.331   1.939   2.485 -0.3561 -0.0685 -0.0074
15835W        W30966  11.109   0.093   2.769 -0.1503 -0.0654 -0.0591
15836W        W30967  16.594   8.391   3.395  0.1006 -0.1581  0.2207
15837W        W30968   9.076  11.029  15.607 -0.0570  0.0917 -0.3108
15838W        W30969  12.033  15.805  11.971  0.0864  0.2214  0.4683
15839W        W30970   2.443  11.914  13.694  0.0641 -0.1771  0.1615
15840W        W30971  11.252   7.488   4.943 -0.2406 -0.1863  0.0914
15841W        W30972  14.786  12.947   3.248  0.0216 -0.1558 -0.0596
15842W        W30973   2.558  17.008  11.899 -0.1125  0.0056  0.0791
15843W        W30974  18.002  10.917  12.706 -0.1311 -0.1393  0.3631
15844W        W30975   0.507   6.943  13.988  0.0412 -0.1817 -0.1537
15845W        W30976   5.337  12.332  15.594  0.2490  0.0326  0.1377
15846W        W30977  18.064   4.787   0.678 -0.4429 -0.2163  0.1877
15847W        W30978   7.490  14.223  12.707  0.1786 -0.1998 -0.3042
15848W        W30979  11.818  12.125   9.996 -0.4043  0.0749 -0.4714
15849W        W30980   7.392  13.069   0.494 -0.0108  0.0926  0.2170
15850W        W30981  15.027   5.995   0.185  0.0995  0.1101 -0.0020
15851W        W30982   6.484  12.686   0.659 -0.2867 -0.2064  0.2405
15852W        W30983   7.518  17.385  12.845 -0.2942  0.0194 -0.1772
15853W        W30984   0.781  15.522   3.731  0.4253 -0.1277  0.1013
15854W        W30985   0.656   9.981  12.928 -0.1494 -0.3415 -0.4411
15855W        W30986  16.738  13.079  11.712 -0.7722  0.2167  0.1465
15856W        W30987   9.553  17.999   4.207  0.0306  0.1227 -0.0818
15857W        W30988   6.171   9.413   4.032 -0.1009 -0.3196  0.1713
15858W        W30989  11.121   2.018  12.122 -0.0628 -0.0260 -0.0152
15859W        W30990   8.894  14.098   2.987  0.2034  0.2222 -0.1164
15860W        W30991  15.074  15.043  15.212  0.1779 -0.0699 -0.0060
15861W        W30992  12.660   9.685  12.913 -0.0064 -0.0543 -0.0913
15862W        W30993  15.942   7.532  13.609 -0.1376  0.1788 -0.1174
15863W        W30994   2.190   2.182   4.544  0.0452  0.1405 -0.1307
15864W        W30995  17.956  14.976  15.031 -0.2060 -0.1330 -0.0566
15865W        W30996   0.178  14.284  15.115 -0.1656 -0.0381 -0.1328
15866W        W30997  16.540   5.839  12.479  0.1789 -0.0238 -0.0124
15867W        W30998  13.649   8.121  14.059  0.1150 -0.1502  0.2493
15868W        W30999   2.708   8.786   0.845  0.0581 -0.0460 -0.3278
15869W        W31000  10.041  15.249   4.367  0.0770 -0.2656  0.0783
15870W        W31001  11.951  14.247   1.182 -0.1006 -0.1185 -0.2487
15871W        W31002  14.416  17.950  12.895  0.0866 -0.3658  0.0032
15872W        W31003  18.371   7.008  10.436  0.0737 -0.0839  0.1503
15873W        W31004  13.719   0.932   1.427  0.3518  0.0558  0.0506
15874W        W31005  10.318   7.089  13.740  0.0048 -0.2339 -0.3296
15875W        W31006  16.685  11.324   0.849  0.1410  0.1686 -0.1372
15876W        W31007   8.120   1.637  13.627  0.4932 -0.1005  0.0603
15877W        W31008   4.177   3.333   1.916 -0.0972 -0.2276 -0.1763
15878W        W31009   6.301  15.111   2.979  0.4298  0.4075  0.0423
15879W        W31010  16.056  13.798   5.927  0.1262 -0.0488 -0.2718
15880W        W31011  16.409   2.453   1.462  0.0112  0.2569  0.3877
15881W        W31012   5.846   4.153   0.095 -0.1702 -0.1428 -0.0124
15882W        W31013  17.970  11.250  15.152  0.2227  0.0548 -0.1648
15883W        W31014  12.045  17.865   9.549  0.1359  0.5478 -0.0331
15884W        W31015   9.636   0.532   0.136 -0.0132 -0.0895 -0.2156
15885W        W31016   9.296   6.630   1.720  0.3326 -0.1441 -0.1894
15886W        W31017  12.048  13.173   5.068  0.1231 -0.4497 -0.1326
15887W        W31018   2.074  11.696  12.310 -0.0970 -0.1876  0.1064
15888W        W31019   0.625   6.515  13.066 -0.4266  0.0590  0.2718
15889W        W31020   9.110  18.325   3.955  0.0577 -0.3434 -0.3509
15890W        W31021  12.361   8.291  13.235 -0.3348 -0.0106 -0.2456
15891W        W31022  10.415   3.165  13.455 -0.2810 -0.0964 -0.4308
15892W        W31023  17.559  13.895   4.511 -0.1751  0.3667 -0.1883
15893W        W31024   7.895   6.892  11.317  0.1983  0.0725  0.0213
15894W        W31025   2.669  11.753  11.124  0.2215 -0.1280 -0.1234
15895W        W31026   3.842   1.124   3.595 -0.3825  0.1046  0.1509
15896W        W31027  15.445   4.848  11.155  0.0868  0.0088 -0.0046
15897W        W31028   1.076  15.207  13.037  0.0631 -0.2593 -0.0662
15898W        W31029  14.954   3.676   3.177 -0.0297 -0.4179  0.3517
15899W        W31030   5.591  14.391   4.150  0.2860  0.0247  0.0164
15900W        W31031   3.994  11.330   2.934  0.1214 -0.3011  0.2881
15901W        W31032   5.911   5.803  14.917  0.2474  0.1307  0.1019
15902W        W31033  16.847  13.016  11.106  0.0921 -0.3108  0.0356
15903W        W31034  17.159  18.388   0.405 -0.0644  0.0342 -0.0888
15904W        W31035   0.629   7.246   0.291  0.0975  0.0034  0.1103
15905W        W31036   0.718   7.743   0.397 -0.1389 -0.4501  0.1381
15906W        W31037   1.656  15.933  10.916  0.0936  0.1461 -0.4100
15907W        W31038   2.414   7.855  15.553 -0.0327 -0.1952 -0.0924
15908W        W31039   6.378   8.034   2.607  0.0979  0.2804  0.3502
15909W        W31040  17.690   7.752  13.869 -0.2874 -0.3684  0.0156
15910W        W31041   2.688  17.240   5.504 -0.0552  0.1664  0.2470
15911W        W31042  10.130   9.557   2.390 -0.3375  0.2048  0.0723
15912W        W31043   8.446   1.017  15.424  0.1331 -0.2629 -0.0144
15913W        W31044  14.458   1.738   4.799  0.3334  0.0743  0.3634
15914W        W31045   5.976  10.403  12.556 -0.0290 -0.0310 -0.1253
15915W        W31046  15.318  12.208   1.967  0.3503 -0.2293 -0.1381
15916W        W31047   6.274   2.141  14.316  0.0228 -0.1300 -0.0955
15917W        W31048   8.314  10.439   3.544 -0.0794  0.1766 -0.1963
15918W        W31049   6.428   7.114  14.364 -0.0883  0.0063  0.0452
15919W        W31050  11.352   7.104  11.958  0.0204 -0.5362  0.2387
15920W        W31051   5.789  10.973   0.897  0.0280  0.0801  0.0569
15921W        W31052   6.241   7.689   3.034  0.2484 -0.0146  0.0656
15922W        W31053  18.341   8.167  13.946  0.3212  0.0691 -0.1578
15923W        W31054   5.621   4.208   4.347  0.0470  0.1968  0.0554
15924W        W31055   9.314  13.553   2.129 -0.1669 -0.0631 -0.1452
15925W        W31056  12.833  15.175  15.603 -0.0805 -0.0688  0.1294
15926W        W31057  13.750   9.391   5.057  0.0719  0.3076  0.1518
15927W        W31058   3.591   8.875   4.190 -0.0429  0.0136 -0.1677
15928W        W31059   3.487   0.381  11.768  0.0650 -0.0220  0.2201
15929W        W31060   6.104  17.313   3.654  0.0087  0.0271  0.1380
15930W        W31061   1.976  15.846   4.164  0.0524  0.1579 -0.0632
15931W        W31062   1.264  12.541  11.679  0.1612 -0.2674 -0.0411
15932W        W31063   4.563  17.890   1.552  0.0371  0.0935 -0.1289
15933W        W31064  10.800  14.905   0.093  0.0803 -0.2519 -0.1385
15934W        W31065  10.373  10.371   0.736 -0.0820 -0.0276 -0.2119
15935W        W31066  13.920  14.359   4.636 -0.1202 -0.1215  0.3312
15936W        W31067  17.138  17.513  10.658 -0.1049 -0.2601  0.2966
15937W        W31068   0.920   0.597  12.570  0.3893  0.2139 -0.1164
15938W        W31069   0.538   2.236   3.741  0.2146  0.1068 -0.0943
15939W        W31070  11.542  11.906   1.114 -0.1275 -0.3761  0.0454
15940W        W31071  15.028   9.675   0.876  0.1558  0.1164 -0.0278
15941W        W31072   4.042  14.604   2.715  0.0896 -0.1888  0.1843
15942W        W31073  16.285   4.822   4.136 -0.0130  0.2647  0.1143
15943W        W31074  14.423  16.188  15.372  0.3027  0.0001  0.1516
15944W        W31075   6.891  15.206   4.979 -0.1028 -0.0898  0.2101
15945W        W31076  16.273   1.610   0.158  0.1416  0.1843  0.0575
15946W        W31077  16.143   1.475   3.041  0.1272 -0.0349  0.1868
15947W        W31078  15.017  13.694   4.518 -0.2379  0.2316  0.1682
15948W        W31079  17.754  10.275  15.260  0.1012 -0.0747  0.1508
15949W        W31080   3.713   0.489  10.242 -0.1416 -0.2796 -0.1540
15950W        W31081  14.738   3.940  12.788 -0.2562 -0.1497 -0.0894
15951W        W31082  18.638   8.152   2.838  0.1648 -0.0427 -0.1344
15952W        W31083  15.995  15.499  15.403 -0.0732 -0.0055 -0.4393
15953W        W31084  18.084   4.016   1.557  0.5057 -0.2144 -0.1329
15954W        W31085   7.357  15.558   2.223 -0.0588  0.0638 -0.1519
15955W        W31086   6.509   3.257   0.829 -0.0456 -0.2900  0.1325
15956W        W31087   5.136  11.984   4.408  0.1883 -0.0164 -0.0478
15957W        W31088  13.949   4.247   3.878  0.4066 -0.0067 -0.2112
15958W        W31089   1.325  16.434   1.277  0.1940 -0.0277 -0.1140
15959W        W31090   1.389  15.869   4.869  0.2578 -0.3784 -0.1702
15960W        W31091  10.564  12.445   3.312 -0.0065 -0.1331 -0.2392
15961W        W31092  16.227  17.313  12.488 -0.0558 -0.0172 -0.0946
15962W        W31093   4.038   0.177  14.839 -0.0203 -0.0576  0.6563
15963W        W31094   8.273   7.840   5.051  0.1819 -0.1477  0.0014
15964W        W31095  15.049   2.559  14.589 -0.0904 -0.2287 -0.1094
15965W        W31096   9.736  18.410   3.203  0.0234  0.0911 -0.1176
15966W        W31097   6.692  10.082  11.361  0.0666 -0.0819 -0.0277
15967W        W31098  14.906   6.099  11.608  0.2507 -0.1708 -0.3611
15968W        W31099  12.997  12.463  12.068 -0.2806 -0.1168  0.1591
15969W        W31100   4.122  13.780   1.754  0.2417 -0.1379  0.1114
15970W        W31101  16.824   3.184  11.190  0.0612  0.2591 -0.1814
15971W        W31102  16.984   0.718   4.619  0.1557 -0.2760 -0.0041
15972W        W31103   8.875   8.817  13.956 -0.1525 -0.4275  0.0484
15973W        W31104  10.754   5.917   5.027 -0.1027  0.0022  0.0123
15974W        W31105   3.440  16.458   2.114 -0.2669  0.0972  0.0979
15975W        W31106   5.667   4.506  15.576  0.3187  0.1717  0.1622
15976W        W31107   8.416  10.042  11.870 -0.0677 -0.1760 -0.3370
15977W        W31108  11.803   5.301   2.865 -0.0206 -0.0167  0.0026
15978W        W31109   6.447  15.073  10.764  0.0227  0.0740 -0.0994
15979W        W31110  11.922  15.530  15.173  0.1419 -0.0036  0.1104
15980W        W31111  12.704   1.629  15.198 -0.0100  0.1061 -0.1136
15981W        W31112   4.332   0.057   1.573 -0.1747 -0.2798  0.0593
15982W        W31113   5.423   6.515  11.857 -0.1498 -0.1079  0.3209
15983W        W31114   9.245   0.076   0.430  0.0074 -0.0158 -0.2422
15984W        W31115   9.606   7.776   5.161  0.0600 -0.1034  0.3397
15985W        W31116   2.508  17.166   0.374 -0.0679  0.0243 -0.0691
15986W        W31117  12.255   8.307  11.316 -0.1371 -0.0545 -0.1475
15987W        W31118  12.439  12.103  15.190  0.1177  0.1093  0.0190
15988W        W31119  15.176  11.300   5.067 -0.3320 -0.2568 -0.1333
15989W        W31120  16.827   9.982  12.916  0.1903  0.1235  0.0624
15990W        W31121   9.527  10.759  13.472 -0.3261 -0.3504  0.3477
15991W        W31122  13.264   0.625  12.961 -0.1595 -0.1036 -0.0907
15992W        W31123  18.423  14.080  14.909 -0.0428  0.1213  0.3408
15993W        W31124   5.492   6.335  12.496  0.0848 -0.0756  0.0875
15994W        W31125  16.559  15.838  10.337  0.3296  0.0979 -0.1143
15995W        W31126  16.635  12.554   0.131 -0.1663  0.2261  0.0186
15996W        W31127   3.829  17.867   2.430 -0.2440 -0.1671  0.3948
15997W        W31128  11.629   2.450  11.538  0.3888  0.0239 -0.0253
15998W        W31129  10.999  16.907   3.650 -0.1563 -0.0223 -0.0132
15999W        W31130   0.962  13.170   1.195  0.1025  0.2330  0.2300
16000W        W31131  10.126   0.332  11.984 -0.2248 -0.1874 -0.0678
16001W        W31132   7.746   9.232   0.014 -0.1136 -0.4059  0.2935
16002W        W31133   2.843   8.302  14.756  0.1720  0.0922  0.1147
16003W        W31134  10.126  18.389   3.775 -0.0329  0.0382 -0.1106
16004W        W31135  13.176  17.967   3.213 -0.0785  0.2463  0.1230
16005W        W31136   5.831  15.014   5.033  0.3129  0.1985  0.2542
16006W        W31137   0.461  13.222   1.154  0.0708 -0.1448  0.1751
16007W        W31138   9.717   2.113  10.065 -0.0671  0.0133  0.1916
16008W        W31139  13.989  16.685   4.879  0.1506  0.0578  0.1623
16009W        W31140   7.815   7.463  15.475  0.0830 -0.0623  0.1199
16010W        W31141   6.613  16.825   3.715 -0.2263  0.1583  0.0740
16011W        W31142  12.832   2.736  11.364  0.2499  0.2143  0.3422
16012W        W31143   3.182  14.681  12.576 -0.2961 -0.0311 -0.0027
16013W        W31144   6.413   8.468   2.386 -0.0189 -0.3048  0.3426
16014W        W31145   7.950  16.319   6.160 -0.5659  0.1239  0.0110
16015W        W31146  10.301   7.315  14.288 -0.3598 -0.0051  0.2584
16016W        W31147   9.070  11.394  10.831 -0.2121  0.1803 -0.1543
16017W        W31148  17.516   8.521  11.450  0.2014  0.1798 -0.1069
16018W        W31149  17.795  16.185   1.729 -0.0221  0.1658  0.1683
16019W        W31150  17.966  14.195   4.195 -0.0202 -0.0348 -0.1119
16020W        W31151  17.844   5.472   0.629 -0.2211  0.1668  0.1922
16021W        W31152  16.598  11.845  13.567 -0.4447 -0.0289  0.1682
16022W        W31153  16.351   0.079  11.647 -0.0535 -0.1225  0.1591
16023W        W31154  14.087  11.645  12.809  0.0115  0.0524 -0.2297
16024W        W31155  11.222   2.518   3.709 -0.3372 -0.0633  0.0593
16025W        W31156  14.340   7.187   3.289  0.1193  0.1186 -0.2566
16026W        W31157  16.357   7.190  13.814 -0.3849 -0.0231  0.2253
16027W        W31158   4.537  13.716  14.153  0.2235  0.2464 -0.1314
16028W        W31159  18.473   6.956  15.096 -0.1236 -0.2807  0.1806
16029W        W31160   2.446  13.479   6.043  0.0821 -0.1856  0.4022
16030W        W31161  14.153   8.104  13.925 -0.0542 -0.2798 -0.1363
16031W        W31162  10.293  18.632  11.697  0.2864  0.2382  0.3340
16032W        W31163   1.142   0.019   4.701  0.3719 -0.0314 -0.1745
16033W        W31164   0.449   9.424   1.814 -0.1205  0.0952  0.0600
16034W        W31165   9.388  16.527   4.914  0.2805 -0.0902 -0.3989
16035W        W31166   5.645  16.557   2.676 -0.1040 -0.1789  0.3256
16036W        W31167   4.366   7.399  13.276 -0.0426  0.0227  0.0831
16037W        W31168   9.561   7.187   1.784 -0.1104  0.2652  0.1469
16038W        W31169   6.053   7.770  12.611  0.1187  0.2755  0.0632
16039W        W31170   7.322   9.211   0.658  0.1601  0.0876 -0.0990
16040W        W31171   2.030   6.693  11.851 -0.0791 -0.3469 -0.1845
16041W        W31172  11.886  17.945  13.390  0.0977  0.3528  0.2323
16042W        W31173   6.186   3.150   5.936 -0.1033  0.3917 -0.0041
16043W        W31174   6.383  11.558   0.599  0.1022 -0.1987 -0.2261
16044W        W31175  13.547   0.428  15.400  0.2069  0.1088  0.0476
16045W        W31176   7.156  13.743  12.188  0.1445 -0.0529 -0.1409
16046W        W31177   4.894   4.932   2.356  0.5090  0.1597  0.1565
16047W        W31178  14.196   4.239  10.820  0.0613  0.1671 -0.1477
16048W        W31179   3.970  14.635  14.689 -0.2393 -0.0736  0.1781
16049W        W31180  18.682   7.059   1.471 -0.2714  0.4399  0.0591
16050W        W31181  10.217   9.823   3.214 -0.1267  0.2494  0.0274
16051W        W31182   6.366   0.309  12.495 -0.1149 -0.0084 -0.2699
16052W        W31183  11.678  15.865   0.854 -0.1378  0.1626 -0.1205
16053W        W31184   6.522   2.477   2.522 -0.1718 -0.3715  0.0529
16054W        W31185   4.629   1.900   5.714 -0.1148 -0.2665  0.0395
16055W        W31186   4.563   7.143  15.458 -0.0928  0.1436 -0.0971
16056W        W31187  12.025  18.193   5.307 -0.0172 -0.3384 -0.1796
16057W        W31188  14.559   4.772   1.359  0.0779  0.1387 -0.0844
16058W        W31189   1.308  14.492   2.914  0.0005 -0.0071 -0.0812
16059W        W31190  12.144   8.059  12.711  0.0083  0.0400 -0.0066
16060W        W31191   7.806  11.627   0.590  0.2733 -0.1569  0.1586
16061W        W31192  11.245  12.940  14.220 -0.1224  0.0239  0.2451
16062W        W31193  16.287  12.166  11.717  0.3790 -0.0418 -0.0322
16063W        W31194  13.800   9.697   1.809 -0.0884  0.0712 -0.1975
16064W        W31195  12.346   8.658   4.511  0.1742  0.0271 -0.2608
16065W        W31196  11.867   6.927  10.864  0.1561 -0.3800  0.0959
16066W        W31197   3.584  17.600   3.513  0.3053  0.0144 -0.1978
16067W        W31198   3.814  10.307   3.703 -0.0747 -0.0121  0.2397
16068W        W31199   5.246  14.869   3.198 -0.3799  0.0113 -0.2931
16069W        W31200  18.258  15.957  11.016  0.1252  0.0532 -0.0060
16070W        W31201  16.012   7.821   3.827  0.0682 -0.4677  0.1020
16071W        W31202   7.740  11.584   5.322 -0.0094  0.2617  0.3170
16072W        W31203  18.306  10.287  15.253  0.4677 -0.1007  0.0117
16073W        W31204  14.508  15.281  14.439 -0.1322  0.1705 -0.1410
16074W        W31205  14.252   1.830  11.324 -0.0282  0.0499 -0.0015
16075W        W31206  15.272  13.051   3.170  0.1797  0.1638 -0.2381
16076W        W31207  17.245  16.825  14.725 -0.2908  0.1361 -0.0192
16077W        W31208  17.353   8.100  14.246  0.0901 -0.1253 -0.1502
16078W        W31209   3.642   4.880  11.601 -0.3411  0.1920 -0.0382
16079W        W31210   1.018   3.788   2.154  0.1442  0.0656  0.0725
16080W        W31211  14.821   2.653  11.211 -0.1645  0.0246 -0.1642
16081W        W31212   3.999   1.605   2.079 -0.0667 -0.0794 -0.0561
16082W        W31213  14.391   1.490  12.795  0.0467  0.5452  0.1254
16083W        W31214   3.976   5.834  15.499 -0.1532 -0.2936  0.0551
16084W        W31215   6.930   1.699  11.892 -0.1227 -0.1564  0.0668
16085W        W31216  16.651  16.882   3.811  0.2477  0.1036  0.1829
16086W        W31217   3.529  18.344  13.926  0.0245 -0.1320  0.1815
16087W        W31218  11.299   4.089  12.084 -0.0748 -0.2600  0.0362
16088W        W31219  13.341   6.180  11.788 -0.1610 -0.0556 -0.2349
16089W        W31220   3.256   5.262   2.799 -0.0855  0.1559 -0.2087
16090W        W31221  13.121  10.915   1.194 -0.3844 -0.1731 -0.0245
16091W        W31222   2.940  10.529  13.539  0.1370  0.0608 -0.0452
16092W        W31223   0.596  11.511   3.453  0.0023  0.1792  0.2694
16093W        W31224  13.836   5.054   4.363  0.0766 -0.2827 -0.0837
16094W        W31225   6.350   6.720   4.608 -0.0191  0.3319  0.0077
16095W        W31226  13.777   4.905  14.822  0.1161 -0.0866 -0.1823
16096W        W31227   5.328   1.236  10.636  0.0988  0.2762  0.0925
16097W        W31228  11.528  15.329   0.560  0.4276  0.1907 -0.0525
16098W        W31229  14.403   2.622   2.393  0.2179  0.0608  0.1933
16099W        W31230   2.319  10.332  15.521  0.2403 -0.3463 -0.0452
16100W        W31231   2.004  10.879   0.750  0.0942  0.0356 -0.2140
16101W        W31232  18.149   2.924   1.211  0.0157  0.1182 -0.1466
16102W        W31233  17.056   0.532  15.611  0.1039 -0.0156 -0.2655
16103W        W31234   3.622   6.956   2.237 -0.0586  0.2100 -0.3061
16104W        W31235   2.404   0.628   6.198  0.0750 -0.2664  0.0867
16105W        W31236   9.319   9.305   0.376  0.0441  0.2283  0.3686
16106W        W31237   6.819   6.444   5.351  0.2106 -0.1393 -0.1211
16107W        W31238   3.175   5.185  12.917  0.0474 -0.0151  0.0804
16108W        W31239  14.132   8.041  15.794  0.0938 -0.5282 -0.1937
16109W        W31240  14.911  14.564   4.898 -0.1190  0.1542 -0.0576
16110W        W31241   3.040   5.690   9.978 -0.1837  0.4534 -0.1306
16111W        W31242  12.322   1.825   5.741  0.3787  0.0910 -0.1498
16112W        W31243  16.620  10.281  14.369 -0.0080 -0.0625 -0.3977
16113W        W31244   3.929   1.269  14.156  0.0755  0.0311  0.2091
16114W        W31245  10.317  15.904  13.733  0.0724 -0.1697  0.6572
16115W        W31246  18.167   6.446  11.392  0.1785  0.0542  0.0254
16116W        W31247   1.192  12.362   1.926 -0.0538  0.0555  0.0367
16117W        W31248   7.427  16.665   2.074 -0.1342 -0.0777 -0.2221
16118W        W31249   4.365  15.185   4.625  0.0912 -0.1215 -0.2509
16119W        W31250  10.710   7.236   1.513  0.5316  0.1247 -0.1160
16120W        W31251  13.525   5.903   1.656 -0.2283  0.2291 -0.1421
16121W        W31252   0.566   5.366   0.275  0.0053 -0.0860 -0.0349
16122W        W31253  10.650   5.465   4.765 -0.0332 -0.0907  0.0222
16123W        W31254  10.993   2.606   5.175  0.1117 -0.1258  0.0925
16124W        W31255   6.968   6.299  13.438 -0.0520 -0.1622 -0.2130
16125W        W31256  10.430   0.521  11.045 -0.1432  0.0208  0.0063
16126W        W31257  12.626   7.205  10.930  0.1844  0.0867  0.4722
16127W        W31258  14.598  15.825  12.025 -0.1988  0.0318  0.2085
16128W        W31259  14.693   6.582  13.067  0.1807 -0.1019 -0.0639
16129W        W31260  17.466  17.002  15.127 -0.1457  0.2629 -0.1648
16130W        W31261  18.400  16.325   0.946  0.0114 -0.0267 -0.0323
16131W        W31262   3.268  12.615   5.330  0.0001  0.1256  0.2483
16132W        W31263  11.601  16.376  13.821  0.3891 -0.4281  0.1356
16133W        W31264   2.128   2.946   4.866  0.1002  0.1797  0.0045
16134W        W31265  10.761   0.097  11.531 -0.0075 -0.0001 -0.2145
16135W        W31266  14.361  10.800  11.851  0.0626 -0.1987  0.3147
16136W        W31267  18.486   3.720   2.538 -0.1358  0.4007 -0.2436
16137W        W31268   8.360  11.843   3.422 -0.1991 -0.0385 -0.1602
16138W        W31269   5.340  17.342  15.529 -0.2439  0.0950 -0.0109
16139W        W31270   5.814   5.046   1.246  0.2497 -0.1564 -0.2165
16140W        W31271   4.350   8.001  11.133  0.1531  0.0035  0.1113
16141W        W31272  15.695   4.325  13.149 -0.3525  0.2400  0.0671
16142W        W31273   8.557  14.786   4.147 -0.0605 -0.0857 -0.0537
16143W        W31274   2.792   6.360  12.740 -0.0029  0.0465  0.2078
16144W        W31275   4.133   5.585   4.606 -0.1233 -0.0284  0.2017
16145W        W31276   7.783   4.261   5.357 -0.1956  0.3686 -0.1332
16146W        W31277  10.242   4.939   5.296  0.0470  0.0921 -0.1364
16147W        W31278   7.591   9.712  11.513 -0.1026  0.1155  0.3253
16148W        W31279   4.050   1.835   4.952  0.1916  0.1343  0.2598
16149W        W31280  12.278   4.846   0.970 -0.1441 -0.2423  0.2246
16150W        W31281   8.967   0.403  11.840  0.2099  0.2105 -0.1383
16151W        W31282   3.080   8.701   1.543  0.0455 -0.0297  0.2281
16152W        W31283  10.340   3.581  12.009  0.0862 -0.2630 -0.0066
16153W        W31284  14.439  14.111   1.493 -0.0320  0.2100  0.2442
16154W        W31285   8.525  11.168  11.994  0.0935  0.1818 -0.0710
16155W        W31286  10.303  16.351  14.618 -0.2580 -0.1896 -0.0894
16156W        W31287   9.849  13.852   4.811 -0.1088 -0.1267 -0.5153
16157W        W31288   7.569  14.339   0.242  0.0573  0.0936 -0.2627
16158W        W31289  11.812  11.222   2.887 -0.0365  0.0095 -0.0392
16159W        W31290  13.752  16.530  12.092 -0.2179 -0.2035 -0.2142
16160W        W31291   1.078   6.021  14.607  0.0933  0.1856 -0.1267
16161W        W31292   4.630   1.933   5.101 -0.1209 -0.3757 -0.1269
16162W        W31293  18.070  12.604  14.070 -0.2558  0.3567  0.2257
16163W        W31294  15.711   0.347  12.478 -0.0005 -0.1421 -0.2648
16164W        W31295  11.477  11.068   2.474  0.0677  0.0344 -0.0141
16165W        W31296  15.895   6.421   2.734  0.1996 -0.0225 -0.2243
16166W        W31297  11.141  17.641  11.978 -0.0998 -0.1989 -0.0536
16167W        W31298   2.100  17.583   1.090 -0.0109  0.0298 -0.0355
16168W        W31299  17.851   9.778   3.701  0.4147 -0.0895  0.0966
16169W        W31300  15.955   0.896  11.560 -0.3205  0.0570  0.0958
16170W        W31301  17.110  11.517   0.330  0.0571  0.2265  0.2204
16171W        W31302  11.921   4.496  13.416  0.3013  0.3124 -0.0720
16172W        W31303  18.067  13.867  12.811 -0.0061  0.0418  0.1403
16173W        W31304   9.815   8.485  12.625 -0.1191 -0.1691  0.1505
16174W        W31305  11.177   5.584   4.026  0.1292 -0.0762 -0.1419
16175W        W31306   4.416   1.378   5.766 -0.1450 -0.1524  0.1567
16176W        W31307   2.128  18.668   1.705  0.0476 -0.2966 -0.2057
16177W        W31308   2.559   0.857   3.107 -0.0051  0.1037 -0.4612
16178W        W31309   9.299   2.760   3.640 -0.1905  0.0618 -0.3069
16179W        W31310   5.975   0.702   2.833 -0.3932 -0.1335 -0.1912
16180W        W31311   5.338  13.157  12.823 -0.0693  0.0261 -0.2363
16181W        W31312   6.805   5.258   3.518 -0.2667  0.3615 -0.0902
16182W        W31313   4.445  18.301   0.138  0.3797 -0.1078  0.4137
16183W        W31314  15.472   7.329  14.821  0.2158  0.0504  0.0769
16184W        W31315   5.727  11.285  10.854  0.2386 -0.2538 -0.1118
16185W        W31316   1.920  16.090  10.460  0.1931  0.1348  0.0847
16186W        W31317   0.980   3.003  10.728  0.0670  0.3258  0.0096
16187W        W31318   7.119   2.060  15.601 -0.0515 -0.0787  0.0488
16188W        W31319  13.938   4.863   0.331 -0.2945 -0.1067 -0.0094
16189W        W31320  16.692  15.089  15.707  0.0456  0.0805  0.2177
16190W        W31321   7.189   2.107   1.187  0.2196  0.1290  0.0912
16191W        W31322   7.819  18.040   4.800 -0.4225  0.1022  0.0438
16192W        W31323  18.036  11.556   3.889 -0.0159  0.0783  0.1697
16193W        W31324  12.405   5.586   2.192 -0.1557  0.0024 -0.2862
16194W        W31325  15.987   2.210   3.762  0.2642  0.0303 -0.0903
16195W        W31326  12.059   5.580  13.409 -0.0172  0.1425  0.0177
16196W        W31327   5.640   1.136   1.451  0.0873  0.0588 -0.2434
16197W        W31328  14.516   8.327  11.133 -0.1070 -0.2785 -0.2055
16198W        W31329   7.831  18.390  14.200 -0.0666 -0.2276 -0.1225
16199W        W31330  14.274   8.713  13.263 -0.1138 -0.0918  0.0180
16200W        W31331  13.959  16.992   0.099 -0.0379  0.1615 -0.2909
16201W        W31332  14.771  10.877   5.208 -0.0514  0.2833  0.1027
16202W        W31333   0.140   2.961   0.556 -0.2646  0.3003  0.3138
16203W        W31334  14.172  10.326  11.806  0.1639 -0.1812 -0.0754
16204W        W31335  12.958   3.897   3.196  0.1463  0.0972  0.2973
16205W        W31336   5.733   8.949   2.798 -0.0072 -0.2220  0.0521
16206W        W31337   3.617   2.400   4.595 -0.0262 -0.5162 -0.2404
16207W        W31338   8.489   2.935   4.017  0.1712 -0.1616 -0.1868
16208W        W31339   0.861  12.987   3.358  0.1140  0.0569 -0.2064
16209W        W31340   0.933   2.779  15.525 -0.1795 -0.2729 -0.1384
16210W        W31341  11.578   2.974   3.598  0.2911 -0.2887  0.0554
16211W        W31342   7.490   3.028  15.383  0.0370 -0.2921 -0.4091
16212W        W31343   6.432   3.241  15.373  0.0718 -0.0905  0.1249
16213W        W31344  13.884  10.310   3.922  0.1506 -0.2384  0.1303
16214W        W31345  17.877  16.137   5.535  0.2381  0.1319 -0.1443
16215W        W31346  10.353   4.505  10.854 -0.1535 -0.3705 -0.3319
16216W        W31347  13.918   7.018  12.802 -0.0395  0.0497 -0.2458
16217W        W31348  12.792   8.708  10.609  0.2948  0.2643 -0.0457
16218W        W31349   2.366  15.178   5.105 -0.1595 -0.1674  0.2549
16219W        W31350  18.655   4.428  13.662  0.4250 -0.3263  0.0043
16220W        W31351  10.176  18.709   5.252 -0.1146  0.2033 -0.3103
16221W        W31352  18.705   8.311  12.762 -0.0787  0.2923 -0.1741
16222W        W31353  15.856   0.905  13.892 -0.0742  0.0222  0.1395
16223W        W31354  10.517   4.860   2.535  0.0294 -0.0528 -0.0831
16224W        W31355   5.204  14.628   1.411 -0.1855 -0.1714  0.0641
16225W        W31356   9.778  11.609   3.352  0.0929 -0.0375 -0.0875
16226W        W31357   3.330  11.079   0.314 -0.0145 -0.2713 -0.1419
16227W        W31358  15.274   7.993   1.679  0.1031  0.1872 -0.0303
16228W        W31359   1.972  13.448   4.346 -0.2782 -0.4210 -0.4114
16229W        W31360  10.959  18.573  14.913 -0.1268 -0.0102 -0.0179
16230W        W31361   5.826   3.788   2.980 -0.0925  0.3069 -0.1451
16231W        W31362   8.160   1.981   1.224 -0.0778  0.0680  0.2571
16232W        W31363  14.377   9.133   3.451 -0.0394  0.1453 -0.0070
16233W        W31364   9.001   4.296   6.249  0.2068  0.3010  0.1824
16234W        W31365  15.511   1.428   1.406 -0.0404  0.0874 -0.0116
16235W        W31366   8.056   2.665  10.551 -0.0754  0.1327  0.3013
16236W        W31367  12.006   0.934   0.483  0.1690 -0.0497 -0.2873
16237W        W31368   9.024   1.576   0.460  0.0827 -0.2863 -0.2294
16238W        W31369   8.582   3.009  14.608  0.1297 -0.0622 -0.3494
16239W        W31370  15.781   9.310   4.569 -0.2128  0.0581 -0.1882
16240W        W31371  11.106  18.683  11.007 -0.3027 -0.1931 -0.0588
16241W        W31372  10.934   5.316   0.308 -0.0435 -0.0635  0.0807
16242W        W31373   2.194   0.857  14.764  0.0315  0.2728 -0.0079
16243W        W31374  12.981  17.161  11.820  0.2799  0.1870  0.3846
16244W        W31375  14.553  11.163  10.289 -0.0727  0.0170 -0.3472
16245W        W31376  16.575   0.767  13.395 -0.1548 -0.0564 -0.1200
16246W        W31377   5.123  10.334   3.064 -0.0448 -0.1730  0.0244
16247W        W31378   7.483   1.087  15.163  0.0029 -0.2083  0.1519
16248W        W31379  18.035  16.477   2.789 -0.1751 -0.3514  0.0041
16249W        W31380   0.168  12.702  12.689  0.0795 -0.0156 -0.3214
16250W        W31381  18.038   3.226   4.936  0.2559  0.1475  0.1950
16251W        W31382  18.396   2.771   5.306  0.2270 -0.0352 -0.1424
16252W        W31383   5.688   7.751   2.924 -0.0493  0.0286  0.0543
16253W        W31384   8.622   0.627   1.770 -0.0006 -0.4897  0.3840
16254W        W31385  18.496  12.230   0.260 -0.1836  0.5260 -0.0148
16255W        W31386  11.280  14.423   3.325  0.2522  0.0027 -0.4219
16256W        W31387   4.873  14.174   0.755 -0.4492 -0.0567 -0.0837
16257W        W31388  16.547   5.277   5.129  0.1336  0.0332  0.3081
16258W        W31389  17.233  13.508  12.806 -0.0906  0.0030 -0.2700
16259W        W31390   1.167   6.519  12.884 -0.2630  0.3425 -0.0619
16260W        W31391  16.694   3.231   3.818  0.0361  0.3805  0.0073
16261W        W31392  12.278  15.647   3.934  0.1183  0.0731 -0.3679
16262W        W31393  11.541  17.357   4.516 -0.2683  0.2344  0.0482
16263W        W31394   4.193   6.114   5.390  0.0135 -0.0787 -0.2341
16264W        W31395   1.669   4.741   1.896 -0.2206  0.0016 -0.0866
16265W        W31396  17.385   6.759  11.602  0.1329 -0.1099 -0.1922
16266W        W31397  10.378   9.270  11.180 -0.5064  0.0616 -0.0934
16267W        W31398   9.852   5.477   1.489  0.1768 -0.0205 -0.2070
16268W        W31399   2.778   3.379  10.772  0.4655 -0.1070  0.0090
16269W        W31400  11.308   7.851   5.319 -0.2567  0.1040  0.1524
16270W        W31401   9.255  16.442   0.454 -0.0419  0.0164 -0.1018
16271W        W31402   8.893  12.375  11.361  0.0137 -0.0453  0.0966
16272W        W31403  11.525   8.588   0.826 -0.0830 -0.0489  0.2231
16273W        W31404  15.900  16.334   9.901  0.5187 -0.1663  0.0708
16274W        W31405  10.219   2.619  11.905 -0.1376  0.0452  0.1454
16275W        W31406   9.250   3.337   1.174  0.3288 -0.1709  0.0295
16276W        W31407   7.369   5.606   3.582  0.2318 -0.2569 -0.1250
16277W        W31408  17.384   4.262  14.588  0.0199  0.3151  0.0381
16278W        W31409   2.749   3.039   1.335  0.0135  0.0750  0.1378
16279W        W31410   1.949  14.980  14.044  0.1795 -0.0329  0.0039
16280W        W31411   2.799   8.106   9.900 -0.1574  0.1052 -0.1916
16281W        W31412   5.339  13.818   4.844 -0.3303  0.0527  0.0768
16282W        W31413   7.806   1.664  12.031 -0.3560 -0.1784  0.3954
16283W        W31414  10.218   2.182  13.601 -0.0578 -0.0857  0.2035
16284W        W31415   8.958  16.947  14.020 -0.0608 -0.3108 -0.1281
16285W        W31416   2.059  12.937  14.503 -0.4238 -0.1997 -0.2310
16286W        W31417   8.104   4.464   6.356  0.3481 -0.2613  0.0337
16287W        W31418   3.717   5.536   0.659 -0.0362  0.0725  0.1867
16288W        W31419   0.146  15.671   9.932 -0.1789 -0.2252  0.1341
16289W        W31420  13.275  18.360  13.568 -0.0226  0.0522 -0.1447
16290W        W31421   2.192  13.609  11.634 -0.1799  0.1219  0.0660
16291W        W31422  11.937   0.817  13.206 -0.1778  0.1474 -0.0772
16292W        W31423   0.909   4.328  13.712  0.1583 -0.1583 -0.1433
16293W        W31424   7.797  14.392   4.810 -0.4418 -0.1614  0.0750
16294W        W31425  13.586   1.392   4.281  0.4134 -0.2004  0.0285
16295W        W31426  16.006  12.350   3.600 -0.0287 -0.2731 -0.0219
16296W        W31427  12.766  10.953  13.636  0.2724 -0.0275 -0.0331
16297W        W31428   0.786  15.972  13.914 -0.1925 -0.0073 -0.1274
16298W        W31429   9.346  17.025   0.053  0.1420  0.0827  0.2117
16299W        W31430  14.953  18.503  12.221  0.4133  0.0085 -0.0062
16300W        W31431   3.987  12.990   5.803 -0.1457  0.1792  0.0642
16301W        W31432   3.846   7.648   4.146  0.0387  0.3551 -0.1488
16302W        W31433  17.831  12.177   4.574  0.2132  0.1256  0.0814
16303W        W31434  16.917  11.943   4.950  0.3883 -0.0992  0.3183
16304W        W31435   2.871  11.200  12.888 -0.2630  0.1333 -0.1414
16305W        W31436  13.265  15.183   0.062 -0.2752 -0.0825 -0.3441
16306W        W31437  18.006   4.391   3.531  0.2780  0.2768 -0.0168
16307W        W31438   6.026  17.906  12.888 -0.2318 -0.1564 -0.0403
16308W        W31439   0.097   5.053  13.828 -0.2425  0.0236  0.0737
16309W        W31440   3.619   4.937  13.079  0.2960 -0.3163 -0.1610
16310W        W31441   0.601  17.437  10.550  0.3843  0.0862  0.2086
16311W        W31442  13.879  11.995  13.660 -0.6009  0.0500  0.1054
16312W        W31443  15.238   2.417  13.702  0.0180 -0.0547 -0.0711
16313W        W31444  11.277  14.014  10.361  0.0828 -0.2210  0.0671
16314W        W31445  10.236  11.334  10.455  0.1435 -0.2729  0.0362
16315W        W31446  10.479  13.922  10.553 -0.1822 -0.0351 -0.0336
16316W        W31447   6.025  17.698  15.102 -0.1216  0.2851 -0.2008
16317W        W31448  13.973   4.583  11.938 -0.0331 -0.4367  0.1239
16318W        W31449  10.554   6.138   3.433  0.2736 -0.0258 -0.1886
16319W        W31450   9.160  13.120   1.073  0.0100  0.0453  0.0012
16320W        W31451  14.452   1.290  14.680  0.0683  0.0784 -0.2468
16321W        W31452   0.663  11.017   3.308 -0.0006 -0.1597  0.0804
16322W        W31453  18.608   5.481   3.030  0.0539  0.0699 -0.1007
16323W        W31454  18.164   9.278  11.157  0.4116  0.1186 -0.0304
16324W        W31455   9.235   1.588   5.047 -0.0507  0.0541  0.0976
16325W        W31456   7.980   4.838  14.718  0.4899  0.1870  0.0705
16326W        W31457  17.991   3.711   4.742  0.2274  0.1385 -0.0768
16327W        W31458   8.150  10.807  13.649 -0.0720 -0.2129  0.1222
16328W        W31459   4.118  10.873   5.770  0.0898 -0.1079 -0.1369
16329W        W31460  14.453   1.650  13.885 -0.0170  0.0812  0.0099
16330W        W31461   5.959  11.428   0.788 -0.1088  0.0544 -0.0027
16331W        W31462  15.638  18.551   2.916  0.2936 -0.0148 -0.3753
16332W        W31463  10.842   7.255   3.802  0.0914 -0.0604  0.0617
16333W        W31464   9.381   9.193  15.095 -0.1605 -0.1121 -0.1360
16334W        W31465   4.570  13.099  11.655  0.4885 -0.3512 -0.1833
16335W        W31466  10.236   9.427   4.696  0.1884  0.2312  0.3513
16336W        W31467   4.959  14.877   2.548  0.3959  0.0376  0.1675
16337W        W31468  14.695   5.507  13.955 -0.1851 -0.0299  0.0476
16338W        W31469   0.485  16.696   0.125  0.0712 -0.4947 -0.2064
16339W        W31470   8.546  18.324  15.279  0.1002  0.1098 -0.1688
16340W        W31471   2.837  12.587  13.404  0.2440 -0.0276 -0.0162
16341W        W31472   5.848   5.091   2.272  0.1286  0.0601  0.0065
16342W        W31473  11.609  15.796   2.909  0.2077 -0.3942 -0.2406
16343W        W31474   6.836   8.939  10.815  0.2420  0.2527 -0.1571
16344W        W31475   7.097  11.915  12.095 -0.1222 -0.1778  0.3787
16345W        W31476  17.654   4.660   0.388  0.0752 -0.1704 -0.0670
16346W        W31477   9.758   6.313  15.489 -0.0077  0.0348 -0.0538
16347W        W31478   5.433   5.461  12.890 -0.0574 -0.1887 -0.1436
16348W        W31479  14.826   2.486  10.781  0.2697  0.1491 -0.0508
16349W        W31480   5.512  15.543   4.377 -0.2062 -0.2196  0.0257
16350W        W31481   5.490  11.882   2.072  0.1221 -0.0575 -0.2401
16351W        W31482  17.056  12.574   2.673  0.1696  0.0489 -0.1813
16352W        W31483  13.650  14.117  11.981 -0.0546 -0.0768  0.2568
16353W        W31484   5.346   9.865   9.423  0.1626 -0.2177  0.1365
16354W        W31485  14.749   5.793   0.578  0.0492  0.0303  0.5079
16355W        W31486   4.844   5.174   4.141 -0.1226 -0.1258 -0.1494
16356W        W31487  13.285   1.473   2.606 -0.4614  0.1836  0.3693
16357W        W31488  10.332   6.903   5.115 -0.1991  0.1062 -0.1540
16358W        W31489  15.183   3.192  13.376 -0.0344 -0.0198 -0.0379
16359W        W31490  10.960   4.823   2.869  0.0512  0.0134 -0.2050
16360W        W31491  18.078  12.357   1.140 -0.1535 -0.0550  0.1320
16361W        W31492   1.291   0.828  13.072  0.1479 -0.2996 -0.3583
16362W        W31493  10.519  18.716   2.079 -0.0468  0.0429 -0.2587
16363W        W31494   9.883   6.041   0.304  0.1997 -0.1465 -0.0954
16364W        W31495  15.509  13.119  13.027  0.0357 -0.0444 -0.0763
16365W        W31496  10.929   8.146   2.107  0.2545 -0.1332 -0.2679
16366W        W31497   4.633  12.441  13.495  0.1437 -0.1107  0.0670
16367W        W31498   4.597  13.405  12.850  0.0808  0.1751 -0.0426
16368W        W31499   2.643   5.162  11.438  0.1737 -0.0064  0.2078
16369W        W31500  17.925   4.635   1.168  0.0747  0.0799 -0.0083
16370W        W31501  13.710   4.465  12.742  0.1227  0.0090  0.0247
16371W        W31502   6.080   0.457  11.805  0.3715 -0.0385  0.2536
16372W        W31503  17.913  18.058  13.699  0.0116  0.2618 -0.2433
16373W        W31504   6.476   8.916  13.477 -0.1512  0.1886  0.2663
16374W        W31505   8.325   1.382   6.382  0.2146  0.1774 -0.1931
16375W        W31506   3.005  14.818   1.590  0.1455  0.3674 -0.1672
16376W        W31507  18.411   8.826  15.643 -0.0751 -0.1956 -0.0044
16377W        W31508  14.584   9.641   0.606  0.0273 -0.1355 -0.1293
16378W        W31509  11.865   8.170   1.528  0.2446 -0.2896 -0.1170
16379W        W31510   7.531  16.999   3.460  0.0944 -0.0494  0.1485
16380W        W31511   1.721  12.076   2.885  0.2145 -0.1171 -0.0506
16381W        W31512  13.566   8.754   2.406  0.1864  0.0318  0.1904
16382W        W31513   5.987  12.891   4.481 -0.0171  0.3533  0.1038
16383W        W31514   1.046   3.406  14.067  0.1056 -0.0623  0.1837
16384W        W31515   7.818   2.573   4.944  0.2779 -0.2946  0.3138
16385W        W31516   2.841   0.938  13.950  0.0093  0.0056  0.5092
16386W        W31517   0.908   7.055   2.428 -0.1521  0.2630 -0.3363
16387W        W31518   4.222   8.549   5.542 -0.1519 -0.1978 -0.3382
16388W        W31519  17.441  11.981  14.827 -0.2427 -0.1774  0.2133
16389W        W31520  14.481  17.727   0.450  0.1091 -0.0847 -0.2476
16390W        W31521   6.035  13.977   2.930  0.0716  0.0544 -0.0995
16391W        W31522   1.218   5.485  11.792  0.0685  0.0907 -0.2064
16392W        W31523  14.438   3.051   4.715 -0.0654 -0.1264  0.3278
16393W        W31524   4.198   9.647  11.601  0.1661 -0.0740  0.2078
16394W        W31525   2.543  18.211   1.724 -0.0394 -0.2948 -0.1293
16395W        W31526   0.583   0.297  14.677  0.0558  0.0490  0.3251
16396W        W31527  14.720  11.463  14.521  0.4538  0.1941 -0.0359
16397W        W31528  17.553   0.221  15.666  0.2585 -0.1770  0.2530
16398W        W31529  15.082   6.182  10.294 -0.0743  0.5292 -0.1121
16399W        W31530   9.950  10.971   4.723 -0.0024  0.1778 -0.0546
16400W        W31531  13.033   9.408   0.232  0.0971  0.2540 -0.1307
16401W        W31532   5.447  14.028  10.950 -0.0930  0.0635  0.0415
16402W        W31533  15.164  11.758   2.812  0.0504 -0.2372 -0.1105
16403W        W31534   8.072  16.160   1.341  0.1846 -0.4123 -0.0222
16404W        W31535   7.280  13.895  10.884 -0.0377 -0.2074 -0.3800
16405W        W31536  13.387  11.339  14.139  0.2112  0.0949  0.4085
16406W        W31537  13.049   7.080  12.656  0.0022 -0.0481  0.0348
16407W        W31538   4.666  14.978   4.314 -0.3309  0.1455 -0.1209
16408W        W31539   6.601  16.360   2.115 -0.1590 -0.3087  0.0210
16409W        W31540  11.959  13.851   1.449  0.2533  0.2016  0.0667
16410W        W31541  15.674   8.925  15.567 -0.0114  0.1203 -0.0060
16411W        W31542   1.471  13.543   0.821 -0.3443 -0.0066  0.0162
16412W        W31543   9.255  12.404  11.857  0.1501  0.2663 -0.0148
16413W        W31544  16.593  10.303  11.824 -0.0584  0.2464 -0.1123
16414W        W31545   1.621   5.679   5.475 -0.0157 -0.0234  0.1071
16415W        W31546   3.650  16.479   1.379  0.0329  0.2707 -0.1240
16416W        W31547  17.563  15.538   0.059  0.4087 -0.1497  0.0833
16417W        W31548   6.253   1.473  15.488 -0.0940 -0.0280 -0.1001
16418W        W31549   2.221   0.398   4.214  0.2726  0.4514  0.1866
16419W        W31550   2.837  17.908  12.122  0.1510  0.0027  0.3264
16420W        W31551   2.560  16.689  14.600  0.1078 -0.0687  0.0385
16421W        W31552  13.887   7.203   1.061 -0.1150 -0.1001  0.0191
16422W        W31553  15.991   3.602   1.533 -0.2034 -0.0382  0.0892
16423W        W31554   6.081   4.629   2.529  0.2387  0.1617  0.1104
16424W        W31555   0.407  10.767   4.401 -0.1152  0.3542 -0.0428
16425W        W31556   7.984  10.811   3.609  0.1893  0.0841 -0.0914
16426W        W31557  18.438   0.839   4.358  0.0764  0.0783 -0.2431
16427W        W31558  14.796   4.840   5.244 -0.2924  0.2571 -0.0760
16428W        W31559  10.942   1.070   2.424  0.2524  0.0523  0.3203
16429W        W31560   3.413  10.845  12.085  0.3027 -0.3443  0.2518
16430W        W31561   7.322   7.312   1.729 -0.1986 -0.0179 -0.1782
16431W        W31562  18.217   2.390   0.471  0.1643  0.0037  0.0116
16432W        W31563   2.647   1.889  14.120  0.1176  0.0173 -0.0595
16433W        W31564   3.540  18.025  15.719 -0.0299  0.3784 -0.0392
16434W        W31565  17.628   5.103  11.478 -0.0106 -0.0794 -0.4075
16435W        W31566   8.109   8.104  11.698 -0.2976 -0.1281  0.0526
16436W        W31567   9.114   1.350  13.951  0.3183  0.0786 -0.3086
16437W        W31568  15.524  17.758  15.599 -0.2369  0.1865  0.0161
16438W        W31569  16.892  15.162   1.382 -0.0295 -0.2756  0.0276
16439W        W31570  15.063   6.453   0.124  0.1000 -0.0405 -0.0362
16440W        W31571  15.655   5.371  13.805 -0.1005 -0.0053 -0.2390
16441W        W31572   1.952  15.162  11.809  0.1034  0.1428  0.0546
16442W        W31573  10.753   7.533  11.296  0.0115  0.0120 -0.1094
16443W        W31574   6.600  15.744   3.499  0.0887  0.0799 -0.2841
16444W        W31575  14.660   6.500  11.322  0.0072 -0.1377 -0.0833
16445W        W31576  18.105   0.245  14.235  0.0950  0.0830 -0.1668
16446W        W31577  12.260  16.817  15.209 -0.0850  0.1213 -0.1079
16447W        W31578  13.685  14.704  13.899  0.1531  0.1899 -0.1174
16448W        W31579   3.191  15.190  11.825  0.1398  0.1848 -0.0372
16449W        W31580  12.588  14.622  10.089 -0.1227 -0.0239 -0.1875
16450W        W31581  15.008   5.436  15.032 -0.1361  0.1900 -0.4087
16451W        W31582   3.798  17.107  14.599 -0.1160  0.0061  0.6010
16452W        W31583  10.165  18.139   4.976 -0.2803  0.0215 -0.1729
16453W        W31584   1.980   9.318  13.163 -0.2428  0.2532  0.1905
16454W        W31585   1.712   7.383  14.278 -0.1093  0.0768  0.2506
16455W        W31586   7.321  11.294   0.645  0.1055 -0.2436 -0.0900
16456W        W31587  15.913   3.896  11.165 -0.0249  0.1355  0.2669
16457W        W31588  16.694  14.562  11.935 -0.0936 -0.0505  0.3446
16458W        W31589   3.603   7.953  10.963 -0.1830  0.1105  0.0319
16459W        W31590  10.640   5.056   2.020  0.0000  0.1440 -0.0495
16460W        W31591   2.906  17.361  12.189  0.1905 -0.3195 -0.1976
16461W        W31592   1.574  15.823   1.217  0.1288  0.0509 -0.0585
16462W        W31593   6.054  18.307   3.899 -0.2265 -0.3069  0.0007
16463W        W31594  11.805  17.583  10.417  0.0877 -0.4715  0.0196
16464W        W31595   8.275  16.305   4.573 -0.0007 -0.1507  0.0576
16465W        W31596  12.558   5.500  10.738  0.2979  0.2464  0.2368
16466W        W31597   7.292  12.414  11.169 -0.1499  0.1054 -0.0930
16467W        W31598   5.514  12.124   3.462  0.1349 -0.2293  0.0498
16468W        W31599  12.678  15.918   2.604  0.1719  0.2012  0.0516
16469W        W31600  10.962   5.979   0.925  0.2511  0.1982 -0.0881
16470W        W31601  11.389   4.044   4.907 -0.2051 -0.1644 -0.1039
16471W        W31602  17.530   1.326  13.062 -0.1232 -0.1686 -0.1834
16472W        W31603  12.118  18.123   3.123  0.1453 -0.1277 -0.0742
16473W        W31604  16.604   8.558  13.559 -0.2457 -0.1921  0.0327
16474W        W31605   4.349   9.948  11.209  0.2556  0.1217 -0.1649
16475W        W31606   3.100   0.285   0.039  0.0537 -0.1822  0.2617
16476W        W31607   0.869   5.726   0.227  0.0407 -0.1016  0.0504
16477W        W31608  15.377  17.691  14.596 -0.3526  0.1414  0.1466
16478W        W31609  17.860  12.713   4.248  0.1517  0.2032 -0.0097
16479W        W31610  15.357  18.127   2.132 -0.2958 -0.0018 -0.4422
16480W        W31611   6.445  11.631   4.429 -0.1856 -0.2482 -0.1635
16481W        W31612   7.090  12.670   5.936  0.2225 -0.1872  0.0303
16482W        W31613  10.093   3.666   6.050  0.1248  0.0444  0.2430
16483W        W31614   8.121   1.390   2.503  0.0761  0.2605 -0.0236
16484W        W31615   2.943   2.564   4.642 -0.0198 -0.4683  0.0971
16485W        W31616   2.002  11.087  12.642 -0.1995 -0.3277 -0.1238
16486W        W31617   3.179   5.708   2.616 -0.0652 -0.3766  0.2049
16487W        W31618   5.963  15.214  11.309 -0.0320 -0.0989  0.3879
16488W        W31619   1.552   1.984   4.212  0.0694  0.0859  0.0182
16489W        W31620  14.724   6.739   1.534  0.1600  0.0633  0.1241
16490W        W31621  17.289  18.178   4.138 -0.0659  0.0728 -0.2415
16491W        W31622  16.764   9.978   1.078  0.3472  0.4920 -0.3124
16492W        W31623   4.831   8.837   2.022 -0.1690  0.1140 -0.0561
16493W        W31624  15.649   1.310   3.734 -0.1620  0.0482  0.0261
16494W        W31625  17.120   0.580  11.123 -0.2456 -0.1929  0.2696
16495W        W31626  14.593  13.299   2.098 -0.1322  0.2134  0.0539
16496W        W31627  13.705  16.943   2.148  0.1338 -0.2326  0.0837
16497W        W31628   3.053   3.145  15.085 -0.0450 -0.3534 -0.0167
16498W        W31629  10.396  17.672  13.279 -0.1361  0.2247  0.2036
16499W        W31630   4.236   1.626  11.751 -0.1894  0.1257  0.2281
16500W        W31631   8.681   5.994  12.490  0.4096 -0.1244 -0.1844
16501W        W31632  16.968   9.155   5.618 -0.1288  0.0152 -0.1761
16502W        W31633   8.795   0.394   3.944  0.1763  0.0398  0.3343
16503W        W31634  17.504   2.757  11.754  0.0305 -0.0702 -0.2772
16504W        W31635   6.754   4.563   4.352 -0.4633 -0.0586  0.0174
16505W        W31636   1.892   3.740   2.900  0.1067  0.2851  0.2680
16506W        W31637  11.791   9.992   4.313 -0.2895 -0.2004 -0.0032
16507W        W31638  17.924   1.079   3.464  0.3305  0.3219 -0.0667
16508W        W31639  13.870   1.045  11.468 -0.0702  0.0524 -0.1471
16509W        W31640   1.486  12.894  13.402 -0.0569 -0.0703  0.1927
16510W        W31641  17.136  13.710   1.981  0.1407  0.0150 -0.0074
16511W        W31642   4.251  14.977  14.357 -0.1031 -0.1618  0.0116
16512W        W31643   5.567   1.014   4.264 -0.0665 -0.2354 -0.2804
16513W        W31644   1.019   6.177   1.999 -0.0376 -0.1944  0.3355
16514W        W31645  16.903  17.982  10.646 -0.4242  0.0321  0.1003
16515W        W31646  15.156  12.730   3.559  0.2029 -0.1460  0.1756
16516W        W31647  14.890  18.573  12.860 -0.1483 -0.5821 -0.0605
16517W        W31648  12.267   7.398  11.558 -0.0858 -0.2479  0.1671
16518W        W31649   0.770  11.941   3.140 -0.2800  0.1061 -0.1331
16519W        W31650   6.861  16.675  15.739  0.0450  0.2589 -0.1174
16520W        W31651   1.145   7.601   4.529  0.1608  0.0636  0.3204
16521W        W31652   0.281  17.604   5.858 -0.0516 -0.0609  0.0619
16522W        W31653   8.273   4.526   1.022 -0.0234  0.0495 -0.1650
16523W        W31654  15.308   1.198  12.318  0.1468 -0.0219  0.0097
16524W        W31655   9.913   4.997   3.261  0.0502  0.1280  0.0343
16525W        W31656  10.870   7.604   9.466  0.2610 -0.0188  0.3197
16526W        W31657   0.931   1.365   4.649  0.0650 -0.3104  0.0093
16527W        W31658   1.439  11.029   3.876  0.1160  0.2084  0.3050
16528W        W31659  18.490   3.192   2.819 -0.1412  0.0898 -0.1627
16529W        W31660  15.756   9.235   0.820  0.1007 -0.1263 -0.0249
16530W        W31661   4.658  15.953  13.672 -0.5865 -0.0388  0.0025
16531W        W31662  11.011  13.592   1.718 -0.0552  0.1311  0.3000
16532W        W31663  10.419   7.399   5.136  0.1462  0.1930  0.0252
16533W        W31664   3.553  17.128   0.292  0.3959 -0.1799  0.0069
16534W        W31665  14.736  16.596  15.204  0.2216  0.0583 -0.0843
16535W        W31666   0.779   8.184  13.989  0.1645  0.0131  0.0761
16536W        W31667   0.254   2.146  10.823 -0.0895  0.1800  0.3308
16537W        W31668  11.665  15.845  15.580  0.3988  0.4125 -0.0282
16538W        W31669   4.395  11.800  15.215  0.1031  0.0353  0.0107
16539W        W31670   8.204   9.962   1.554 -0.0635 -0.1906 -0.1605
16540W        W31671  11.931  15.304   2.998 -0.0571  0.0617  0.3435
16541W        W31672   1.916   0.083  13.865 -0.1506  0.0890  0.3916
16542W        W31673  16.053  17.013  14.832  0.1104  0.0257  0.0941
16543W        W31674  12.637  17.954   4.089 -0.0462 -0.0893 -0.0647
16544W        W31675  12.419  12.247  10.740 -0.2128  0.0181 -0.1950
16545W        W31676  15.117  16.361   3.387 -0.0870  0.3488 -0.0318
16546W        W31677  11.125  18.103  14.971 -0.1720 -0.1154  0.2387
16547W        W31678  18.565  18.617  12.935  0.2585 -0.1242 -0.0919
16548W        W31679   4.383   6.268  10.683  0.1650 -0.0879  0.0951
16549W        W31680  13.494   6.082   1.176  0.0900 -0.1947 -0.0784
16550W        W31681   9.923  10.460  11.947 -0.0353  0.1329 -0.2034
16551W        W31682   7.207   8.749  11.579 -0.0623  0.3528  0.3919
16552W        W31683  11.214  13.759  13.081 -0.2523  0.0819 -0.0070
16553W        W31684  15.956   1.117   3.378 -0.2102 -0.0952 -0.0754
16554W        W31685   0.272  17.470  15.186  0.0126  0.0518  0.0384
16555W        W31686  16.466  18.308  12.461 -0.0817  0.1407 -0.2187
16556W        W31687   6.868   4.031  14.431  0.0617  0.1374 -0.0898
16557W        W31688   5.363   9.886  11.795 -0.3637  0.5031 -0.2635
16558W        W31689  13.054  12.423  15.140  0.0364  0.3926  0.1192
16559W        W31690   5.018  14.603   0.899  0.6046 -0.4617  0.1931
16560W        W31691   0.596   9.479   0.566 -0.1374 -0.0978 -0.1272
16561W        W31692   7.960   9.506   1.827 -0.2791  0.1490  0.3521
16562W        W31693   7.256  17.772   3.152  0.1427  0.0441  0.0140
16563W        W31694   9.742  12.139  10.613  0.3421 -0.0983  0.0802
16564W        W31695   0.262  15.025  11.463 -0.1085  0.1338  0.0181
16565W        W31696   9.882   4.677  15.086 -0.0842 -0.0132 -0.0130
16566W        W31697   1.964   9.403   1.000 -0.2024 -0.0366  0.0689
16567W        W31698  12.814  10.361  11.691  0.1505  0.0837 -0.5759
16568W        W31699   0.226   1.212   0.970  0.0781  0.3277 -0.1132
16569W        W31700  12.462  13.053   3.879  0.0525 -0.0743 -0.0781
16570W        W31701   1.679   4.888  14.314 -0.0719  0.0163  0.0059
16571W        W31702  12.206  15.987  15.017 -0.1473 -0.1920 -0.0583
16572W        W31703  10.124  12.334   2.141  0.0145 -0.1059 -0.0598
16573W        W31704  12.887   9.700   4.740  0.1007 -0.1696  0.1449
16574W        W31705   2.115  18.048  12.252 -0.0982  0.1944  0.1025
16575W        W31706  18.707  15.458   0.834 -0.0869 -0.4690 -0.1408
16576W        W31707  12.739  16.257  11.030 -0.1244  0.1988  0.1551
16577W        W31708   9.621  13.993  11.220 -0.0239  0.1637 -0.2157
16578W        W31709  16.812  13.874  12.815 -0.2325 -0.0697  0.1194
16579W        W31710   3.599  10.753   0.592  0.2350 -0.0617  0.0777
16580W        W31711   0.234  11.288   3.832 -0.0046 -0.1582 -0.0856
16581W        W31712   6.105  17.254   2.019 -0.1614 -0.3041  0.1379
16582W        W31713   4.738  13.127   5.426  0.3235  0.0824 -0.0882
16583W        W31714   4.439  13.179  14.186  0.0138 -0.0072 -0.2131
16584W        W31715   7.445  12.741   1.952 -0.0196  0.0129  0.0329
16585W        W31716  13.162  17.256   0.820 -0.0272  0.2929  0.2147
16586W        W31717   9.299   0.692  12.107 -0.0682  0.0342  0.3087
16587W        W31718   0.754   3.601  10.616 -0.0359 -0.1839 -0.1139
16588W        W31719   1.191   8.065   2.452 -0.1344 -0.1130 -0.3155
16589W        W31720  15.522   2.404   1.904 -0.0513 -0.0359 -0.1188
16590W        W31721   5.577   2.988   4.288 -0.3403  0.0954 -0.1034
16591W        W31722   7.839   3.738  15.600 -0.0518 -0.1602  0.0389
16592W        W31723   2.184  18.388  15.668  0.0311 -0.0229  0.1920
16593W        W31724  12.612  17.289  11.236 -0.0905  0.0382 -0.0694
16594W        W31725  17.228   9.138   2.365 -0.1550 -0.1677 -0.0307
16595W        W31726   1.532  10.371   5.764 -0.3028  0.1920  0.0923
16596W        W31727   0.004  11.262  13.866 -0.0003  0.1845  0.1175
16597W        W31728   6.887  17.210   6.088 -0.1746  0.2762 -0.1291
16598W        W31729  18.367   0.124   2.222 -0.3351 -0.3606  0.0551
16599W        W31730  17.148  11.301  15.171  0.5088  0.3281 -0.4971
16600W        W31731   0.714  16.380  13.536 -0.0573  0.1978  0.2342
16601W        W31732  11.902   1.490   0.388  0.1234 -0.0175  0.4344
16602W        W31733   1.100   0.083   3.669 -0.2380 -0.0127 -0.0967
16603W        W31734   7.530  10.886  13.714  0.0144  0.1597  0.1220
16604W        W31735  11.046  12.623   0.352 -0.1133  0.3586 -0.2509
16605W        W31736   3.769   8.415  14.858 -0.1866 -0.0565 -0.0851
16606W        W31737   4.130   1.074  15.480  0.0732  0.1722 -0.1515
16607W        W31738   4.163   9.084  13.717 -0.0739 -0.1214  0.0085
16608W        W31739  13.398   4.316   1.447  0.0445 -0.1175 -0.0854
16609W        W31740  12.371   2.956  12.670 -0.3035 -0.3193 -0.1514
16610W        W31741  14.022   1.299   1.226 -0.0853  0.0087 -0.0903
16611W        W31742   8.061   5.793  13.475 -0.4461 -0.2448 -0.0028
16612W        W31743  15.294   2.977  15.214 -0.4782 -0.2191 -0.2827
16613W        W31744  12.602  13.987  13.079 -0.0369 -0.0197  0.1313
16614W        W31745  10.443   0.832   2.455 -0.0154  0.1534 -0.0407
16615W        W31746  11.649   3.937  12.616 -0.1764 -0.0242  0.0407
16616W        W31747   9.361   0.837  15.726  0.0074  0.0064  0.1328
16617W        W31748   0.824  15.970  11.254  0.1333 -0.1663  0.1498
16618W        W31749   1.114   7.294  14.568 -0.0590 -0.0061  0.1434
16619W        W31750  13.069   5.140   1.622  0.1796 -0.1300 -0.4833
16620W        W31751   8.301   4.315   3.049  0.2287 -0.0659  0.1391
16621W        W31752  13.781   2.291   1.287 -0.0623 -0.2681  0.1045
16622W        W31753   8.218  13.462  10.599  0.3730  0.0925 -0.0725
16623W        W31754   3.670  15.342   0.206 -0.1406  0.0459 -0.0582
16624W        W31755  14.578  13.617   1.491 -0.1706 -0.2028 -0.0139
16625W        W31756   9.756   6.749   1.717  0.2018 -0.1752  0.0831
16626W        W31757   6.017   8.402  11.904 -0.1743  0.2969  0.0655
16627W        W31758   5.564  15.088   2.242 -0.2119 -0.0779 -0.0231
16628W        W31759   0.057   7.391  10.724  0.0969 -0.2727 -0.3146
16629W        W31760   9.993  11.379  11.189  0.1974 -0.1196 -0.0805
16630W        W31761   8.672   5.542  10.537  0.1777  0.0021  0.0195
16631W        W31762  18.122  11.768  15.094  0.0059 -0.2896 -0.1345
16632W        W31763  12.108   2.504   2.379  0.1056  0.1908  0.1141
16633W        W31764  12.880   1.239   1.648 -0.1043 -0.0939 -0.0618
16634W        W31765   1.159   4.256   1.486  0.1148  0.4294 -0.1841
16635W        W31766  12.946   4.958  12.407 -0.0404  0.2719  0.0900
16636W        W31767   6.996   7.463  12.209 -0.1045  0.1726  0.0749
16637W        W31768  12.156   7.823  11.232 -0.0674 -0.0135  0.0706
16638W        W31769   9.946  10.617  15.195 -0.3204  0.4349 -0.1175
16639W        W31770  14.293  11.216   2.533 -0.3615 -0.1426 -0.0142
16640W        W31771  11.133   5.038  10.803  0.1424 -0.3229  0.1497
16641W        W31772  18.289   2.310   3.579  0.0217  0.0091  0.0463
16642W        W31773   9.488   7.475  10.795  0.2164  0.3182  0.0028
16643W        W31774  10.198   1.486   0.076  0.3792 -0.1030 -0.1136
16644W        W31775  16.132   9.758  12.917  0.3441  0.1657  0.0197
16645W        W31776   4.622  13.533   4.892  0.1927 -0.1046  0.0766
16646W        W31777  16.228   6.761  12.304  0.1789 -0.1943  0.0726
16647W        W31778  14.900   1.364  11.602 -0.0481  0.3883  0.0966
16648W        W31779  10.176   7.478  15.191 -0.1221 -0.0935 -0.0249
16649W        W31780  17.557   3.805  14.715  0.0848 -0.3082 -0.0680
16650W        W31781   9.802  14.184  11.989  0.2198  0.0156 -0.1007
16651W        W31782   5.883   2.994   3.900 -0.1252  0.1048  0.0564
16652W        W31783   3.062  17.061   3.932  0.0171 -0.4414 -0.2169
16653W        W31784   3.417   2.840   2.589 -0.0969  0.0287 -0.1687
16654W        W31785  17.461   3.905   0.495  0.1104 -0.1980  0.0863
16655W        W31786  12.902  12.225   1.359 -0.1210 -0.0570  0.3496
16656W        W31787  15.395   4.394   4.709  0.0061 -0.2134 -0.0986
16657W        W31788   0.456   0.031   1.658 -0.0144 -0.4493  0.0926
16658W        W31789   0.884  14.716   2.744 -0.4672 -0.0409 -0.0269
16659W        W31790   1.549  13.513   3.936  0.0681 -0.0628 -0.2650
16660W        W31791   5.084   2.862  10.584  0.3731 -0.0695  0.2175
16661W        W31792   8.939  11.925  15.114 -0.2167 -0.1126 -0.3637
16662W        W31793  15.477  16.452  11.636 -0.2888 -0.1292  0.1997
16663W        W31794  15.927   1.614  14.549 -0.1043 -0.3985 -0.2677
16664W        W31795   7.089   8.038  13.606  0.3687 -0.0447  0.0401
16665W        W31796  14.298  14.468  11.400  0.3141  0.0156  0.3097
16666W        W31797   4.183   2.226   5.144  0.0942 -0.0113 -0.0603
16667W        W31798   5.694  12.086   0.491 -0.1296 -0.2424  0.3544
16668W        W31799  15.911  10.345   4.241 -0.0047  0.0119 -0.0088
16669W        W31800   8.437  14.621   2.965 -0.0905 -0.1065 -0.0830
16670W        W31801   4.930   9.543  15.487  0.1270 -0.0277  0.1681
16671W        W31802  18.313  11.673  11.646 -0.0978  0.2749 -0.0326
16672W        W31803   9.704   0.878   2.123  0.2257 -0.1488 -0.0516
16673W        W31804   5.593   3.688  12.849  0.1526 -0.1303  0.2272
16674W        W31805   7.388   1.457   5.019 -0.1650 -0.1523 -0.2035
16675W        W31806  16.962  10.028  13.930  0.1318  0.3025 -0.1666
16676W        W31807   3.458  17.549   5.149 -0.0340  0.2909 -0.1166
16677W        W31808  10.485  11.468  11.630  0.1768 -0.1036  0.1352
16678W        W31809  12.808  11.712  15.291  0.1405 -0.2765  0.1485
16679W        W31810  15.292  13.728  15.020  0.1737  0.1422 -0.1550
16680W        W31811   3.860  13.353  12.337  0.2333 -0.0930  0.1930
16681W        W31812   3.931  16.763  12.897 -0.2032  0.2125  0.1334
16682W        W31813   7.492  17.612   0.157 -0.0841  0.0689 -0.3294
16683W        W31814   8.960   7.509   4.275  0.1129  0.6029 -0.1817
16684W        W31815  10.878   5.406  11.001 -0.0371  0.0073  0.1140
16685W        W31816   0.616   3.609   4.689 -0.0726  0.2611 -0.1204
16686W        W31817  11.850   2.834   3.185 -0.0617 -0.2011  0.0484
16687W        W31818   2.777   9.221   3.394  0.2148  0.1078 -0.1967
16688W        W31819   1.023  18.524   1.448  0.3903 -0.2878  0.1981
16689W        W31820  18.275  11.370   0.575 -0.1658  0.0743 -0.1100
16690W        W31821  12.444   5.328  12.236 -0.0218 -0.0156 -0.0601
16691W        W31822  10.329  15.325  12.700  0.1126 -0.3135  0.2161
16692W        W31823   3.238  14.193   1.528 -0.2875  0.1612  0.0156
16693W        W31824  12.763  16.603  13.913  0.2049 -0.0954  0.1327
16694W        W31825   4.969  14.774  13.394  0.0844  0.0282 -0.2295
16695W        W31826  17.026   2.260  15.712  0.2236 -0.0633  0.3497
16696W        W31827  18.649   2.148  11.280 -0.1124 -0.0933 -0.1860
16697W        W31828   8.270   1.566  15.337  0.3170  0.4703  0.2374
16698W        W31829   3.521  17.421   2.325 -0.0180  0.0002  0.3934
16699W        W31830   2.647   6.287   4.808  0.0394 -0.0272 -0.1455
16700W        W31831   7.771  17.031   2.687 -0.1285  0.1024 -0.2322
16701W        W31832   5.348   8.897   0.146  0.2206  0.2322 -0.0366
16702W        W31833  13.813  12.812  12.336  0.1742  0.0592 -0.3011
16703W        W31834  11.072  18.280   4.661 -0.1973  0.0901 -0.1550
16704W        W31835   9.710   5.947   9.019 -0.2632  0.0800  0.0920
16705W        W31836   5.441  10.562   0.606  0.1871 -0.2235  0.0465
16706W        W31837  15.923   2.969   4.352 -0.0771 -0.0264  0.1550
16707W        W31838  10.481   5.825   0.854  0.1954 -0.0322  0.1143
16708W        W31839   5.055  10.050  13.186 -0.0131 -0.3030  0.0724
16709W        W31840   6.995   9.284  11.586 -0.2629  0.0841  0.0217
16710W        W31841  16.499   5.457  15.073  0.3115 -0.3658  0.1611
16711W        W31842  13.949   4.436  15.048  0.2102  0.3576  0.0837
16712W        W31843   5.802   0.311   2.590  0.0478 -0.0831 -0.0338
16713W        W31844   7.857   7.340   9.337  0.1368 -0.1793 -0.1020
16714W        W31845   7.868  18.401   0.717 -0.0938 -0.0349  0.1641
16715W        W31846   8.706   9.597   2.243 -0.1325  0.0415 -0.0181
16716W        W31847   6.895  11.623  13.223 -0.2629  0.1001 -0.1571
16717W        W31848  13.002  16.251  15.083  0.1528 -0.0431  0.1709
16718W        W31849   7.180   7.818  10.832  0.0738 -0.1749  0.0577
16719W        W31850   0.320  18.561   6.057 -0.2080  0.4322 -0.1937
16720W        W31851  10.444  18.533   9.692 -0.0125 -0.1449  0.1692
16721W        W31852  16.771  12.462  11.428  0.0995 -0.3807  0.3530
16722W        W31853  13.012   9.742  15.090 -0.1762 -0.2040  0.0517
16723W        W31854   5.295  10.517  11.234  0.0568  0.1080  0.0091
16724W        W31855  16.965  13.831   3.229  0.2344 -0.0292 -0.1949
16725W        W31856   5.915  18.171  15.264  0.0566 -0.1048  0.0783
16726W        W31857  17.674   4.780  12.451  0.0628  0.1328 -0.3909
16727W        W31858  13.836  18.193  12.848 -0.1032 -0.1133  0.2299
16728W        W31859   6.519   5.634  12.248  0.2353  0.1661 -0.2854
16729W        W31860   8.562   3.706   1.718 -0.1906 -0.0825 -0.3081
16730W        W31861   8.141  15.877  11.792 -0.0126  0.1908 -0.2187
16731W        W31862   9.983  18.345   4.282 -0.2951  0.0035  0.0895
16732W        W31863  12.058   0.301   3.709 -0.1816  0.0927 -0.2876
16733W        W31864   7.000   8.452  12.662  0.2116 -0.2882  0.4604
16734W        W31865  16.831  15.058   0.429 -0.2449 -0.3232 -0.3518
16735W        W31866  16.731  18.062  11.278  0.1182  0.0284 -0.1160
16736W        W31867  13.106  11.524  11.606 -0.1017 -0.0526 -0.0880
16737W        W31868  10.046   6.727   2.111 -0.1147 -0.1084 -0.0682
16738W        W31869  12.627  15.582  15.797  0.2526  0.1112 -0.5055
16739W        W31870   1.890   0.960   0.115 -0.0141 -0.0131 -0.3088
16740W        W31871   4.177  15.518   5.073  0.1722 -0.0217  0.2077
16741W        W31872  10.575  17.136  12.387 -0.0915  0.4776  0.0859
16742W        W31873   0.455   1.307   4.362  0.0918 -0.1246  0.0232
16743W        W31874  18.346   5.279  13.554 -0.0882 -0.1977  0.3030
16744W        W31875   6.386  14.314   0.188 -0.3611 -0.1524 -0.1097
16745W        W31876  17.834  15.068   1.250 -0.1205  0.3689 -0.0084
16746W        W31877  10.223   0.304   6.159  0.0124  0.0315  0.0530
16747W        W31878   3.330   1.093  12.196  0.1770  0.0609  0.1111
16748W        W31879   1.170  14.504   5.002  0.1234  0.1769  0.0244
16749W        W31880  10.538   2.483  11.040  0.3412  0.2677 -0.0547
16750W        W31881   4.485   3.724   1.961 -0.1815  0.0780 -0.1001
16751W        W31882   7.896  13.028   5.219 -0.0403  0.0724  0.2206
16752W        W31883  16.980   5.755  11.950  0.0055 -0.3778 -0.0705
16753W        W31884   6.474  15.669  11.486  0.1784 -0.0253 -0.0667
16754W        W31885   6.230   6.024   0.777 -0.3508 -0.0671  0.0816
16755W        W31886   4.529  14.169   0.142  0.1866  0.1536  0.1794
16756W        W31887   1.096  17.517  11.806 -0.1226  0.1637 -0.3318
16757W        W31888   7.578   8.898   9.813  0.1112 -0.0323  0.0594
16758W        W31889   8.548  17.788   3.870 -0.3519  0.0838 -0.3324
16759W        W31890   0.903   3.810   1.441 -0.1142 -0.2740 -0.2674
16760W        W31891   5.244   3.973   2.874  0.0369  0.5188  0.2878
16761W        W31892  14.621  16.942   3.225  0.2101  0.3240  0.1968
16762W        W31893   9.265   0.979  14.989  0.0422 -0.1626  0.4033
16763W        W31894  17.928   2.152   0.098  0.0449  0.1232  0.2035
16764W        W31895   0.804   9.246   3.919 -0.0404  0.0855 -0.0947
16765W        W31896  15.067   8.910   2.867  0.0245  0.1760 -0.1316
16766W        W31897  10.270   1.791   5.033 -0.1114 -0.0061  0.1298
16767W        W31898  12.372   7.613   1.110  0.0494  0.1581  0.0511
16768W        W31899   3.562  10.449  15.079  0.0077 -0.1666  0.1310
16769W        W31900  11.928  16.558  15.020  0.2800 -0.2941  0.1338
16770W        W31901   7.230   4.649  11.762  0.2429  0.0478  0.0755
16771W        W31902  13.539   0.086   1.262 -0.1755 -0.0028 -0.1846
16772W        W31903   5.418   2.362  13.964  0.2588 -0.1024 -0.0893
16773W        W31904  11.364   6.957  13.801  0.0137  0.2119 -0.0719
16774W        W31905  17.565   6.239   3.500  0.1732 -0.1070 -0.0739
16775W        W31906  14.534   4.589  14.045 -0.0622 -0.0233  0.4396
16776W        W31907  10.168  12.778   1.824  0.0155  0.0255 -0.1410
16777W        W31908   4.713   0.820  11.893  0.3267  0.1462 -0.2094
16778W        W31909  12.218   1.735  11.960  0.1110  0.0341  0.1417
16779W        W31910  13.187  16.614  14.775  0.1182 -0.3351 -0.0858
16780W        W31911  11.490  12.605   2.361 -0.0371  0.1497 -0.0145
16781W        W31912   6.587  11.794  10.586 -0.2011  0.1598 -0.0467
16782W        W31913  10.950   9.576   5.272  0.1193 -0.1017  0.0320
16783W        W31914  14.709  12.068   5.027  0.0349 -0.1757  0.0652
16784W        W31915  15.584   0.206  11.569  0.2683 -0.1466  0.0765
16785W        W31916   1.064  10.302  12.586  0.1274  0.2198  0.0444
16786W        W31917  17.783   0.830   2.418 -0.1944  0.1154  0.0123
16787W        W31918   0.142  16.905   5.150 -0.4300 -0.2018 -0.1613
16788W        W31919  16.122  14.579  11.771  0.1835 -0.1797 -0.0801
16789W        W31920   4.303   0.744  11.380  0.0491  0.0779 -0.3802
16790W        W31921  11.101   1.339   3.841  0.0303  0.2431 -0.2737
16791W        W31922  13.720   0.190  10.854  0.2037  0.0981  0.2350
16792W        W31923  11.246   9.961   2.341 -0.0767 -0.0005  0.3029
16793W        W31924   0.978  17.270   4.704  0.0373 -0.1256  0.0029
16794W        W31925  13.805   6.006   2.603  0.0439  0.2176 -0.1300
16795W        W31926   8.438  18.602   1.197 -0.2528  0.0426 -0.1773
16796W        W31927  14.367   1.834  13.254 -0.0843  0.1533 -0.3934
16797W        W31928   4.157   1.186  14.573  0.0332  0.1439  0.1988
16798W        W31929   7.250  18.725  12.367 -0.1880  0.1268  0.1383
16799W        W31930  13.382   7.983  12.173  0.2193  0.1477 -0.2208
16800W        W31931  17.338  15.706   0.895  0.0463 -0.0851 -0.1909
16801W        W31932   4.230   8.494  12.002 -0.2047 -0.1088  0.3453
16802W        W31933   2.519   0.752  10.957  0.0544 -0.2697 -0.3490
16803W        W31934   0.087  15.789   3.064 -0.2832 -0.2877 -0.3105
16804W        W31935   4.867   9.862   1.545  0.2456 -0.0406 -0.0134
16805W        W31936  11.799  18.234   1.074 -0.2434  0.0532  0.1077
16806W        W31937  12.778  12.568  11.282 -0.2521  0.0592  0.0244
16807W        W31938   4.148  14.194  13.661 -0.1273  0.2357  0.4585
16808W        W31939   4.889  16.438   0.701  0.0331  0.1462 -0.0193
16809W        W31940  10.112   1.150   0.418 -0.0478  0.1921  0.2312
16810W        W31941  10.964   8.087   1.520 -0.1640  0.1303  0.1271
16811W        W31942   3.111  14.702   3.174 -0.5099 -0.3763  0.0372
16812W        W31943   8.417   5.368   5.394  0.0846  0.1107  0.0866
16813W        W31944   5.882   6.286  14.786 -0.0662 -0.2772 -0.2092
16814W        W31945   6.376  14.127  12.228 -0.1336  0.0005  0.1460
16815W        W31946  18.195   7.770  12.211 -0.0034 -0.0112  0.0363
16816W        W31947  18.254   0.242   2.692 -0.1845  0.3570  0.2426
16817W        W31948  17.111  16.276   4.420  0.5300 -0.3856 -0.0508
16818W        W31949   3.837  18.237  11.957  0.0598 -0.2383 -0.0158
16819W        W31950  18.424  15.715  15.783 -0.0089  0.3939 -0.0880
16820W        W31951   9.583   3.387  11.825 -0.1006  0.0530 -0.0863
16821W        W31952   4.870   6.507  10.751 -0.1603  0.3704 -0.1890
16822W        W31953  12.671  11.386   4.282  0.1247  0.0374 -0.1384
16823W        W31954  15.849   5.180  14.363  0.2374  0.1800  0.0554
16824W        W31955   4.178  13.569  11.187 -0.0481 -0.1420  0.0052
16825W        W31956   5.675   8.890  12.165 -0.1065 -0.1780 -0.1708
16826W        W31957  14.332  10.248  12.410 -0.1501 -0.0916  0.0428
16827W        W31958   2.675  13.515   1.321 -0.1954  0.3468  0.0960
16828W        W31959   5.771   8.511   3.863  0.4690 -0.0107 -0.0288
16829W        W31960   1.490   3.318   5.781  0.0377  0.0550  0.1829
16830W        W31961   7.791  10.927  10.179  0.1888 -0.0901 -0.2330
16831W        W31962   4.003  16.891   0.277 -0.1820  0.1465 -0.1455
16832W        W31963   9.561   4.445  14.003  0.2304  0.1884 -0.1331
16833W        W31964   7.105  17.673  12.553  0.0222 -0.2106 -0.2402
16834W        W31965  14.825   1.255  12.117 -0.2608  0.0511 -0.1562
16835W        W31966   7.003   3.757  13.890  0.1267  0.2336  0.0886
16836W        W31967  14.760   4.081   2.489  0.0857 -0.4490  0.3442
16837W        W31968   7.207   9.586  13.148  0.3210  0.1556 -0.1007
16838W        W31969  10.740   2.437   2.078 -0.2409  0.3187 -0.0517
16839W        W31970  14.667  10.205  14.604  0.0058  0.0279  0.0329
16840W        W31971  12.157   3.503  13.948 -0.0013 -0.0868 -0.1901
16841W        W31972  12.579  17.189  15.292 -0.1762  0.1519 -0.1461
16842W        W31973  18.300   9.887  14.655  0.2796  0.0479 -0.0897
16843W        W31974   3.609   0.017  11.291 -0.2112  0.1419  0.1312
16844W        W31975  16.287   6.914   5.641  0.3268  0.1200 -0.0082
16845W        W31976   6.749   6.823   3.915  0.2122  0.1013  0.2016
16846W        W31977   0.603   6.088  10.807  0.1015  0.3349  0.0666
16847W        W31978  13.486  14.439   2.662  0.1473 -0.0778 -0.0151
16848W        W31979   8.552   3.418   0.830 -0.1882  0.1881  0.0251
16849W        W31980   4.708  17.038   1.937  0.0684  0.0331 -0.4326
16850W        W31981   5.675   7.573   4.238 -0.0744 -0.3685 -0.1539
16851W        W31982   5.646  11.950  15.295 -0.1260  0.3219  0.1166
16852W        W31983  16.002   7.584   5.604  0.5285  0.1136 -0.1002
16853W        W31984   2.216   7.776  12.923  0.0445 -0.0640 -0.1133
16854W        W31985   5.793  11.810  13.941 -0.1075  0.1005 -0.3772
16855W        W31986   9.298   4.492  11.227  0.1446  0.0950 -0.1075
16856W        W31987   8.785   6.224   5.900  0.0814  0.1168  0.1729
16857W        W31988  18.052   8.789   2.161  0.1231 -0.2218 -0.0439
16858W        W31989   1.955  16.066   0.946  0.2080 -0.2707 -0.0675
16859W        W31990   0.509  17.974  10.292 -0.3148 -0.0845 -0.2451
16860W        W31991   5.069  11.838  13.021 -0.2651  0.1284 -0.1910
16861W        W31992  15.067  13.051   4.975  0.0759 -0.3008  0.0884
16862W        W31993   5.494   2.064   2.309 -0.2203 -0.0883 -0.0165
16863W        W31994  17.571  16.826  12.793  0.3046  0.0788 -0.0684
16864W        W31995  15.394  10.966   5.397 -0.1068  0.0965  0.1847
16865W        W31996   1.007   4.109  12.502  0.2214  0.1880 -0.2618
16866W        W31997  10.074   6.620  11.891 -0.3106  0.0480  0.1478
16867W        W31998   9.085  12.451   0.571  0.1454 -0.1671  0.0878
16868W        W31999  15.207  10.092   0.681 -0.0025 -0.0702 -0.1199
16869W        W32000  17.065  15.872  14.198 -0.1718  0.0010 -0.1844
16870W        W32001  16.040  12.863   4.942  0.1310  0.4288  0.1264
16871W        W32002   4.057  11.670  11.687  0.0661 -0.1653  0.1117
16872W        W32003  10.629   8.838   3.143  0.2283 -0.2272  0.1844
16873W        W32004   7.852   9.232   2.388 -0.0655 -0.3301  0.0429
16874W        W32005  16.526   3.447  10.846 -0.0224  0.1915 -0.1841
16875W        W32006  15.527  11.050  13.847 -0.0665 -0.2797  0.3183
16876W        W32007  17.605  17.665  14.498  0.0751  0.3269  0.1366
16877W        W32008  17.202   7.531   4.682 -0.3877  0.1686 -0.0194
16878W        W32009   7.460   4.055   3.310  0.1373  0.1025  0.2133
16879W        W32010   0.928  17.901   2.855  0.4335 -0.2806  0.2299
16880W        W32011   0.885   0.741  15.350  0.0060 -0.0836  0.0807
16881W        W32012   7.122   1.119   1.048  0.1828 -0.1244 -0.1302
16882W        W32013  16.546   2.950   1.372 -0.2208 -0.0492  0.2568
16883W        W32014   2.121   1.396   2.775  0.0088 -0.1746 -0.0636
16884W        W32015   9.701  17.094  14.528  0.3698  0.0196 -0.1321
16885W        W32016   8.373  18.140  11.058  0.2595  0.1128 -0.0466
16886W        W32017   9.292  14.678   0.124 -0.1040 -0.3126  0.0392
16887W        W32018   5.955  16.785  15.512 -0.1279 -0.2666  0.2037
16888W        W32019  12.965   2.107   1.089  0.1683  0.0805 -0.0634
16889W        W32020   9.801  12.609  10.898 -0.0162 -0.0804 -0.1519
16890W        W32021  16.436   0.741   1.992 -0.1723 -0.1029  0.1346
16891W        W32022   1.057   7.783  10.751  0.0270  0.2429 -0.2218
16892W        W32023  13.745  11.660   5.468  0.1114  0.0631  0.0913
16893W        W32024   7.763  12.491   2.280  0.2231 -0.2047  0.0833
16894W        W32025  17.920  14.279  15.522 -0.1275 -0.1274  0.3929
16895W        W32026   1.854   1.212  14.962  0.2203  0.2190  0.2158
16896W        W32027  11.339   5.765   1.675  0.1766  0.1867 -0.1169
16897W        W32028   9.473  15.370  14.906  0.0162 -0.1371  0.1318
16898W        W32029  17.646  12.129  10.996  0.0369  0.2121  0.0061
16899W        W32030   6.592  10.864  10.905 -0.1026 -0.2468  0.1284
16900W        W32031   2.055   7.513   4.496 -0.1950  0.2481  0.0776
16901W        W32032   8.052   3.677   4.599 -0.0846  0.2282 -0.2199
16902W        W32033  17.073   1.812  14.115  0.0414  0.2087 -0.3186
16903W        W32034   8.473   1.635   0.999 -0.1150 -0.1640 -0.1993
16904W        W32035  16.274   1.057   0.906 -0.1547  0.1328  0.0599
16905W        W32036  11.824  17.116  15.018 -0.0747  0.2845 -0.0752
16906W        W32037   1.731   7.890   2.153  0.0162 -0.1394  0.0542
16907W        W32038  13.452  18.315   1.114 -0.1776  0.0451 -0.0105
16908W        W32039   6.545   4.968  14.174 -0.0565 -0.0018  0.2448
16909W        W32040   1.187  10.300   0.319  0.1230  0.0979 -0.0491
16910W        W32041  13.694  12.491  10.961 -0.0738  0.1677  0.1520
16911W        W32042   4.217  15.225  14.971  0.1729 -0.1240 -0.1691
16912W        W32043   1.800   1.676   3.905  0.4085  0.0556  0.1882
16913W        W32044  14.374   0.578  15.340  0.2982 -0.0409  0.1711
16914W        W32045   9.299  12.141  11.381  0.0921 -0.0966  0.1226
16915W        W32046   4.008   4.631   5.049  0.1007  0.1327  0.1979
16916W        W32047   9.924  11.022   0.741 -0.1334 -0.0748 -0.3489
16917W        W32048   5.856   4.298   3.926  0.2071 -0.1652  0.2768
16918W        W32049   8.142   1.159  10.372  0.4075 -0.0188 -0.2771
16919W        W32050   2.510  18.151  11.330  0.0761  0.0076 -0.0639
16920W        W32051   0.971   4.296  10.543  0.2946  0.2038 -0.1460
16921W        W32052   5.306   8.434   9.331  0.1379  0.1162  0.0514
16922W        W32053  10.471   1.282   2.733 -0.3053 -0.1012 -0.1501
16923W        W32054   5.654  17.478  11.818 -0.0982  0.1067  0.0052
16924W        W32055   9.389  13.997   1.440  0.1439  0.5551 -0.3589
16925W        W32056  12.565  18.236  10.425 -0.1384  0.0324 -0.3805
16926W        W32057   8.448  10.872   3.441  0.3940  0.3192 -0.1854
16927W        W32058  14.315  14.731  12.859 -0.2407 -0.0878  0.1373
16928W        W32059  12.093   8.650   2.906  0.4674  0.1200 -0.1677
16929W        W32060   9.757   7.692  15.385  0.2586  0.1167 -0.1625
16930W        W32061   3.107  15.884  12.307 -0.2994  0.2818  0.1237
16931W        W32062   9.877  18.523  14.889  0.3954 -0.0226  0.3179
16932W        W32063   5.039  13.842  15.335 -0.0188 -0.1446 -0.3641
16933W        W32064   3.895   5.353  12.056 -0.0618  0.2474  0.1476
16934W        W32065  16.481   2.007  12.691 -0.2160  0.1678 -0.0965
16935W        W32066   2.982   6.599   1.587 -0.2236  0.4320 -0.0421
16936W        W32067   8.491  13.335   0.572  0.2004  0.1438 -0.2644
16937W        W32068  15.244   1.959   0.076  0.1136  0.1267 -0.0232
16938W        W32069  13.475   0.393  14.310 -0.0242  0.0670 -0.2213
16939W        W32070   8.268  16.568   1.610 -0.1740  0.4226 -0.1151
16940W        W32071   1.541   6.255  13.138 -0.2209  0.2879  0.1115
16941W        W32072   1.931   7.778   1.248 -0.1538  0.0869  0.0170
16942W        W32073  15.669  16.993  11.094  0.0524 -0.0203 -0.1223
16943W        W32074   7.801   2.616  15.236 -0.1313 -0.1661  0.2257
16944W        W32075   1.833   9.056   1.320 -0.0668 -0.2694 -0.0175
16945W        W32076   0.685  11.366   6.082  0.0245  0.0028  0.1429
16946W        W32077   2.127   8.758   3.845 -0.0232 -0.1978 -0.0037
16947W        W32078   9.064   6.520  10.754 -0.1200  0.1149  0.0824
16948W        W32079   7.271   4.138  13.988 -0.1926 -0.1036  0.2928
16949W        W32080  16.895   2.891   5.691  0.3175 -0.0224 -0.1876
16950W        W32081   4.950   4.039   1.841 -0.0436 -0.1670 -0.1403
16951W        W32082   2.739  14.901  11.860  0.0283 -0.0519 -0.4551
16952W        W32083  13.227   6.156  14.214  0.1282 -0.1397 -0.0054
16953W        W32084  13.349   9.151  13.891 -0.0771  0.0455 -0.2336
16954W        W32085   5.853  14.542   5.051  0.2370 -0.3096 -0.1092
16955W        W32086  15.543   7.708   4.876  0.0746 -0.3532 -0.0892
16956W        W32087   8.648   6.016   1.367 -0.2186  0.0170 -0.1180
16957W        W32088   3.227   4.682  12.846 -0.2881 -0.0364  0.1955
16958W        W32089  14.135  15.424  10.585  0.1096 -0.1680  0.1036
16959W        W32090  14.241   7.565   1.196 -0.1982 -0.0695  0.0479
16960W        W32091  14.949   2.892   4.061 -0.1842 -0.2368  0.1327
16961W        W32092  11.292  18.319   3.574 -0.3339  0.2711  0.3837
16962W        W32093  13.103   0.613   4.097  0.0695  0.2001  0.0224
16963W        W32094  10.907   1.971   2.295 -0.0603 -0.0495 -0.0211
16964W        W32095   0.059   3.452   0.485  0.4463  0.3090 -0.1104
16965W        W32096   4.282   6.640  15.400  0.1865  0.2328 -0.2922
16966W        W32097   7.823   9.764  12.658  0.3281 -0.1790  0.0465
16967W        W32098   2.618   0.319   0.862 -0.0300  0.0090  0.2867
16968W        W32099   5.971   8.851  11.269 -0.4761 -0.0190  0.4226
16969W        W32100   1.698  17.255  13.049 -0.0053  0.0086  0.2054
16970W        W32101  15.483  15.508   5.624  0.2772  0.2332 -0.2785
16971W        W32102  16.459   1.539  13.519  0.0569  0.3066  0.2791
16972W        W32103  10.741  18.352  11.056  0.0626 -0.1856  0.0202
16973W        W32104   9.991  12.490  12.974 -0.4468 -0.2565  0.1865
16974W        W32105  14.397   8.003  15.004  0.2321 -0.1854 -0.0352
16975W        W32106   6.914   1.054  14.808  0.1273 -0.2134  0.0211
16976W        W32107   3.676  13.577   1.561 -0.2507  0.1231  0.1738
16977W        W32108   4.441   4.551   4.751 -0.1782 -0.0878  0.1454
16978W        W32109  12.071   8.625  15.746  0.0451 -0.3791 -0.2469
16979W        W32110  16.369   8.201  13.287 -0.3844  0.3964 -0.1377
16980W        W32111  12.471   3.715  15.344 -0.2403 -0.2529  0.1875
16981W        W32112  18.148  11.948   4.813 -0.1730  0.1001  0.1157
16982W        W32113   1.557  10.346  14.999 -0.2285  0.1220  0.1895
16983W        W32114  15.488  11.449  15.107  0.0976  0.0303  0.0293
16984W        W32115  15.165   0.207   9.937  0.5348 -0.1019  0.4014
16985W        W32116   1.384  17.076   5.043  0.2544  0.2869  0.2753
16986W        W32117   6.043   1.637  14.500 -0.2918 -0.0290  0.2493
16987W        W32118   5.656   3.027   1.466 -0.2861  0.0590 -0.1159
16988W        W32119  14.717   2.205  14.256 -0.0119  0.0682 -0.1641
16989W        W32120  12.016  12.685   2.574  0.3299  0.2515 -0.3646
16990W        W32121  11.507   0.110   1.152 -0.2356 -0.2113 -0.2614
16991W        W32122   9.640   0.161   5.214 -0.0875  0.1800  0.2559
16992W        W32123  17.557  17.966   1.104  0.0738  0.1885  0.3066
16993W        W32124  11.182  15.570   2.701  0.0587  0.1449 -0.1776
16994W        W32125  13.840   6.236  14.539 -0.2660  0.2289  0.1475
16995W        W32126   7.595  12.697  12.506  0.1725 -0.1713 -0.1088
16996W        W32127   6.126   9.740   2.609 -0.0961 -0.1363 -0.0387
16997W        W32128   6.921  15.014   2.340 -0.0607  0.0340  0.2539
16998W        W32129  17.723   4.341   3.940  0.1620 -0.1452  0.1893
16999W        W32130   5.684   2.437  13.509 -0.2816  0.0386 -0.0837
17000W        W32131  13.960   1.254  15.414 -0.0662 -0.1149 -0.0704
17001W        W32132  11.911  13.365   2.543 -0.0681  0.1803  0.1823
17002W        W32133   4.635  10.044  13.504  0.1820  0.1107 -0.0218
17003W        W32134   8.488   4.638  12.479  0.1002 -0.0174 -0.0422
17004W        W32135   1.268   6.814  13.408 -0.0044 -0.1019  0.2693
17005W        W32136  13.542   2.393   0.430  0.2776 -0.1966 -0.1700
17006W        W32137   2.849   5.706  13.992 -0.0003 -0.2743  0.0544
17007W        W32138  10.229   0.319  13.015 -0.2023  0.0102  0.0546
17008W        W32139  18.043   0.092   3.214  0.4612 -0.2330 -0.0526
17009W        W32140  18.139  16.427  11.126  0.3614 -0.3624 -0.0553
17010W        W32141  13.034  18.476   0.685  0.1974 -0.0606  0.1604
17011W        W32142  12.958   8.369  12.403 -0.0800  0.0956  0.1288
17012W        W32143   2.763  18.651  13.716  0.2044  0.1618  0.3122
17013W        W32144  14.931   5.393   1.635  0.4055 -0.1353 -0.2303
17014W        W32145   5.208  12.065   1.699 -0.4069  0.1628  0.3148
17015W        W32146  16.373  13.089   1.993 -0.0365 -0.0397  0.1218
17016W        W32147  12.641  17.924  12.953  0.4624  0.1832  0.1911
17017W        W32148  15.963  13.320   2.698  0.1895  0.1473  0.1016
17018W        W32149   9.208   6.862  10.241  0.0077 -0.0778 -0.0303
17019W        W32150   3.621   9.728   5.533  0.1763  0.0448  0.0969
17020W        W32151   2.137  15.102  12.833  0.3735  0.2834 -0.0189
17021W        W32152  16.050   7.424  10.969  0.2890  0.0731  0.4820
17022W        W32153   7.002   3.935   0.843 -0.2037 -0.1901 -0.2292
17023W        W32154  13.810   4.029  10.506 -0.1100 -0.3364 -0.1403
17024W        W32155  14.020   9.171  13.277  0.1783  0.1627  0.0485
17025W        W32156  15.526  10.282   3.907 -0.1515 -0.0014 -0.0862
17026W        W32157   4.674  15.511   5.452  0.2314  0.3982  0.1036
17027W        W32158   7.937   4.334   1.964  0.0465 -0.0512 -0.1727
17028W        W32159  10.568   6.868  11.671 -0.1671  0.5120  0.1717
17029W        W32160  17.067  10.441  12.625  0.0083  0.0877  0.1421
17030W        W32161   7.666   4.692   5.575 -0.0706 -0.2728  0.2808
17031W        W32162  17.915   6.302  12.364  0.0543 -0.1521 -0.0022
17032W        W32163   8.199  15.713  15.006 -0.0722  0.0413  0.1425
17033W        W32164  17.899   7.302  14.236  0.3560 -0.0002  0.0943
17034W        W32165   0.186   3.759   4.627  0.0120 -0.0866 -0.1946
17035W        W32166  11.072   2.717   0.291 -0.0619 -0.2490 -0.1040
17036W        W32167   5.030  15.898  10.505 -0.2157 -0.2095  0.0908
17037W        W32168   3.442  13.409   5.758 -0.0411  0.2191  0.2037
17038W        W32169   0.152  17.877  10.598 -0.3719 -0.1304  0.0088
17039W        W32170  10.872   7.107  13.832 -0.2176  0.1580  0.1151
17040W        W32171  10.555  11.231   1.053  0.0692 -0.0232 -0.0274
17041W        W32172  13.255  11.154   3.184 -0.3114 -0.1303  0.0165
17042W        W32173   1.755   5.503   4.469 -0.0129  0.1655 -0.0857
17043W        W32174   9.092   0.940   3.905  0.3199 -0.0939 -0.0113
17044W        W32175   9.510  15.954   4.953 -0.2598 -0.3469 -0.3515
17045W        W32176   9.867   6.184   3.881  0.1498 -0.2185  0.1275
17046W        W32177   1.479   1.828  10.315 -0.0874 -0.2778 -0.0670
17047W        W32178   3.714   2.227   2.590  0.2000  0.0217  0.1517
17048W        W32179   9.342   5.648   1.539 -0.0263  0.0612  0.4215
17049W        W32180   0.073  14.299   0.503 -0.0887  0.0456 -0.2561
17050W        W32181   6.034   0.335   5.212 -0.0668  0.0229 -0.3262
17051W        W32182   9.212   5.856  12.760 -0.0183  0.2237  0.4248
17052W        W32183  15.238   0.370   2.555  0.1237 -0.1313  0.0491
17053W        W32184   1.274   6.521  14.507 -0.0894 -0.0469 -0.1384
17054W        W32185  17.207   5.193  11.235  0.0969 -0.0166 -0.1578
17055W        W32186  12.837  17.788  12.521 -0.1296 -0.1447 -0.1739
17056W        W32187  17.034   6.108   2.600 -0.0319 -0.0759 -0.5050
17057W        W32188  17.342  10.782  13.020  0.0300 -0.0385 -0.0435
17058W        W32189   9.385   9.794  10.377  0.2486  0.0254 -0.2201
17059W        W32190   4.651  18.369   1.463  0.1305 -0.0710  0.3264
17060W        W32191   5.175   6.691   2.872 -0.1078 -0.2242  0.0150
17061W        W32192   2.897   7.526   3.398  0.0961 -0.2374 -0.1562
17062W        W32193   3.834  13.211   4.201  0.2183  0.2467  0.1993
17063W        W32194  17.685   4.208  11.466 -0.0704 -0.0327 -0.2882
17064W        W32195  16.008   3.361  13.301 -0.2127  0.1626  0.0099
17065W        W32196  13.704  12.218   4.670  0.2364 -0.0322 -0.0369
17066W        W32197   4.303  15.439   1.885  0.0168 -0.1462 -0.0660
17067W        W32198   5.041   8.305   1.699 -0.1777 -0.1646 -0.0643
17068W        W32199  11.806  13.188  12.187 -0.0386  0.0118 -0.1502
17069W        W32200   6.140  10.232   3.444  0.5207  0.1160  0.1654
17070W        W32201   4.224  15.473   0.170 -0.0328 -0.4212 -0.1462
17071W        W32202  12.287  15.071  15.054 -0.0316 -0.4487  0.3838
17072W        W32203  17.397   5.023  10.452  0.0858 -0.1221  0.1169
17073W        W32204   3.831  11.705  13.478  0.1083 -0.3447  0.0640
17074W        W32205  10.850   4.707   4.459  0.0840 -0.1158  0.2555
17075W        W32206  17.335   7.477   2.613  0.0272 -0.0361 -0.0901
17076W        W32207  18.657   5.255   3.541 -0.0026  0.0033  0.2457
17077W        W32208   5.603  18.062   3.965  0.0116 -0.3702  0.0958
17078W        W32209  14.334  13.370  15.637  0.3568  0.1623  0.1490
17079W        W32210   4.224  10.463  11.155  0.1297  0.2977  0.1334
17080W        W32211  10.548   1.756   2.738 -0.2840 -0.2692 -0.1420
17081W        W32212   8.941  10.837  11.886  0.3315  0.2176  0.1085
17082W        W32213  16.504   0.501  10.838  0.0329 -0.3232 -0.2699
17083W        W32214   4.468  17.777   0.303 -0.0635 -0.1722 -0.3326
17084W        W32215   2.349  17.593   4.344  0.3857  0.0241  0.0165
17085W        W32216  14.184  17.072   3.093 -0.0464  0.1555 -0.4213
17086W        W32217  13.423   7.100  13.000  0.0185  0.0482  0.1210
17087W        W32218   0.681   7.436   2.734  0.3329  0.1669  0.2813
17088W        W32219   8.754   6.280   1.759 -0.0636  0.0555 -0.0645
17089W        W32220   5.821  10.451   4.398  0.2062  0.2140  0.0806
17090W        W32221  14.993  17.812   1.713 -0.0508 -0.1099  0.0246
17091W        W32222   2.297   2.064  12.801 -0.1956  0.0643 -0.1429
17092W        W32223   2.463   5.810  12.257  0.4446 -0.1150  0.0477
17093W        W32224   7.759  16.264  11.880 -0.1763  0.1047 -0.1110
17094W        W32225   4.905  10.471  10.446  0.3561  0.0665 -0.0884
17095W        W32226  15.127   7.567  15.093  0.1414  0.0248  0.0746
17096W        W32227   6.262   2.910   3.407  0.0763 -0.0487 -0.2011
17097W        W32228   0.172   8.463  13.235  0.3648  0.1777  0.3263
17098W        W32229  17.888   6.903  13.916 -0.1347  0.0159 -0.2078
17099W        W32230   0.758   8.826  11.669 -0.3185  0.3981  0.1498
17100W        W32231   1.563   2.192   2.419 -0.1621  0.0296 -0.2810
17101W        W32232  16.031  16.786   3.842 -0.0072  0.1822  0.3724
17102W        W32233   8.535  15.019  15.477  0.0098 -0.0834  0.0995
17103W        W32234   7.420  15.727  12.710 -0.0821 -0.2540 -0.0622
17104W        W32235   3.830   4.685  14.790  0.0705  0.0515 -0.2880
17105W        W32236   5.653   5.811  11.484 -0.3436  0.4726 -0.3853
17106W        W32237   6.053  18.237   6.317  0.4859  0.0254 -0.1852
17107W        W32238   5.671   6.657  10.614 -0.2517  0.2886  0.1239
17108W        W32239   4.894   0.289   5.368 -0.0623 -0.2897 -0.0085
17109W        W32240   6.604  10.243   3.732 -0.1020 -0.1351  0.0127
17110W        W32241  14.538   3.543   4.610 -0.0035 -0.3445 -0.3192
17111W        W32242  12.211  12.405   0.612 -0.0072  0.1828  0.0043
17112W        W32243  18.004  16.300   0.639 -0.0151  0.2729 -0.0147
17113W        W32244  10.633   2.766  15.124  0.3221 -0.2063 -0.1654
17114W        W32245  14.223   8.623   5.952 -0.2841  0.1644 -0.1240
17115W        W32246   8.623  12.373  12.751  0.2731 -0.0936 -0.1404
17116W        W32247  10.355   0.079   5.738  0.2841 -0.0656  0.1234
17117W        W32248  13.193   9.022   2.674  0.1534 -0.0832 -0.0342
17118W        W32249   8.694   2.126   1.113  0.0634  0.0546  0.4006
17119W        W32250   4.285   6.091   3.252 -0.0403 -0.0545 -0.0150
17120W        W32251  14.492   2.790   3.454  0.2413  0.1025 -0.3747
17121W        W32252   9.902   0.055   4.086  0.1469  0.1737 -0.0250
17122W        W32253  13.939   4.901   5.693  0.0953  0.1130  0.1249
17123W        W32254  14.204   5.471  11.557  0.2018  0.2885  0.2160
17124W        W32255  11.268   9.315  11.041 -0.0801  0.0169  0.1586
17125W        W32256   2.226   6.131   2.350 -0.0660 -0.0612 -0.0569
17126W        W32257  10.658   5.087  13.482 -0.0808  0.0102 -0.1266
17127W        W32258  10.696   4.089  15.626  0.1038  0.1332 -0.1138
17128W        W32259  15.862  11.792  11.761 -0.1081  0.1253 -0.1430
17129W        W32260  12.173  13.008   2.173  0.1977  0.1690 -0.0416
17130W        W32261   2.614   1.874   1.774 -0.0589 -0.2129 -0.0328
17131W        W32262  11.584   3.613   0.627  0.0186 -0.0688  0.0775
17132W        W32263   3.719   4.682   0.682  0.0598  0.0723  0.0472
17133W        W32264   7.787   5.276  12.937  0.0422 -0.1886  0.1794
17134W        W32265  14.099   1.399  13.270  0.1104  0.2534  0.1253
17135W        W32266  17.562  14.875   3.038 -0.2687  0.2419  0.2741
17136W        W32267  16.519   4.801   0.268  0.0624 -0.0599  0.3207
17137W        W32268   6.561  10.004   2.105 -0.1563  0.1268 -0.1284
17138W        W32269   5.097   8.198   4.912 -0.2018  0.0812  0.1152
17139W        W32270  14.210   2.052  10.873  0.1013  0.2313  0.1103
17140W        W32271  14.657   9.177  10.902  0.1042 -0.3150 -0.3254
17141W        W32272   9.438   3.715   4.963 -0.0063 -0.1211  0.2628
17142W        W32273   5.300  16.471  13.143  0.0898  0.3182  0.1323
17143W        W32274   1.461   5.860  14.227  0.0054  0.0675 -0.1537
17144W        W32275  12.552  13.803   0.190 -0.0018 -0.3287 -0.1536
17145W        W32276   2.266  14.655  11.114 -0.0458 -0.1046 -0.0960
17146W        W32277   8.555   2.349  11.429 -0.2309 -0.0799 -0.1779
17147W        W32278   3.975   9.944  14.270 -0.2201  0.1795  0.2555
17148W        W32279  14.732   8.598   4.277  0.1769 -0.6171 -0.1229
17149W        W32280  11.765  13.117   1.672  0.2143 -0.2397 -0.1176
17150W        W32281   5.257  11.814  12.550 -0.0755 -0.4865  0.4467
17151W        W32282  11.786  16.801  15.400 -0.2410  0.0313 -0.2705
17152W        W32283   5.306  16.610  14.997 -0.0668 -0.1415  0.2812
17153W        W32284  14.651   6.291   3.732  0.0231  0.0605 -0.1552
17154W        W32285   1.420   0.321  14.829 -0.1106  0.1663 -0.0256
17155W        W32286   5.088  12.074   2.223  0.0556 -0.1249  0.0494
17156W        W32287  10.477   7.842   5.505 -0.1636 -0.1125  0.1445
17157W        W32288   9.830   5.497   2.576 -0.0637  0.0837 -0.0749
17158W        W32289   0.252  12.388   3.383 -0.0800 -0.1109  0.0138
17159W        W32290   7.416  10.257  15.453  0.0531  0.0739 -0.2169
17160W        W32291   2.234   6.402  15.269  0.1666  0.3074 -0.0730
17161W        W32292   9.701  12.430  13.528  0.0804  0.2349 -0.1217
17162W        W32293  16.029  13.324   5.066  0.3032 -0.1967  0.0563
17163W        W32294  14.022   9.594  10.986  0.0312  0.3373 -0.0756
17164W        W32295  15.452   5.462  14.613 -0.0267  0.0493  0.0911
17165W        W32296  14.575   0.569  12.557 -0.0839  0.2997 -0.0590
17166W        W32297   6.118   3.594   4.048 -0.0905 -0.1893 -0.1208
17167W        W32298  10.175  17.370   3.222  0.0142  0.4139 -0.1325
17168W        W32299   2.704   1.310   2.633 -0.1771  0.3070  0.0678
17169W        W32300   7.578   4.373  11.302  0.1263 -0.0435 -0.1715
17170W        W32301   5.415  13.500  10.822  0.1552  0.4301 -0.1366
17171W        W32302  16.076  12.502   4.437  0.0223 -0.1423 -0.0044
17172W        W32303  11.374  16.431  11.150  0.1056 -0.0362  0.2355
17173W        W32304   3.495   7.469  10.762  0.1640 -0.0640 -0.1039
17174W        W32305   1.033  10.223  15.537  0.1880 -0.2120 -0.3240
17175W        W32306  16.393  18.709   5.095 -0.0088  0.0031 -0.2660
17176W        W32307   6.988  14.449   1.502 -0.0470  0.1877 -0.0784
17177W        W32308  12.421  17.349  11.699 -0.2280 -0.2361 -0.0074
17178W        W32309  13.565   2.905  10.669 -0.3892 -0.0078  0.1949
17179W        W32310   3.457  15.519  14.839 -0.0578 -0.1617 -0.0949
17180W        W32311  11.440   5.204   2.288 -0.0355 -0.1596 -0.0515
17181W        W32312   8.840   1.967   0.142 -0.1081 -0.0143  0.1372
17182W        W32313  11.385  11.329   4.084  0.1362  0.2572  0.2062
17183W        W32314   0.881  10.849  13.871  0.0157 -0.1957 -0.0822
17184W        W32315  15.824   8.957   3.176 -0.1247 -0.2977 -0.1790
17185W        W32316  12.393  12.176   3.115 -0.3020 -0.2836  0.0719
17186W        W32317   4.550   8.507   2.709  0.0922 -0.0106 -0.2497
17187W        W32318  15.447   5.039   3.028  0.1323  0.0053  0.1485
17188W        W32319   8.569  13.035   1.008 -0.0141  0.1440  0.3747
17189W        W32320  18.574   7.608  15.393 -0.2310  0.3825 -0.2195
17190W        W32321  17.214   9.563  14.488  0.2723 -0.3159  0.0553
17191W        W32322  14.520   0.273   4.322 -0.1871 -0.0298  0.3832
17192W        W32323  15.069  12.727  15.640  0.1373  0.0312 -0.1551
17193W        W32324  17.574  13.059  13.650  0.1477  0.0104 -0.1748
17194W        W32325  10.324   6.844  12.735 -0.0568 -0.0347  0.2466
17195W        W32326   6.489  12.214   0.673  0.2649  0.0728 -0.2442
17196W        W32327   6.924   8.960   1.466  0.1188  0.0245  0.1203
17197W        W32328   6.145   2.537  11.106 -0.1269  0.0986  0.1644
17198W        W32329   9.066   6.860  15.578  0.3274 -0.1720  0.0217
17199W        W32330   3.421   4.089  11.231 -0.1542 -0.0374  0.1127
17200W        W32331   3.320   2.740  11.459 -0.0604  0.2215 -0.2187
17201W        W32332  17.505   5.270   3.307 -0.1450  0.3150 -0.0851
17202W        W32333  11.018  12.745  10.542 -0.0705  0.0031 -0.3432
17203W        W32334   4.423   8.050   4.173  0.0471  0.1945 -0.0781
17204W        W32335  12.257   3.819   5.426 -0.1404  0.4843  0.1019
17205W        W32336  15.553   0.884   1.709 -0.1633  0.0160 -0.1026
17206W        W32337   6.731   4.802   3.318 -0.1131  0.0956 -0.0987
17207W        W32338  13.920   0.845   0.911 -0.2744  0.0481 -0.1252
17208W        W32339   8.039   3.038  14.574 -0.3754  0.2199  0.0267
17209W        W32340   1.108   4.214  11.074  0.1080  0.0423 -0.2476
17210W        W32341   7.133  12.877  11.271  0.3013  0.1315  0.1844
17211W        W32342   2.224  13.066   4.384  0.2948  0.2103 -0.0019
17212W        W32343   8.327  14.240  13.227  0.0877  0.6679  0.0569
17213W        W32344   1.905  13.598  15.375 -0.1345  0.0940 -0.1901
17214W        W32345   8.583   2.443  14.761 -0.0039 -0.1900 -0.1635
17215W        W32346   7.976   5.119   1.495  0.3080  0.2470 -0.1048
17216W        W32347   0.275   7.172   5.417  0.2178  0.0446 -0.0459
17217W        W32348   3.521  15.625  10.910 -0.0574 -0.0253 -0.0280
17218W        W32349  13.953  15.624  13.769  0.1282 -0.1203  0.2735
17219W        W32350   5.582   9.895   1.834  0.0145 -0.1635  0.3805
17220W        W32351   9.693   5.652  12.695  0.0752 -0.2321  0.0855
17221W        W32352  11.764   3.447   3.322  0.1645 -0.3733 -0.2757
17222W        W32353   9.772  14.987   3.987  0.0613 -0.3242 -0.0667
17223W        W32354   9.611  18.536   3.784  0.5428  0.1000  0.1028
17224W        W32355   1.630  10.009   2.139  0.1286 -0.2005  0.0854
17225W        W32356   6.701  11.163   3.409  0.2150 -0.0845 -0.1597
17226W        W32357   3.984  17.899  11.250 -0.3485 -0.0223  0.0095
17227W        W32358   8.652  17.495  12.953 -0.0242 -0.0797 -0.2644
17228W        W32359   9.178  14.794   1.321 -0.2036  0.0820 -0.2368
17229W        W32360  17.618   8.446   4.278 -0.2284 -0.0406 -0.5502
17230W        W32361   0.715  10.796   0.369  0.1930  0.2095 -0.2910
17231W        W32362   4.302   9.471  12.024 -0.2408 -0.0873 -0.0098
17232W        W32363  14.160   1.134   3.568 -0.1115  0.0095  0.0517
17233W        W32364  10.569   2.002   0.228 -0.2289  0.1835 -0.1005
17234W        W32365  14.296  16.906  11.649  0.1019  0.2852  0.0901
17235W        W32366   5.136  11.339  12.901  0.0047 -0.0716 -0.0485
17236W        W32367  14.727   5.056  14.815 -0.0540 -0.1756  0.1334
17237W        W32368   4.092   2.527  10.675  0.1183  0.0385 -0.1199
17238W        W32369   3.615   3.988   3.557  0.2816 -0.2653 -0.0315
17239W        W32370  17.446   7.568  11.927  0.0175 -0.2242 -0.2571
17240W        W32371  14.873   6.618   2.457  0.3366  0.0366 -0.0595
17241W        W32372  16.881   6.936   0.611 -0.0262 -0.0529  0.2979
17242W        W32373  13.558  12.440   3.724  0.4144 -0.1044 -0.0473
17243W        W32374   2.390   8.596   0.246 -0.0627  0.2734  0.1699
17244W        W32375  17.121   0.560   0.505  0.3241  0.3161 -0.0182
17245W        W32376   2.520   2.486  14.569  0.1369  0.2760 -0.0159
17246W        W32377  10.757   1.855   4.914  0.0079 -0.2791 -0.2473
17247W        W32378  11.488   8.460  14.827 -0.0437  0.1761  0.2258
17248W        W32379   5.620   3.294   2.890  0.0912 -0.0671  0.1452
17249W        W32380  18.302   1.127   2.724  0.1084 -0.0293 -0.0965
17250W        W32381   6.692  13.235   1.921 -0.1291 -0.1187  0.1879
17251W        W32382   0.084   6.174  15.538  0.1962 -0.0325  0.0048
17252W        W32383   7.742   2.991  13.325  0.0467  0.2638 -0.4558
17253W        W32384   1.250   1.222  13.861  0.0949 -0.0320  0.1774
17254W        W32385   2.384   6.768   3.692  0.0651 -0.0100 -0.0493
17255W        W32386   1.904  14.472  14.048  0.1120  0.1773  0.3046
17256W        W32387   3.428   9.042   1.500 -0.0817  0.1594  0.1452
17257W        W32388   8.406   5.491  12.182 -0.4347  0.0551 -0.2342
17258W        W32389  17.281  15.850   4.365  0.1218 -0.2233  0.2154
17259W        W32390  11.966   0.337  15.274  0.1587  0.2085  0.0230
17260W        W32391   8.455   8.793  11.653 -0.0203 -0.0134  0.0928
17261W        W32392   4.970  17.710   0.185 -0.2074 -0.0933  0.0636
17262W        W32393  17.253  12.838  15.049  0.0943 -0.3134 -0.2648
17263W        W32394  11.706   0.364   9.977  0.1589 -0.0573  0.3070
17264W        W32395  13.470   3.428   5.011 -0.1223  0.1990  0.2614
17265W        W32396  12.964  17.607   1.537 -0.3154 -0.0338 -0.0189
17266W        W32397   7.935   0.224   4.402 -0.0741  0.0625 -0.2481
17267W        W32398  11.447  10.717  10.464  0.0859 -0.4559 -0.1471
17268W        W32399   3.996  10.853  14.027 -0.1420 -0.0709  0.0539
17269W        W32400   0.170   7.505   2.977 -0.2655 -0.0234  0.1462
17270W        W32401   4.135   6.340  14.278  0.0463  0.0710  0.0599
17271W        W32402  17.968  10.582  14.267  0.0850  0.0775  0.0878
17272W        W32403   8.449   2.422   1.448  0.2442 -0.1142 -0.1997
17273W        W32404  11.929  11.929   4.550  0.0747  0.2213 -0.1433
17274W        W32405  16.431   0.852  11.216 -0.1685  0.0033  0.4099
17275W        W32406  15.802   9.143  11.664  0.1015 -0.1535 -0.1868
17276W        W32407   6.915   0.951  11.260 -0.3327  0.0783  0.1205
17277W        W32408   5.328  16.644  11.705 -0.0304  0.0406  0.0215
17278W        W32409  16.019  10.814   4.459 -0.3384 -0.3221  0.0549
17279W        W32410  13.004   0.775   1.396  0.1098  0.0132  0.0007
17280W        W32411   2.721  12.502  14.950 -0.3307  0.0184 -0.1650
17281W        W32412   0.871   1.359   2.148  0.0350 -0.2723  0.2131
17282W        W32413   4.239  13.753   0.323  0.3601 -0.0590  0.1052
17283W        W32414   9.539  10.003   3.807  0.0183  0.0299 -0.0590
17284W        W32415   4.507   0.528   2.868 -0.3123  0.0165  0.3102
17285W        W32416  15.753   4.720   4.938  0.0924 -0.0649 -0.0160
17286W        W32417   5.462   0.735   1.684  0.0235  0.1587  0.1064
17287W        W32418   0.027   0.449   2.224  0.0943 -0.0076 -0.1296
17288W        W32419  18.063   6.441  13.689 -0.1374 -0.3432  0.4782
17289W        W32420  12.577   4.959   1.748  0.0207  0.3734 -0.4714
17290W        W32421   8.629   5.746   0.679  0.1021 -0.0296 -0.1250
17291W        W32422  14.545  15.830   5.576 -0.1192 -0.3467 -0.4153
17292W        W32423  16.010   5.222   1.255 -0.1126 -0.1273  0.2236
17293W        W32424  15.353   6.365   4.069 -0.1221  0.2243 -0.1131
17294W        W32425   0.504   4.633  14.154 -0.3170 -0.1737  0.0840
17295W        W32426   1.004   4.759  15.126 -0.1453 -0.2960  0.0223
17296W        W32427   7.586  17.311  13.846  0.0470 -0.2415  0.0272
17297W        W32428   2.576   1.194   5.414 -0.0338 -0.1832 -0.0483
17298W        W32429   5.184  10.754  15.423  0.1723 -0.1220  0.1141
17299W        W32430   0.183  12.704  11.543 -0.0871  0.0740  0.1786
17300W        W32431   1.059   6.487  15.720  0.1491  0.1243  0.2586
17301W        W32432  16.361   6.781   4.015  0.4825  0.0280 -0.3291
17302W        W32433   4.805   0.095  13.320 -0.3444 -0.1115  0.0118
17303W        W32434   8.848   9.354  15.033  0.3193 -0.0245  0.2151
17304W        W32435  11.320  10.708   4.779  0.1800 -0.3251 -0.2054
17305W        W32436  17.522  11.374   3.773  0.0255  0.0822  0.1968
17306W        W32437   4.845  10.406  12.827  0.0397  0.1603  0.2339
17307W        W32438   0.510  11.922  10.138 -0.2163  0.4141 -0.0154
17308W        W32439   2.992   1.465  13.902 -0.0400 -0.1627 -0.0485
17309W        W32440  13.378  17.782  13.283  0.0769 -0.1434 -0.0896
17310W        W32441   7.982  10.206   3.904  0.2504 -0.0215 -0.0166
17311W        W32442   3.115  15.062   0.931  0.0152 -0.2230  0.1708
17312W        W32443   2.230  18.612  13.492  0.0194 -0.1647 -0.3017
17313W        W32444  16.097  15.243  12.713  0.1823  0.1436  0.3200
17314W        W32445  14.369  15.236   0.190 -0.1478  0.2567  0.0390
17315W        W32446   0.008   4.274  14.601  0.0285 -0.0428  0.1253
17316W        W32447  12.572  17.343  14.402  0.1169 -0.1785 -0.0879
17317W        W32448   5.647  17.065   0.993 -0.1191 -0.0397  0.2376
17318W        W32449  16.612  13.534  13.880  0.2817  0.0259  0.1417
17319W        W32450  17.238   1.002   2.306 -0.0121 -0.1373 -0.0252
17320W        W32451   7.166  13.586   0.165  0.2440  0.0982 -0.1284
17321W        W32452   6.274  15.562   1.916 -0.1363  0.3302  0.4205
17322W        W32453   1.478   8.583  15.282 -0.0664  0.0611 -0.0239
17323W        W32454  14.122  17.323  12.267 -0.0303  0.0625  0.0630
17324W        W32455   9.004  13.495  11.653  0.1133 -0.1508 -0.3165
17325W        W32456   8.581   6.052  15.606  0.2076  0.0321 -0.1080
17326W        W32457   4.045  16.071   4.917  0.2521 -0.4196 -0.1050
17327W        W32458   9.625   7.326  12.491  0.1723 -0.0271 -0.0404
17328W        W32459  14.664   4.120   3.425 -0.0432  0.2070  0.0563
17329W        W32460  10.645   3.829   4.210  0.0073 -0.1717 -0.0850
17330W        W32461  16.318  15.352  14.391 -0.0294 -0.1581  0.0348
17331W        W32462  13.187   4.560   0.978  0.3199 -0.1790 -0.2656
17332W        W32463  10.636  16.511   3.703  0.1275 -0.3580  0.0536
17333W        W32464  17.517   3.090   2.790  0.1145  0.0111 -0.0189
17334W        W32465   4.286   3.663   5.229  0.0735 -0.0215 -0.0751
17335W        W32466   7.379   1.477   4.531 -0.0373  0.4872  0.0113
17336W        W32467  13.056   3.396   4.473  0.0121 -0.0172 -0.1153
17337W        W32468   4.550  14.207  13.975 -0.1470 -0.0170  0.0437
17338W        W32469   5.456   6.872   0.899 -0.3927 -0.2104  0.1805
17339W        W32470   3.556  12.905   5.682  0.0532  0.2006 -0.2592
17340W        W32471  16.539   9.423  10.877 -0.0549  0.2672  0.1177
17341W        W32472   2.714   7.046  12.754 -0.1636 -0.0269  0.3369
17342W        W32473   5.702   0.158   1.161  0.2280 -0.0287 -0.3823
17343W        W32474   9.012   7.887   0.287  0.0697  0.3679 -0.0961
17344W        W32475  16.125   5.683   1.132  0.2681  0.3175  0.1548
17345W        W32476   9.117  13.732  13.015 -0.0881 -0.0133 -0.1830
17346W        W32477   0.839   0.081  10.616 -0.2325  0.0101  0.1157
17347W        W32478   6.530   1.237  11.381  0.5452 -0.1704  0.1302
17348W        W32479   3.812   5.473  11.004  0.0486 -0.1410 -0.0473
17349W        W32480   0.651  11.888   1.194  0.2884 -0.2675  0.2287
17350W        W32481  13.462   2.176  13.569 -0.0224  0.1907  0.1340
17351W        W32482   1.952   2.603  14.341 -0.1796  0.3560  0.1082
17352W        W32483   7.976   6.450   0.372 -0.1056 -0.1377  0.2042
17353W        W32484  18.082   3.728  10.885 -0.0820  0.1532  0.0532
17354W        W32485   4.366  14.683  11.831 -0.4058 -0.1355 -0.0654
17355W        W32486   1.156   9.363   3.370 -0.0295 -0.2303  0.2834
17356W        W32487   5.203   1.119   0.146  0.2500 -0.2940  0.1503
17357W        W32488   7.807  12.697   0.492  0.0801 -0.0364  0.0777
17358W        W32489  10.196   5.204   4.870 -0.1763 -0.0670 -0.0955
17359W        W32490   6.928  18.307  13.675 -0.2425 -0.1410 -0.1003
17360W        W32491  17.375   0.514   2.515  0.0174  0.1780  0.0648
17361W        W32492   6.308   1.884  15.783  0.1654  0.2055  0.1495
17362W        W32493   1.727   1.645   5.615  0.0228  0.0584 -0.1002
17363W        W32494   4.689  13.193  11.168 -0.3003 -0.0093  0.1859
17364W        W32495  14.397  15.419  11.667 -0.2080  0.1938  0.0842
17365W        W32496  18.658  15.791  10.689  0.1060  0.0082  0.0813
17366W        W32497   7.323  17.003   1.054 -0.2172 -0.0791 -0.1346
17367W        W32498   2.905  16.364  10.756  0.0395  0.0071 -0.1299
17368W        W32499  10.884  15.094  10.918 -0.1793 -0.2328  0.4816
17369W        W32500  15.591   5.522   1.293  0.0500  0.0631 -0.1648
17370W        W32501   8.544   8.157  12.841 -0.0505 -0.2050 -0.0936
17371W        W32502  18.640   8.674  13.772 -0.1469 -0.1552 -0.1624
17372W        W32503   6.876  16.460   0.937 -0.1024  0.1404  0.2561
17373W        W32504   8.548   0.444  15.796 -0.1625 -0.2508 -0.4526
17374W        W32505   9.853   4.722  11.529  0.0841 -0.2874 -0.1942
17375W        W32506  17.200  15.054  14.911 -0.1615  0.4183 -0.2504
17376W        W32507   7.915  13.167  10.808 -0.2175  0.0724 -0.0897
17377W        W32508   6.075  14.821  10.896 -0.0278 -0.0311 -0.5541
17378W        W32509   0.326   6.629  11.795 -0.3777 -0.0816 -0.1231
17379W        W32510   8.409   3.866   3.818  0.0830  0.2629  0.2692
17380W        W32511   7.146   9.877  11.476 -0.2216  0.0848  0.2402
17381W        W32512  16.645  13.982   3.654 -0.1143  0.0872  0.5443
17382W        W32513  16.544  18.449  14.701 -0.0142 -0.2925 -0.1598
17383W        W32514  10.221  10.201  13.083  0.1331 -0.1509 -0.2009
17384W        W32515  10.352  12.096   9.795  0.0547 -0.1642 -0.2488
17385W        W32516   3.082   5.536   3.585 -0.1365  0.2331  0.1823
17386W        W32517   2.350   0.312  13.814  0.1744  0.2202  0.3053
17387W        W32518   6.300  12.397   4.852  0.2820 -0.3236 -0.2100
17388W        W32519   2.904   1.636   3.716 -0.0719 -0.1851 -0.0281
17389W        W32520   5.159  12.616  10.782 -0.0141  0.2473  0.1680
17390W        W32521   7.985  11.792   2.722  0.2043  0.1319 -0.0340
17391W        W32522  13.291   8.802  12.695  0.1076 -0.1364  0.3445
17392W        W32523  12.012   7.054   3.355 -0.0524 -0.0548  0.0383
17393W        W32524  13.481  11.608   0.183  0.2685 -0.1337 -0.0550
17394W        W32525  18.050  15.419  15.671 -0.3292  0.0149  0.0578
17395W        W32526   0.666   9.829   3.253  0.2684  0.3474  0.1944
17396W        W32527   0.680  17.965  12.950  0.1721 -0.1173 -0.1208
17397W        W32528   0.477  16.634   4.146 -0.4624  0.0676  0.0199
17398W        W32529   3.382  13.760  14.670 -0.1083 -0.0440  0.0528
17399W        W32530   0.784  13.391  12.608  0.2603 -0.0733 -0.1827
17400W        W32531   7.801   9.339  15.208  0.0339  0.0589 -0.0127
17401W        W32532   1.320   3.888   0.760 -0.0061 -0.2120  0.0782
17402W        W32533   8.289   9.220   5.112 -0.2087 -0.2845  0.1956
17403W        W32534   5.357   1.566  13.625 -0.1220  0.0028  0.1608
17404W        W32535  12.681   6.063  11.691  0.0587 -0.1664 -0.2337
17405W        W32536   1.985   2.206   2.062 -0.0702 -0.2525  0.0477
17406W        W32537   5.105  11.199   4.329  0.3428  0.1140  0.0706
17407W        W32538   2.637   4.863  10.518 -0.0804 -0.0597  0.1560
17408W        W32539   7.502   5.181   1.294  0.1705  0.0905  0.2487
17409W        W32540   2.756  11.073  13.486 -0.0378 -0.2013  0.1781
17410W        W32541  11.822  12.976   0.554 -0.0561  0.1586 -0.1229
17411W        W32542  10.722  16.002   5.306 -0.1827  0.1773 -0.2615
17412W        W32543   4.693  13.593  10.482  0.5556 -0.1403  0.0964
17413W        W32544   8.507  14.006  13.660  0.1126  0.1903 -0.0137
17414W        W32545  18.023  16.646   4.519 -0.0674 -0.0518 -0.0578
17415W        W32546  12.627  10.527   3.404 -0.0234 -0.0089 -0.3603
17416W        W32547   5.076   2.866   6.014  0.0314  0.0348 -0.4081
17417W        W32548  17.071  14.046   2.745 -0.4089  0.2043  0.0602
17418W        W32549   4.461   4.811   1.272  0.0296  0.0373 -0.0443
17419W        W32550  17.629  16.979  15.631 -0.1067 -0.0496  0.0662
17420W        W32551   1.072   5.905   3.219 -0.2516  0.3567  0.0351
17421W        W32552   3.524  17.517   1.291  0.1768  0.0089  0.1885
17422W        W32553  15.138   8.568  12.948 -0.0444 -0.2106  0.3378
17423W        W32554   4.014  14.578  15.580 -0.2299  0.0125  0.0501
17424W        W32555  12.114   8.531  12.880 -0.1898  0.1470 -0.0269
17425W        W32556  13.685   1.373   5.342 -0.3017 -0.0439 -0.2953
17426W        W32557   4.242  13.541   3.260 -0.0070  0.0720  0.0027
17427W        W32558   6.982  10.061   2.516 -0.0858 -0.0187  0.0345
17428W        W32559   6.991  18.662   0.660 -0.1323 -0.2385 -0.0228
17429W        W32560   9.629  18.241  12.164  0.1603  0.0595 -0.0341
17430W        W32561   1.807   4.612  13.888  0.2449  0.2723 -0.0390
17431W        W32562  11.225   9.100   2.612  0.0527  0.2081 -0.1306
17432W        W32563   2.382   1.192  15.173  0.1896  0.0650 -0.1746
17433W        W32564   1.202   9.738  10.183 -0.0553  0.1549 -0.1759
17434W        W32565   7.829   6.496   2.137  0.0324 -0.0488  0.0820
17435W        W32566   0.633  13.263  14.044  0.3572 -0.0118 -0.1280
17436W        W32567  18.704   2.219  11.874 -0.1025 -0.1215 -0.0346
17437W        W32568   7.029  10.255   4.683  0.0284 -0.2174 -0.1835
17438W        W32569  13.732  11.351   1.670 -0.0471 -0.0274 -0.0124
17439W        W32570   8.295   9.978  13.551  0.1114 -0.0571  0.0580
17440W        W32571  17.176   3.957  10.627 -0.1085 -0.2512 -0.0040
17441W        W32572  18.703  12.438  14.358 -0.0368 -0.0354  0.1621
17442W        W32573  11.724   0.128   4.117  0.0002  0.1076  0.2260
17443W        W32574   0.414  16.409   3.376 -0.3050  0.0632 -0.2428
17444W        W32575   9.697   4.942  13.840  0.0594 -0.1460  0.1576
17445W        W32576   4.740  11.040  13.862 -0.1493 -0.3591 -0.0864
17446W        W32577  18.347  17.391   0.191 -0.2202  0.0586  0.1686
17447W        W32578   9.837  17.973  13.410  0.0101 -0.2528 -0.1095
17448W        W32579   5.464   6.507   2.105  0.1879  0.1997 -0.0367
17449W        W32580   2.905   3.029  11.108  0.1163 -0.2629 -0.0962
17450W        W32581   8.176  12.478  10.290 -0.1252  0.1443 -0.2079
17451W        W32582   9.708   3.981   4.580 -0.1094 -0.0189  0.1205
17452W        W32583   1.497  14.307  11.835  0.1465 -0.3348  0.1934
17453W        W32584  14.109  15.012  14.757  0.0320 -0.2218  0.0652
17454W        W32585   0.432   0.308   0.527 -0.2109 -0.1115 -0.2384
17455W        W32586   9.285   1.648   2.371 -0.4941 -0.0685 -0.0923
17456W        W32587  15.831   8.286   0.505 -0.0944  0.5294 -0.0842
17457W        W32588  16.470   6.518   5.241 -0.1448 -0.1499  0.1086
17458W        W32589   1.489   5.791  11.321  0.1777  0.2270  0.3809
17459W        W32590   7.535   1.672   5.957 -0.1689 -0.1731 -0.2216
17460W        W32591  11.861   5.333  12.284 -0.2065 -0.1175  0.0326
17461W        W32592   6.388  12.107  10.031  0.2743  0.0551  0.1805
17462W        W32593   0.057   6.365  12.072  0.3384 -0.1859 -0.0231
17463W        W32594   9.443  18.668   4.278  0.0521 -0.0684 -0.0917
17464W        W32595  15.856  13.877   3.917 -0.2988 -0.1910  0.1508
17465W        W32596  16.577   9.091  12.178 -0.3245 -0.2569 -0.0556
17466W        W32597  13.387   7.284   1.291  0.0128 -0.3736 -0.0349
17467W        W32598   4.914   3.630  14.119  0.0017  0.0808 -0.0305
17468W        W32599   7.273  16.540   4.319  0.0452  0.0203 -0.1359
17469W        W32600  11.515   5.246   9.711  0.1105 -0.1395  0.1785
17470W        W32601  18.550  17.010  15.775  0.4917  0.0309  0.1179
17471W        W32602   0.612  18.661   1.149 -0.0885 -0.3019  0.0189
17472W        W32603  11.484   6.063  10.771  0.4521  0.0907 -0.1279
17473W        W32604   3.041  16.570   4.100  0.1231 -0.1682 -0.2649
17474W        W32605   3.964   5.635   3.149 -0.1614 -0.1414 -0.1130
17475W        W32606   1.767   6.110   3.010 -0.0200 -0.1886  0.0033
17476W        W32607  11.962  15.218  13.908 -0.2128  0.2834 -0.2147
17477W        W32608   8.554  16.411   3.670  0.0501  0.1722 -0.2671
17478W        W32609   4.441  13.030   2.491  0.0456  0.0947 -0.4236
17479W        W32610   0.573   3.334  14.130  0.3777  0.1517  0.1108
17480W        W32611  12.115   6.446   5.151  0.0089  0.0297 -0.3789
17481W        W32612   2.152  16.304   2.238 -0.1571 -0.0571  0.0744
17482W        W32613  11.686  10.335   1.598  0.1034 -0.0758 -0.3086
17483W        W32614  10.370  13.611  10.186 -0.0584 -0.0450  0.1515
17484W        W32615   2.381  18.654   4.280 -0.1955  0.1271  0.0069
17485W        W32616   5.624   3.068   0.961 -0.0834 -0.2209  0.4127
17486W        W32617   0.110   9.260   0.745  0.2083  0.3292 -0.1326
17487W        W32618  17.774  10.874   1.205  0.0691 -0.0146 -0.2765
17488W        W32619  18.256   9.026  10.441 -0.1030  0.1387 -0.1985
17489W        W32620   4.438  11.955   0.429  0.1905  0.0867  0.0261
17490W        W32621   0.390  15.729  10.849  0.1093  0.1453  0.0713
17491W        W32622   4.609   7.193   0.572 -0.0436 -0.1331 -0.0615
17492W        W32623   6.437  16.220   4.301  0.1195 -0.0953 -0.0935
17493W        W32624  18.282  10.233   2.500  0.0728  0.2861  0.1084
17494W        W32625  14.581  10.549   4.282 -0.0522  0.0652  0.0404
17495W        W32626  15.365   0.458  14.940  0.0830 -0.3587 -0.1754
17496W        W32627  17.226   7.092   0.237 -0.3855  0.1184 -0.1262
17497W        W32628  13.999   4.535   5.330  0.2412  0.0249  0.1961
17498W        W32629   3.723   9.846  10.316  0.0226  0.1075 -0.0649
17499W        W32630   7.395   2.913   1.822 -0.0964 -0.3306  0.2499
17500W        W32631   6.565  16.354  14.933 -0.1618  0.1496  0.0311
17501W        W32632  15.305  15.881   0.391  0.0600 -0.2633  0.4126
17502W        W32633  10.679   0.748  14.717 -0.1370 -0.1902 -0.1065
17503W        W32634  18.373   7.830  10.831 -0.0007  0.2086 -0.1553
17504W        W32635   8.014  16.524   2.666  0.2276  0.3976 -0.1321
17505W        W32636   9.872  11.074   1.667 -0.0069 -0.1100 -0.3979
17506W        W32637   6.550   2.428  12.310 -0.2671 -0.0894 -0.2154
17507W        W32638  12.628  18.506  14.991 -0.1615  0.1854  0.3645
17508W        W32639  11.981   7.945   1.106  0.0443 -0.0889  0.1243
17509W        W32640  14.558   5.732   4.265  0.2776 -0.0498  0.2903
17510W        W32641   1.716   5.191   3.224  0.0129 -0.0975 -0.0625
17511W        W32642   4.348   7.668   5.251 -0.3374 -0.0860 -0.1422
17512W        W32643   5.393   0.575   4.017 -0.0230 -0.2426 -0.3568
17513W        W32644  10.571   3.013  12.401 -0.2108 -0.2511  0.1576
17514W        W32645   0.101   9.353  13.043  0.0243 -0.1957 -0.4426
17515W        W32646  11.060   1.101  12.438 -0.0446 -0.0282 -0.0550
17516W        W32647   1.341  18.339  15.540 -0.3467  0.0540 -0.0843
17517W        W32648   8.571   9.054   0.042 -0.0487  0.1409  0.0736
17518W        W32649  13.339   8.358   1.294  0.2969 -0.0440  0.1991
17519W        W32650   5.029  17.196   4.221 -0.0818 -0.2372  0.1213
17520W        W32651   7.477  14.852   0.989  0.1040  0.0967 -0.1042
17521W        W32652  12.867  17.720  14.452  0.3259  0.1443  0.3901
17522W        W32653   6.697   1.308   2.853  0.0741 -0.2060  0.0656
17523W        W32654   1.557  16.341  15.710 -0.2136 -0.0418  0.2354
17524W        W32655   3.111   0.904   3.715  0.0754 -0.3513  0.2204
17525W        W32656   4.578   4.522  15.760 -0.1454 -0.1715 -0.0880
17526W        W32657   3.025  14.744  14.574 -0.3917 -0.0459 -0.0708
17527W        W32658   4.475   8.733   3.776 -0.0735 -0.1104  0.1203
17528W        W32659  10.701   5.179  11.402 -0.2222 -0.0411 -0.1396
17529W        W32660   8.966   0.249   2.234 -0.0440  0.0740  0.2636
17530W        W32661   9.613   0.164   3.002  0.0478  0.0846  0.0066
17531W        W32662   4.234   7.070   2.903  0.0127 -0.0832  0.4939
17532W        W32663   3.954  11.595   5.084  0.2264  0.0725  0.0824
17533W        W32664   0.405  14.948  12.828  0.3140 -0.1531 -0.2225
17534W        W32665  11.144  17.996  11.603  0.0992 -0.1739  0.0673
17535W        W32666   3.023   1.145  11.273 -0.0401  0.0025  0.1885
17536W        W32667  15.835   6.954  14.684  0.1683 -0.0160  0.2456
17537W        W32668  16.283   1.445  14.785  0.2212 -0.1849 -0.0062
17538W        W32669   0.326  12.801   4.211  0.0231  0.0089 -0.0858
17539W        W32670   9.089  15.069  15.667 -0.4569  0.1653 -0.3382
17540W        W32671   0.930   6.803   4.134  0.0394  0.1195 -0.0319
17541W        W32672   7.877  16.162  10.914  0.2333 -0.1189  0.3736
17542W        W32673   1.423   9.207   1.106  0.0529 -0.0580  0.0718
17543W        W32674  14.170   4.507  12.958 -0.1368  0.0929 -0.1898
17544W        W32675  11.961   5.729   0.895 -0.2475 -0.1882  0.3888
17545W        W32676   9.750   1.869  14.989  0.0982 -0.0487  0.3093
17546W        W32677  17.561  18.410  12.773  0.2588 -0.0605  0.0457
17547W        W32678  17.416   4.289  10.993 -0.0310  0.1445  0.0785
17548W        W32679  13.880   1.695  15.768  0.0049 -0.0412  0.1239
17549W        W32680   1.720   5.655   0.861  0.0356 -0.0366 -0.0194
17550W        W32681   9.959  10.062   2.511  0.1316  0.1082 -0.2386
17551W        W32682  12.376  12.273   2.546  0.0166 -0.3844 -0.0831
17552W        W32683  15.732  12.174   0.041  0.0459 -0.1723 -0.0503
17553W        W32684   1.988   9.284  15.478  0.1673 -0.0332  0.2942
17554W        W32685  15.320   3.949  11.284 -0.0682 -0.0073 -0.3890
17555W        W32686   7.721   6.994  11.858  0.2735 -0.0887 -0.2078
17556W        W32687  11.624  11.075  11.339  0.2891 -0.0083 -0.2594
17557W        W32688  15.293   1.354  15.710 -0.2492 -0.0809 -0.0532
17558W        W32689   2.335  16.585   3.574  0.2747  0.0544 -0.5008
17559W        W32690   2.936  11.276   2.236  0.2432  0.0124 -0.1925
17560W        W32691  18.184  12.224  15.443  0.1516  0.2217 -0.1468
17561W        W32692  14.579   0.204   5.101 -0.2206  0.1355  0.0006
17562W        W32693  16.742   3.871   0.853  0.5143  0.1076 -0.1827
17563W        W32694   0.411   4.744   2.602 -0.2149  0.1115  0.0221
17564W        W32695  17.001   4.058  12.575  0.2321  0.1414  0.0841
17565W        W32696  11.881  15.618  13.512  0.0594  0.1000 -0.4935
17566W        W32697   2.110   5.554  12.023 -0.2478  0.0142 -0.0605
17567W        W32698  11.108   4.241  11.528  0.1364 -0.2734  0.1128
17568W        W32699  15.208   2.379   3.058  0.3262  0.2706 -0.1517
17569W        W32700   0.224  13.628  10.863  0.2088  0.0930  0.1030
17570W        W32701   1.518  10.490   2.882 -0.1872  0.2649  0.4074
17571W        W32702   0.624   8.954   1.742 -0.0212  0.3047  0.0363
17572W        W32703   9.555   1.503  13.154  0.3183 -0.1753  0.3405
17573W        W32704  10.045   9.591  10.910 -0.3341  0.1285 -0.0848
17574W        W32705   5.603   5.893   5.034  0.0705 -0.0441 -0.3206
17575W        W32706  16.877   4.081  14.092 -0.0209  0.2707  0.5543
17576W        W32707   9.702   1.574   0.416  0.1495  0.3460 -0.2503
17577W        W32708  13.701  15.192   2.534  0.1787  0.1278 -0.1232
17578W        W32709  14.101  14.933  10.663 -0.1801  0.1094 -0.1039
17579W        W32710   5.968   4.241   2.165 -0.0966 -0.2515 -0.0682
17580W        W32711   0.112   3.317  13.269  0.2326 -0.3021 -0.2783
17581W        W32712  17.216  15.703  12.580 -0.0597 -0.0109 -0.1893
17582W        W32713   2.221   5.818  10.377  0.2504 -0.0655  0.1762
17583W        W32714   9.683   9.599  11.837 -0.0487 -0.1109  0.1836
17584W        W32715  13.674   0.517  10.486  0.0367  0.0735  0.1361
17585W        W32716  14.501  16.985  15.174 -0.0699 -0.0088 -0.0984
17586W        W32717   6.137   4.280   4.472  0.2104  0.0980  0.1487
17587W        W32718  17.044   0.861   5.726  0.1837 -0.0202  0.0574
17588W        W32719   8.274  14.711  13.057 -0.0184  0.1389  0.1624
17589W        W32720   7.127  10.730   4.563  0.0392 -0.1985 -0.0394
17590W        W32721  13.893  16.513   0.193  0.4415 -0.3088 -0.1426
17591W        W32722   5.670   2.149   4.484 -0.1990 -0.0565 -0.0417
17592W        W32723  13.156   3.177   0.146 -0.0506 -0.3972  0.1098
17593W        W32724  10.500  10.523   1.794  0.2496 -0.1542  0.1623
17594W        W32725  12.020  14.148   4.063 -0.3149  0.1923 -0.1412
17595W        W32726   9.278   1.739  10.693 -0.0748  0.0340  0.2597
17596W        W32727  11.936   6.928   0.694  0.0723 -0.2500 -0.1999
17597W        W32728   6.681  13.859  13.943 -0.0007  0.1509 -0.4091
17598W        W32729   7.273   0.965  12.041 -0.0860  0.5181 -0.1049
17599W        W32730  18.537  13.046  13.346  0.2995  0.0258 -0.0107
17600W        W32731   4.839  17.640  13.574  0.0763  0.1129 -0.0183
17601W        W32732   4.876  11.321   5.052  0.3259 -0.4816  0.2275
17602W        W32733   3.579   9.282  12.853  0.1754 -0.0735 -0.2489
17603W        W32734   2.475  14.808   1.631 -0.2215 -0.1812  0.1720
17604W        W32735  14.021   8.517  14.265 -0.0036  0.1972 -0.3786
17605W        W32736  13.302  13.657  12.199  0.2726 -0.0980  0.0309
17606W        W32737  18.446  15.403   5.258  0.1407 -0.3237 -0.1472
17607W        W32738   9.444  11.236   1.421 -0.1038 -0.1997 -0.1406
17608W        W32739  15.777   2.398  10.521 -0.0551  0.2093 -0.1799
17609W        W32740   7.022  18.197   1.763 -0.0349  0.0110 -0.0961
17610W        W32741  14.105   1.686   5.334 -0.2381  0.0919 -0.0885
17611W        W32742  18.716   6.950  10.877 -0.0706 -0.3978 -0.1092
17612W        W32743  17.353  10.696   1.366  0.0992 -0.0237 -0.0886
17613W        W32744   6.127  11.540  10.539  0.1250  0.0451  0.0689
17614W        W32745   9.188  15.656   4.336  0.0821 -0.0886  0.0886
17615W        W32746  13.763   0.483   2.375  0.1250 -0.0747 -0.2437
17616W        W32747   4.473   2.304   2.089  0.0638  0.2032  0.1697
17617W        W32748   5.727  10.474   5.425  0.0084 -0.1877  0.1028
17618W        W32749   4.832   1.199   2.302 -0.2464  0.2083 -0.0022
17619W        W32750  13.435   2.935   2.696  0.1868  0.2232  0.2370
17620W        W32751   8.259  13.843   4.266 -0.2362 -0.0705 -0.3961
17621W        W32752  11.713   2.480   3.912 -0.0274 -0.2462 -0.0154
17622W        W32753   3.982   7.579  12.094  0.1293 -0.1941  0.0223
17623W        W32754  14.799   8.432   4.750  0.0707  0.2635  0.0298
17624W        W32755   6.402  12.074  13.165 -0.1151  0.1606  0.0354
17625W        W32756   3.923  12.831   2.915 -0.1817 -0.1250  0.1090
17626W        W32757  15.994   2.066   5.301 -0.0058  0.1016  0.1133
17627W        W32758  10.146   1.285   3.487 -0.1813  0.0932  0.0746
17628W        W32759  16.218   7.549  12.271  0.0373 -0.3345  0.1621
17629W        W32760  17.965   9.899  12.054 -0.3700 -0.3294 -0.1183
17630W        W32761   1.469   3.510   2.186 -0.0137 -0.1732 -0.3400
17631W        W32762  13.165   7.765   5.668  0.1065 -0.1638  0.0169
17632W        W32763   6.685  17.199  13.094 -0.0083 -0.4432  0.1921
17633W        W32764   7.718  17.267  11.085 -0.0417  0.0089 -0.1548
17634W        W32765  14.750   4.880   0.123  0.0059  0.2478  0.2889
17635W        W32766  11.134  16.129   2.769 -0.3581 -0.0514  0.4435
17636W        W32767   2.719   8.747  15.232  0.2593 -0.5942 -0.1739
17637W        W32768   2.631   2.478  12.599  0.0259 -0.1272 -0.3921
17638W        W32769  11.429   0.053  14.612  0.3484 -0.0934  0.0127
17639W        W32770   1.682  11.750  14.801  0.2169 -0.3334  0.1711
17640W        W32771  16.449  17.289  12.055 -0.3927  0.0667  0.0478
17641W        W32772   0.094   2.066  12.596 -0.1024  0.2853 -0.0250
17642W        W32773  14.738   9.554  15.108  0.1359 -0.1912  0.2291
17643W        W32774  18.169   6.102  14.947  0.1931  0.2009 -0.1363
17644W        W32775   5.119  11.568  10.315 -0.1769  0.4606 -0.0931
17645W        W32776   3.119  10.418  14.112 -0.0383 -0.0861 -0.1210
17646W        W32777  13.498   8.019   0.042  0.2471 -0.0813  0.1397
17647W        W32778  11.757   8.175  15.766  0.0865 -0.3388 -0.0262
17648W        W32779   4.269   4.252   2.722 -0.1737  0.0492 -0.1434
17649W        W32780   5.712  14.362  13.007 -0.1953 -0.0040  0.1744
17650W        W32781  12.043   6.872   2.504 -0.0122  0.6456 -0.1166
17651W        W32782   9.765   7.652  14.910  0.0161 -0.0148 -0.0416
17652W        W32783  16.394  15.460  13.595 -0.1864  0.0921  0.0120
17653W        W32784   5.064   1.589  13.200  0.0890 -0.0885  0.1531
17654W        W32785   2.171   7.713   0.233 -0.1685 -0.2676  0.2828
17655W        W32786   3.340  16.332   0.439 -0.1298  0.0782 -0.2734
17656W        W32787  16.707   7.139   4.057 -0.1970  0.0229 -0.3226
17657W        W32788  10.549  15.354   4.521 -0.4553 -0.3293  0.0703
17658W        W32789  15.746  14.767  12.657  0.0069 -0.3448 -0.1642
17659W        W32790  18.115  11.055  14.350 -0.1874 -0.0844 -0.5547
17660W        W32791  14.646   0.932   3.317 -0.2427 -0.3759 -0.1042
17661W        W32792   2.702   3.354   5.087  0.3999 -0.0279  0.2095
17662W        W32793  13.493   2.634  14.389 -0.5611  0.0961 -0.0908
17663W        W32794   3.370   0.686   2.769  0.0239  0.1125  0.0871
17664W        W32795  10.675  18.031  11.996  0.3040 -0.1331 -0.0960
17665W        W32796  16.006   0.340   5.835 -0.0881 -0.1328  0.0449
17666W        W32797   5.872  11.507  13.515 -0.3253 -0.1615  0.0882
17667W        W32798   9.558  10.979  13.022 -0.0908  0.2412  0.0159
17668W        W32799  12.873  14.516  11.109  0.1200  0.2662  0.1059
17669W        W32800   4.216  10.018   2.139  0.2736 -0.2278  0.0599
17670W        W32801  14.261  12.052  15.035  0.0296  0.0005 -0.2974
17671W        W32802  17.339  12.301  15.742 -0.2847 -0.2108  0.2219
17672W        W32803  15.519  13.437  14.440 -0.0930  0.0410 -0.0940
17673W        W32804  15.518   7.897  13.441 -0.1499  0.0692  0.0354
17674W        W32805   9.585   4.277  11.595 -0.1687  0.0414  0.2912
17675W        W32806   9.760  18.346   1.839  0.2156 -0.4133  0.0293
17676W        W32807  16.941  18.659  13.343  0.3370 -0.1148 -0.0569
17677W        W32808   1.533   3.204  13.264  0.1680  0.1535  0.0465
17678W        W32809   6.867   1.367  13.373  0.1792 -0.1473 -0.3341
17679W        W32810   8.581   2.808   0.023 -0.1224  0.1404  0.0566
17680W        W32811   4.195  15.466  12.488 -0.2887  0.1338 -0.0494
17681W        W32812   4.637  16.061  11.351  0.0792 -0.1509 -0.0090
17682W        W32813   4.621   9.629   2.477  0.0466 -0.2221 -0.0435
17683W        W32814  10.587   1.082  15.049  0.1953  0.1309  0.2727
17684W        W32815  18.219   0.089  13.719  0.2976 -0.2223 -0.5790
17685W        W32816  12.587   8.603   0.655 -0.0590  0.1245 -0.0428
17686W        W32817  18.582  16.318  14.511  0.1180  0.0608  0.0113
17687W        W32818  12.757  12.794   0.633 -0.0304 -0.0368  0.0053
17688W        W32819   4.295   6.289   2.641  0.0729 -0.0667 -0.2008
17689W        W32820   0.381  10.360  15.152 -0.2112  0.0725 -0.3651
17690W        W32821   6.532   4.442   0.429 -0.2435 -0.5139 -0.1340
17691W        W32822  11.221   5.085   4.420 -0.0932  0.0356 -0.1452
17692W        W32823  13.063   8.558   3.270  0.3176 -0.1049 -0.0552
17693W        W32824   8.865  10.966  10.613  0.1932  0.0193  0.1256
17694W        W32825  11.935  14.015  13.042 -0.1574 -0.0048 -0.0657
17695W        W32826   1.798   8.531  14.947 -0.1038  0.1430  0.0999
17696W        W32827   6.491  13.753  15.333 -0.0599  0.2542 -0.1478
17697W        W32828  12.842  14.307  12.691 -0.1212  0.0149  0.0618
17698W        W32829  17.687   2.191   2.247 -0.1649  0.0258  0.0062
17699W        W32830  17.172   4.305   5.469  0.2657  0.2260  0.3893
17700W        W32831  12.841   0.971  11.377 -0.2244  0.0079 -0.0531
17701W        W32832   6.158   6.618   3.215 -0.0314  0.0639 -0.2459
17702W        W32833  10.067   7.993   2.023 -0.1045 -0.1948 -0.2899
17703W        W32834  12.042  10.725  11.709 -0.4677  0.1902 -0.0232
17704W        W32835   6.719   2.165  14.984  0.1051 -0.2321  0.2564
17705W        W32836   6.051  18.261   2.113  0.1556 -0.3015  0.3462
17706W        W32837   9.164  14.409   4.731  0.0378  0.1619 -0.0112
17707W        W32838   4.143   4.683   4.323  0.0835  0.0247 -0.0755
17708W        W32839  15.057   5.201  13.680  0.0464  0.1295 -0.0076
17709W        W32840   6.698   8.361   3.418  0.1943  0.0525  0.1413
17710W        W32841  15.241   9.313  11.721 -0.0304 -0.6182 -0.0285
17711W        W32842   7.487   1.670   3.237 -0.1063  0.0815 -0.0162
17712W        W32843   7.218   0.144  10.142  0.2012 -0.3883  0.2554
17713W        W32844   9.682   4.027   2.084  0.0523 -0.0571  0.2189
17714W        W32845  16.174  11.594   1.907  0.2517  0.2930  0.0638
17715W        W32846  17.909   8.930   0.646  0.0764  0.1455  0.2863
17716W        W32847  11.174  10.858  11.833  0.0505 -0.3833  0.0320
17717W        W32848   5.509   8.578   2.569 -0.0710 -0.0726  0.1974
17718W        W32849   7.091  13.504   1.007  0.2403 -0.2936 -0.1690
17719W        W32850  11.247  15.985  15.415  0.0788 -0.0399  0.2064
17720W        W32851   3.149  16.045   2.114 -0.0025 -0.3330 -0.0930
17721W        W32852   6.447  12.676  12.272  0.0023  0.2003 -0.0087
17722W        W32853  13.977   3.045  14.615  0.0659 -0.0643  0.0624
17723W        W32854  12.058  14.890  11.697  0.0681  0.2010 -0.0957
17724W        W32855   1.381  16.401   2.061 -0.0367  0.2275 -0.1192
17725W        W32856  14.603   0.325   3.156  0.3104 -0.1506  0.0224
17726W        W32857   4.909  13.907  11.873  0.0967  0.1553 -0.0541
17727W        W32858   6.123   9.794   1.561 -0.0888 -0.1099 -0.2276
17728W        W32859  15.395  12.484  11.692  0.0023  0.0974 -0.0258
17729W        W32860  11.437  15.438  13.668  0.4474  0.2076  0.0739
17730W        W32861   4.464  14.703  13.878 -0.4803  0.0714  0.0021
17731W        W32862  10.084   5.583   3.035  0.1356 -0.0901  0.3013
17732W        W32863  18.049  17.976  12.707 -0.3682 -0.2724 -0.0431
17733W        W32864  17.420   3.702  15.174  0.3537 -0.1148 -0.0313
17734W        W32865   3.939  17.326   1.557  0.1641 -0.0504  0.1947
17735W        W32866  15.252  11.204  14.574 -0.1244 -0.1805  0.0262
17736W        W32867  11.203   5.314  13.841  0.0245 -0.0994 -0.1787
17737W        W32868   4.168  13.152   0.905  0.1054 -0.1145  0.4282
17738W        W32869  15.808  15.067   2.391 -0.1982  0.1598  0.2586
17739W        W32870  14.673   9.188   2.652  0.2082  0.1462  0.0722
17740W        W32871   7.542   2.699   3.668  0.0816  0.2565  0.1633
17741W        W32872  18.225   4.999   3.438 -0.3421 -0.2157  0.0256
17742W        W32873  14.095  11.633  15.348  0.0036 -0.4153 -0.1069
17743W        W32874   9.386  16.556  13.011  0.5326 -0.3588 -0.0653
17744W        W32875   3.947  12.725   1.856 -0.0194  0.4199 -0.1073
17745W        W32876   0.918  17.063   2.838  0.0212 -0.2443 -0.2270
17746W        W32877   3.783   6.840   2.988  0.0857 -0.2020  0.0774
17747W        W32878  12.354   9.917  12.313 -0.1265  0.0948  0.0815
17748W        W32879  11.050   0.138   2.271 -0.0239  0.3822 -0.0297
17749W        W32880   0.469   1.510   3.905  0.1014 -0.1464 -0.0115
17750W        W32881   2.129   4.418   3.105 -0.2669  0.2158  0.1016
17751W        W32882  16.123   1.031   2.515 -0.1400  0.2311  0.3999
17752W        W32883  17.409  16.180  12.965 -0.1014  0.0858  0.2998
17753W        W32884  12.181  16.805   3.012  0.0716  0.0299 -0.1279
17754W        W32885  17.734   9.897  15.562  0.3165 -0.2182  0.1478
17755W        W32886   5.011   5.108  14.942 -0.1751 -0.0999  0.3674
17756W        W32887  17.801   1.843   3.007 -0.0661  0.0635  0.3375
17757W        W32888   6.304  12.350  12.667  0.3727  0.1416  0.0109
17758W        W32889   5.802  15.048  11.859  0.0009 -0.0418 -0.2182
17759W        W32890   5.215   6.096  12.113  0.0162 -0.0838 -0.1630
17760W        W32891  15.982  12.534  15.554 -0.0724 -0.0860 -0.0038
17761W        W32892  11.434   4.078  15.246  0.0229 -0.2039  0.3235
17762W        W32893   0.130   9.519   2.661  0.1014  0.0808 -0.3883
17763W        W32894  17.256  11.933   3.299  0.0701 -0.1711 -0.3613
17764W        W32895  11.948   5.157  10.352 -0.2501  0.1060  0.0517
17765W        W32896  15.733  12.319   2.742  0.0394 -0.1181  0.0513
17766W        W32897   9.801   9.559  14.183  0.2846  0.0139  0.2259
17767W        W32898  17.053  13.277  13.864 -0.3351 -0.2739  0.0113
17768W        W32899  13.066   0.360  12.312 -0.4109 -0.0057  0.2108
17769W        W32900   8.815   8.455   4.728  0.0342  0.2701 -0.1149
17770W        W32901   9.979  16.174  15.024  0.5266  0.0824 -0.2584
17771W        W32902   3.609   0.688   1.363  0.0257  0.1024 -0.1742
17772W        W32903   4.502  13.115   3.433  0.2403  0.0214  0.0041
17773W        W32904   1.270   8.498   0.301  0.1443 -0.1336 -0.1692
17774W        W32905  14.099  18.559  10.725 -0.4163  0.0519  0.1240
17775W        W32906  11.566  13.909   2.243  0.1261 -0.2158  0.0303
17776W        W32907  16.262  18.007  11.477 -0.0758  0.0486 -0.1752
17777W        W32908   5.657  16.362  15.288  0.0076 -0.0206 -0.4317
17778W        W32909  12.570   5.879  12.166  0.3856 -0.0747 -0.0330
17779W        W32910   9.483   6.433  14.908 -0.1093  0.1129 -0.1659
17780W        W32911  16.939   7.473   6.223  0.2346 -0.1616  0.1355
17781W        W32912   4.664  15.822   1.959  0.1444 -0.0352 -0.0520
17782W        W32913  17.990   3.682  14.113 -0.0930 -0.2462 -0.0025
17783W        W32914  16.629   9.108   0.063 -0.4286 -0.1617  0.0225
17784W        W32915   9.502   9.734  12.425  0.3356 -0.0332 -0.0193
17785W        W32916  16.319   8.508  14.106 -0.0473 -0.0161 -0.1822
17786W        W32917   4.591  18.115  13.705  0.0139  0.2144  0.1050
17787W        W32918  12.769   8.894   0.987 -0.1465  0.1132 -0.0147
17788W        W32919  17.643   4.636   1.987 -0.0372 -0.2351 -0.0081
17789W        W32920   5.200   9.508  11.095  0.2912  0.3690 -0.0345
17790W        W32921  10.760  17.847  10.853  0.1638  0.2803 -0.1698
17791W        W32922  17.967   6.485  15.564 -0.1971  0.1065  0.1649
17792W        W32923  14.129  14.584  15.583 -0.1341  0.1399 -0.0604
17793W        W32924  12.541  12.847  14.511 -0.3417 -0.1013  0.0026
17794W        W32925   5.950  12.617   1.987 -0.0531  0.2861  0.0415
17795W        W32926   7.455  18.318   5.273 -0.3347 -0.2546  0.2191
17796W        W32927   4.614  12.771   0.992 -0.0952  0.1889 -0.3758
17797W        W32928  16.725  15.977  12.498 -0.2103 -0.0689  0.0439
17798W        W32929   7.976  15.391   5.751  0.3809  0.3719 -0.0176
17799W        W32930  10.496  12.372  15.474  0.2650 -0.0259 -0.0479
17800W        W32931   4.601   7.723  13.612  0.0696 -0.0927  0.2748
17801W        W32932   0.840   1.590  12.198 -0.0522 -0.2945 -0.0609
17802W        W32933   3.373  17.267  14.344  0.0732 -0.1576 -0.0009
17803W        W32934  17.952  15.452  14.682 -0.2331 -0.1787  0.0030
17804W        W32935  11.384   1.902  15.580 -0.2094 -0.3967 -0.0305
17805W        W32936   1.771  16.084   5.106 -0.1560  0.0007 -0.3444
17806W        W32937  13.175  12.939  15.020 -0.0281  0.0035  0.1266
17807W        W32938   8.822   6.681   5.670 -0.0338 -0.0026  0.1671
17808W        W32939  12.706  16.422  11.504  0.0331 -0.0285  0.0210
17809W        W32940   5.380   0.685   5.637  0.1540  0.1664 -0.0369
17810W        W32941   4.717   5.937   2.987  0.2019 -0.3636 -0.1416
17811W        W32942   0.488  16.915   1.014  0.0645  0.0823  0.0546
17812W        W32943   5.996   6.392  12.299  0.0449  0.0898  0.2854
17813W        W32944   5.190   4.172  12.129  0.1112 -0.0744  0.3786
17814W        W32945  14.962  14.266  14.484  0.3739 -0.1520  0.0875
17815W        W32946  18.405   9.078   3.633  0.4385  0.2119 -0.0740
17816W        W32947  13.878   0.738  15.194  0.0796  0.1993  0.2563
17817W        W32948  11.996  11.666   2.947  0.2306  0.1270 -0.0077
17818W        W32949  11.354  17.038   1.199 -0.0480 -0.0260 -0.0365
17819W        W32950  14.946   9.726   3.343  0.4053  0.1221  0.1568
17820W        W32951  18.591   7.447   5.323 -0.3788  0.0202  0.0220
17821W        W32952   3.594   1.431   0.678  0.0010  0.1505  0.1252
17822W        W32953  10.067  16.204  10.489 -0.3035  0.0785 -0.0562
17823W        W32954   3.015   8.352   5.282  0.0294  0.0076  0.3349
17824W        W32955   4.094  10.016   4.895 -0.0839  0.0104 -0.2429
17825W        W32956   0.345   2.357  11.375 -0.0598 -0.0848  0.2749
17826W        W32957   7.675   0.684   1.140 -0.4736 -0.0780  0.1149
17827W        W32958   3.169   6.915   1.975 -0.0799 -0.2593  0.1292
17828W        W32959  13.971   2.931   2.759 -0.0532 -0.2740  0.2890
17829W        W32960  10.114  17.874   2.508 -0.2004 -0.1876  0.3173
17830W        W32961   1.358  12.991   0.477 -0.1565  0.1372  0.1736
17831W        W32962  13.875   3.620  13.250 -0.1977  0.0976  0.1690
17832W        W32963  10.400  15.973  11.030  0.1701 -0.1936  0.0008
17833W        W32964  12.139   2.421  14.660 -0.1387 -0.1512 -0.3196
17834W        W32965  15.279  18.695   3.400 -0.0398 -0.0725 -0.1472
17835W        W32966  14.166   0.690   3.176 -0.1074 -0.2717  0.2497
17836W        W32967  12.333  10.557   1.051  0.3080 -0.3547  0.0932
17837W        W32968   2.286   1.416  14.625  0.0211 -0.0413  0.1030
17838W        W32969  10.741   2.576  14.269 -0.1329  0.1391 -0.0172
17839W        W32970  16.842   3.149  13.651  0.0870 -0.3318  0.1229
17840W        W32971   9.297   0.153  14.609  0.1393 -0.1867 -0.0749
17841W        W32972  16.111   8.574  13.389 -0.0171 -0.2799  0.0013
17842W        W32973   4.068  18.462  14.511  0.0167  0.0335  0.1289
17843W        W32974   0.748  12.561  11.424  0.1248  0.2779 -0.1178
17844W        W32975   0.401   3.120   0.144  0.0468 -0.2913  0.0059
17845W        W32976   8.342  16.620  15.323  0.0917  0.1861  0.0306
17846W        W32977  14.659  18.307  13.317  0.1049  0.1391  0.2846
17847W        W32978   1.796  14.824  13.041  0.0658  0.0425 -0.1912
17848W        W32979  13.472   8.815   4.833  0.0895 -0.2361  0.1354
17849W        W32980  12.700   0.709  12.315  0.0831 -0.0468 -0.0047
17850W        W32981   1.596  10.518   0.535  0.2160 -0.5327 -0.0991
17851W        W32982   1.088   6.271   5.817  0.1410 -0.0267 -0.1558
17852W        W32983  17.505   9.256  12.180 -0.1804 -0.0322 -0.1042
17853W        W32984   4.422  11.347  11.845  0.2785  0.0318  0.4637
17854W        W32985   5.652  12.648   0.508  0.3826  0.1021 -0.0717
17855W        W32986  11.969  18.360  14.210  0.1497  0.4298 -0.2760
17856W        W32987   8.157  14.963  11.744 -0.1147  0.3464 -0.4619
17857W        W32988   5.578  10.742   4.774  0.2106  0.1178 -0.2548
17858W        W32989   8.425   1.008   0.838 -0.1097 -0.2568 -0.3129
17859W        W32990  12.392  15.163   0.109  0.1446  0.1911  0.0552
17860W        W32991  14.070   0.057   1.579 -0.1378  0.0309 -0.0176
17861W        W32992   2.860   9.722   5.115 -0.0643  0.0504 -0.0680
17862W        W32993  18.172  15.088  13.836  0.0961 -0.0421  0.3481
17863W        W32994   4.402   1.416   2.284 -0.0246  0.1260  0.1062
17864W        W32995  17.839   8.324   1.998 -0.1715 -0.2681  0.2396
17865W        W32996   6.791   3.066  15.650  0.1960 -0.3985 -0.3534
17866W        W32997   1.511  10.984  15.021  0.1474  0.1694  0.0772
17867W        W32998   5.584   1.064  15.239  0.0205 -0.0413 -0.3009
17868W        W32999   2.967   8.103  13.755  0.1857 -0.0755  0.0812
17869W        W33000  14.678   1.158   2.873 -0.0367 -0.3213 -0.1951
17870W        W33001   9.964  16.349  11.101  0.0252  0.1997 -0.0766
17871W        W33002   6.403   1.843   0.549 -0.1007 -0.2519 -0.0199
17872W        W33003  18.615  13.648   4.170  0.3372  0.2233  0.0094
17873W        W33004   6.709   4.332   3.658  0.0972  0.2162  0.3005
17874W        W33005   2.350  17.613   0.561  0.0180  0.0132  0.1608
17875W        W33006   5.680  16.301   0.962  0.0611  0.2074  0.2628
17876W        W33007   9.760   0.967  14.858  0.1705  0.1415 -0.4316
17877W        W33008   9.408   2.492   4.061  0.1923 -0.3742 -0.0828
17878W        W33009   9.902  10.644  10.373 -0.0967  0.0548  0.4159
17879W        W33010  18.654  14.879  14.504  0.0456  0.4508 -0.0421
17880W        W33011   3.311  17.282  13.353 -0.3023 -0.1178 -0.1290
17881W        W33012   2.026  17.276   5.405 -0.2524 -0.3489  0.4621
17882W        W33013   8.332   1.814  14.080  0.1864 -0.2047  0.1575
17883W        W33014  15.013   3.605  10.608 -0.0709  0.1117 -0.1633
17884W        W33015  16.347   7.459   6.035 -0.1502  0.4262 -0.0210
17885W        W33016   2.868   9.308  14.960 -0.3011 -0.0008 -0.1185
17886W        W33017  12.688   9.038   1.462  0.2683 -0.0250 -0.3890
17887W        W33018   4.892  16.908   0.494  0.1933  0.0754  0.2620
17888W        W33019  16.170  16.949  11.021 -0.3407  0.0563 -0.4333
17889W        W33020   4.794   6.313   2.621  0.0124  0.0997  0.0783
17890W        W33021   5.179   4.493   5.708 -0.1529  0.0580 -0.2081
17891W        W33022   3.754   6.772  13.600 -0.3533 -0.0983 -0.2277
17892W        W33023  12.362   6.643  10.955 -0.0879  0.2814  0.1487
17893W        W33024  11.030  10.629  11.369 -0.1735  0.1083  0.2594
17894W        W33025   1.088   1.864   4.420 -0.4370 -0.0104  0.2132
17895W        W33026   1.769   2.821   5.830  0.0714  0.3233 -0.4780
17896W        W33027   8.404  14.967   5.000 -0.0317 -0.0172 -0.0247
17897W        W33028   1.511   5.698   3.008 -0.0157  0.0130  0.0412
17898W        W33029  16.552  11.413   4.632  0.2768 -0.1681  0.0538
17899W        W33030  18.339  11.156  10.793 -0.0777  0.1173 -0.2564
17900W        W33031   6.085   7.118  11.589  0.0601  0.3563  0.0431
17901W        W33032  17.495  10.793  14.415  0.2039  0.1168 -0.0263
17902W        W33033   3.572  17.509   4.522 -0.1357  0.0356 -0.0831
17903W        W33034  10.811   6.267  10.367  0.1505 -0.1236  0.0959
17904W        W33035  10.672  13.529  14.788 -0.1734 -0.2350  0.3331
17905W        W33036  13.488  15.128  14.119 -0.2162  0.0598 -0.2381
17906W        W33037   9.098   8.880  12.510 -0.1688 -0.6330 -0.0955
17907W        W33038  11.625   5.501  11.375  0.0401 -0.2830  0.0671
17908W        W33039   1.007  16.453  14.164  0.4780 -0.2771  0.1478
17909W        W33040  13.554  10.622   4.537 -0.0098  0.1308 -0.0234
17910W        W33041   5.325  17.338  14.576  0.1125 -0.0765  0.2740
17911W        W33042   7.307  17.794   5.503  0.0992 -0.1178  0.0565
17912W        W33043  17.490   5.721   0.264 -0.1211 -0.1715 -0.1052
17913W        W33044   5.484   7.189   4.577 -0.0966  0.1722  0.1039
17914W        W33045   7.978  16.954   3.278 -0.1356  0.0258 -0.1827
17915W        W33046   9.249   8.118   2.087 -0.0804  0.0802 -0.1803
17916W        W33047  17.498   0.099   2.843  0.0829  0.2360 -0.0225
17917W        W33048  11.444  11.364  12.713  0.3408 -0.1579  0.0979
17918W        W33049  18.031   0.600  15.551 -0.2112 -0.5208  0.2383
17919W        W33050  13.303   0.600   3.263 -0.0870 -0.0831  0.1761
17920W        W33051   9.832  17.882  11.522 -0.2346  0.1960 -0.3290
17921W        W33052  14.315   0.009   0.207 -0.0619 -0.2053  0.1104
17922W        W33053  14.140   9.528   2.281 -0.2641  0.0939  0.1466
17923W        W33054   8.551   5.679  13.919 -0.1888  0.0461 -0.0616
17924W        W33055   1.782   1.040  14.530 -0.0742  0.0934 -0.1576
17925W        W33056   4.317   8.652   0.461 -0.0982 -0.1930  0.0861
17926W        W33057   4.290   3.014   4.633 -0.1865 -0.1620 -0.2196
17927W        W33058   9.465   2.741  10.687  0.0789 -0.1175 -0.2236
17928W        W33059   6.269  11.353   2.104 -0.2245 -0.4101  0.0868
17929W        W33060   7.513  15.710  10.366 -0.1163  0.1480  0.2165
17930W        W33061   5.318   9.664   5.319  0.2786  0.1000 -0.0645
17931W        W33062  17.596   5.125   1.737 -0.1878  0.1039  0.1977
17932W        W33063  14.942   0.859  14.433 -0.4177  0.0007  0.1113
17933W        W33064   4.486   6.637  13.972  0.2421  0.1397  0.0052
17934W        W33065   4.126  11.132   5.251  0.1843 -0.2405 -0.2432
17935W        W33066   5.447   2.309   0.322  0.0302 -0.1063  0.0672
17936W        W33067   6.155   3.097  13.709  0.1932 -0.3641 -0.0876
17937W        W33068   9.054  17.219   1.786 -0.0400  0.0977  0.1833
17938W        W33069   8.011  10.877   1.071  0.0153  0.0499  0.0713
17939W        W33070   7.806  17.898   5.370  0.0663 -0.0898 -0.2408
17940W        W33071  13.502   5.740   4.489 -0.1049 -0.1591 -0.2627
17941W        W33072   1.339   3.986   4.198  0.1394  0.0868 -0.0423
17942W        W33073  10.550   5.697   3.371 -0.1746  0.1796  0.0096
17943W        W33074  10.385   4.468  14.684 -0.1503 -0.0879 -0.4675
17944W        W33075   5.686  12.010   1.105  0.0973  0.1235  0.0216
17945W        W33076  11.077   9.464  11.930  0.3104  0.0258 -0.0980
17946W        W33077  16.073   4.406   2.544 -0.0544 -0.1784  0.2198
17947W        W33078   1.533  14.479   5.882  0.1268  0.0916 -0.1296
17948W        W33079   9.690  11.037  14.199 -0.2118  0.3704  0.0987
17949W        W33080   4.986  12.578   0.709 -0.2297  0.2366 -0.1130
17950W        W33081   8.968   7.854  10.127 -0.1245 -0.0759 -0.4515
17951W        W33082   0.124   3.548   5.204  0.1212 -0.1141 -0.1375
17952W        W33083   7.571  10.216  11.472 -0.0919  0.0446 -0.4373
17953W        W33084  15.931   7.219   0.395  0.1448  0.0159 -0.1058
17954W        W33085   7.252  16.213   0.029  0.1328  0.0151 -0.0297
17955W        W33086   4.547   5.090  15.167 -0.1382 -0.0212  0.0924
17956W        W33087   5.226  13.198   5.372  0.0171  0.0780 -0.4035
17957W        W33088  16.721   8.414  15.139 -0.0973  0.1212  0.2791
17958W        W33089  17.129   8.105   5.557 -0.0576  0.1439 -0.1620
17959W        W33090   0.885   7.187   4.523 -0.2702 -0.1943  0.3210
17960W        W33091  17.846  12.209   0.712 -0.3745 -0.1961  0.1052
17961W        W33092   8.849   1.804  13.061 -0.4860  0.1315 -0.2903
17962W        W33093  12.909  10.467  13.672  0.3502 -0.2808 -0.0647
17963W        W33094  16.577   1.686  15.129 -0.0125 -0.1896 -0.1167
17964W        W33095  13.902   7.613  11.635  0.1067  0.0050  0.1084
17965W        W33096  16.875   6.042  11.598  0.0722  0.4467  0.2273
17966W        W33097   6.405   5.424  10.226 -0.1684 -0.1155 -0.1185
17967W        W33098  11.157  13.217  12.181 -0.2809 -0.1760 -0.0603
17968W        W33099   9.271   6.424  15.351  0.1537  0.0007 -0.4101
17969W        W33100  16.004  18.289  13.927  0.2373  0.2662  0.2232
17970W        W33101   4.630   9.601  12.379 -0.0380  0.0511 -0.1526
17971W        W33102   2.001   5.285   1.323  0.0989 -0.0786  0.0008
17972W        W33103  12.226  10.783  10.007 -0.0373  0.2155  0.3127
17973W        W33104   1.049   2.427  14.267 -0.3952 -0.0666 -0.1524
17974W        W33105   9.824   2.434   2.611 -0.2777  0.0395  0.3669
17975W        W33106  14.447   6.100  13.026  0.1454 -0.3255  0.0213
17976W        W33107  15.394   6.911   3.746  0.0570 -0.0712 -0.0179
17977W        W33108  17.077  11.515  12.590 -0.2374  0.4666 -0.2799
17978W        W33109   3.445   4.924  13.917  0.2254 -0.0796 -0.1138
17979W        W33110  15.022  16.114  15.310  0.2119 -0.0304  0.2672
17980W        W33111   6.550  16.176   3.193 -0.2687 -0.2604 -0.0845
17981W        W33112  13.900  11.558   2.518  0.1063  0.0169  0.1386
17982W        W33113   0.964   9.374   1.879  0.1213  0.1502  0.0261
17983W        W33114  14.279   8.285   1.563 -0.2369 -0.2911  0.1524
17984W        W33115   3.373   9.758  13.126  0.0555  0.0039  0.0518
17985W        W33116   6.869   6.505  14.841  0.1328 -0.0449 -0.0319
17986W        W33117  10.095   8.503   4.521 -0.0956  0.0874  0.1271
17987W        W33118  10.952   4.556  10.782 -0.0448 -0.2382  0.2738
17988W        W33119   2.647   7.333   1.926 -0.0904 -0.1172 -0.0140
17989W        W33120   6.493  17.328   0.616  0.1815 -0.3960 -0.0387
17990W        W33121  16.429   7.720  13.480 -0.4476 -0.0051  0.1295
17991W        W33122   2.975  11.953   0.231 -0.1196  0.1482  0.1506
17992W        W33123  17.311   1.121   0.692  0.1137 -0.3482 -0.1285
17993W        W33124   1.058   8.786  14.369 -0.4727  0.3347 -0.3303
17994W        W33125  18.635  12.483   2.965  0.1807  0.0531  0.2968
17995W        W33126   5.697   6.465   4.126  0.2135 -0.0416  0.1247
17996W        W33127   6.731  13.553  11.064 -0.2085  0.1045  0.1503
17997W        W33128   7.074   6.933   0.132 -0.0501  0.2029  0.0142
17998W        W33129  10.703   6.622  12.449 -0.0942  0.4087 -0.0509
17999W        W33130  15.554  12.441   2.294 -0.3749  0.0000  0.4068
18000W        W33131   5.091  15.757   0.563  0.1219  0.2655  0.2105
18001W        W33132  11.834  11.013  10.269  0.1887 -0.1296  0.1991
18002W        W33133   5.621   8.039   5.718  0.3233 -0.2835  0.2310
18003W        W33134   4.512  17.152   4.487 -0.1089 -0.0273 -0.0104
18004W        W33135   3.878  17.485   0.998 -0.2233 -0.3073  0.0079
18005W        W33136  12.092  18.358  12.488  0.2219 -0.1158  0.2307
18006W        W33137  11.365   8.774   3.596 -0.0757 -0.0578 -0.2002
18007W        W33138   3.549  14.719   3.455  0.0882  0.4265  0.1568
18008W        W33139  12.359   5.285   2.626 -0.3017 -0.0523 -0.2633
18009W        W33140   8.803  10.429   4.340 -0.0025 -0.2748 -0.2856
18010W        W33141   2.730   6.458   6.011 -0.0038  0.2694 -0.4271
18011W        W33142   1.090   9.610   1.430  0.0421 -0.2729  0.3293
18012W        W33143  11.940   7.213   3.980 -0.0354  0.2344 -0.2483
18013W        W33144   1.174  16.934  14.415  0.0292  0.0850  0.0051
18014W        W33145  18.515   2.089   2.611 -0.1809  0.2065 -0.1444
18015W        W33146   9.316   5.375  14.134 -0.0958 -0.1263 -0.2276
18016W        W33147   6.318  17.802   0.671 -0.0088  0.0351 -0.0432
18017W        W33148  12.699   8.718   1.900  0.0389  0.0339 -0.0204
18018W        W33149  15.335   7.545   1.432  0.3141 -0.2550 -0.2776
18019W        W33150  13.431  15.562  12.258  0.1489 -0.2405 -0.0751
18020W        W33151   2.133  12.478   3.089  0.4743  0.0444 -0.1530
18021W        W33152   7.784   1.712   4.831 -0.6048  0.1831  0.3128
18022W        W33153   1.889   8.555   1.071 -0.0496 -0.0274 -0.2286
18023W        W33154   5.177  14.788   4.287 -0.1862  0.2424 -0.1128
18024W        W33155  18.118   7.420  12.604 -0.1475  0.0776 -0.0497
18025W        W33156  18.135   6.100   1.598 -0.0774 -0.1870  0.0977
18026W        W33157   3.513   7.347  10.270 -0.2496  0.1635  0.3694
18027W        W33158   2.944   8.445   3.024 -0.1717 -0.1820  0.1530
18028W        W33159   3.279  12.179  13.513 -0.1980 -0.2327 -0.2369
18029W        W33160  16.475  10.205   5.356  0.2395  0.3082  0.1380
18030W        W33161   9.482  10.657  14.495  0.2153 -0.1572 -0.2706
18031W        W33162   7.076   1.699   1.466  0.1078 -0.2369 -0.1682
18032W        W33163   0.560   0.151  15.163  0.0368 -0.0098  0.1435
18033W        W33164   9.599   6.289  12.644  0.2729 -0.0366 -0.1234
18034W        W33165   7.462  15.635  14.370 -0.1192  0.2529 -0.1135
18035W        W33166  18.491  13.909   0.310 -0.0615 -0.0247 -0.0094
18036W        W33167  11.910  12.714  13.295  0.1545 -0.0783  0.3203
18037W        W33168   0.392   0.439   4.152  0.0471  0.1589  0.2074
18038W        W33169   3.820   6.476   3.411  0.1410 -0.0022  0.0045
18039W        W33170   8.394   5.807   4.484 -0.1249  0.0836 -0.1130
18040W        W33171  14.320   2.750   3.887  0.0703 -0.0638 -0.4144
18041W        W33172  15.753  11.413   1.743 -0.0060  0.4123 -0.1042
18042W        W33173   1.190  16.138   2.963 -0.2692  0.0587 -0.4232
18043W        W33174  10.796  15.828   2.461  0.1348 -0.1879 -0.1395
18044W        W33175  12.465   6.853   5.127  0.2092 -0.1674  0.1668
18045W        W33176  13.861   8.296  13.170 -0.2017  0.1394  0.1069
18046W        W33177  16.864   5.465  10.987  0.3628  0.2308  0.2380
18047W        W33178   6.830   9.901  13.436 -0.2218  0.0409 -0.0515
18048W        W33179   2.394  13.762  15.142 -0.3976  0.1312 -0.0168
18049W        W33180   7.877  17.839  11.913 -0.2820  0.0127  0.1274
18050W        W33181  13.520   0.590  12.523 -0.0792  0.3200  0.4341
18051W        W33182  17.251  18.300  15.327 -0.2555  0.1112 -0.0220
18052W        W33183  11.500  14.062   0.990 -0.0579  0.0245 -0.0611
18053W        W33184  16.152  10.762  13.654  0.0973  0.2280 -0.2423
18054W        W33185  12.058  10.480   2.498 -0.0487 -0.0928  0.1259
18055W        W33186   7.794   0.341   1.527 -0.1840  0.2215  0.1377
18056W        W33187   3.939   4.622   1.253  0.1841 -0.0780  0.2831
18057W        W33188   3.582  16.648   0.054 -0.3588 -0.1000 -0.2165
18058W        W33189   9.645   5.158  15.536 -0.0332  0.1013  0.1793
18059W        W33190  14.621  18.616   2.882 -0.4615 -0.2113  0.1453
18060W        W33191  12.280  11.984   4.942  0.0431  0.2091 -0.0737
18061W        W33192   4.036   1.258   2.678 -0.4930 -0.2018 -0.1495
18062W        W33193   0.457   6.346   4.415 -0.0194  0.0331 -0.2276
18063W        W33194  16.688  14.601  12.463  0.4079 -0.6800 -0.2184
18064W        W33195   3.928  18.209   1.997 -0.2290  0.2454 -0.0228
18065W        W33196  16.884  18.116   1.801  0.1089 -0.0028 -0.4924
18066W        W33197  16.640  16.727  15.546 -0.3062 -0.0297 -0.1377
18067W        W33198   8.183   3.783  12.587  0.0480 -0.2189  0.1202
18068W        W33199  13.896  13.831  13.470  0.0826 -0.1658  0.0805
18069W        W33200   0.418  16.441  11.262 -0.0912  0.2006 -0.1591
18070W        W33201  14.809   0.126  13.799 -0.0458 -0.1430  0.0602
18071W        W33202   9.626  10.502  10.829  0.0741  0.2469 -0.1573
18072W        W33203  15.923  17.535  12.205 -0.2148 -0.2679 -0.1561
18073W        W33204  17.145  13.487   1.302 -0.1147 -0.2333  0.3752
18074W        W33205  17.062   3.247  13.132 -0.0894  0.1145  0.1377
18075W        W33206  16.399  11.397  15.364 -0.2631  0.0351 -0.2672
18076W        W33207   0.117  11.931  11.913 -0.3547  0.2525 -0.0033
18077W        W33208   7.950  10.172  14.502 -0.0509 -0.0127 -0.0327
18078W        W33209   3.710   4.701  14.314 -0.0827  0.0146  0.3631
18079W        W33210  13.210   2.849  13.178  0.0229 -0.0008  0.1790
18080W        W33211   8.299   3.793  15.783  0.3416 -0.1017  0.4945
18081W        W33212   0.882   9.358   1.019  0.1928  0.2625 -0.2190
18082W        W33213  11.922   7.378   2.406  0.1722  0.3669 -0.2006
18083W        W33214   0.891   3.587   0.992  0.2228  0.2349 -0.2982
18084W        W33215  15.800  13.777   2.780  0.1914  0.2068 -0.3569
18085W        W33216  14.193   7.060  13.597  0.2405  0.2734 -0.2605
18086W        W33217  10.210   1.569   5.462  0.1816 -0.2230  0.0011
18087W        W33218  16.320   9.146   4.454  0.5351  0.1109 -0.1269
18088W        W33219   0.454   8.402  14.974 -0.1245 -0.1059 -0.3945
18089W        W33220  13.180  10.897  10.750 -0.3159  0.2275  0.0115
18090W        W33221   2.850  13.089   2.524  0.2259 -0.0587  0.0218
18091W        W33222   4.767  17.877  10.957  0.0657  0.0123  0.0227
18092W        W33223   4.468   5.720   3.458 -0.0215  0.1450  0.0872
18093W        W33224  11.596   2.460  15.460  0.1910 -0.0497 -0.2919
18094W        W33225   0.026   2.798  15.664  0.0427 -0.1612 -0.0860
18095W        W33226   2.469  11.122  15.483 -0.0657  0.2422  0.0574
18096W        W33227   9.028   8.672  13.422  0.0209  0.0858 -0.3814
18097W        W33228   7.975   7.291   2.819 -0.2173 -0.0439 -0.2653
18098W        W33229  14.188  11.232   1.500  0.1107 -0.2106 -0.0405
18099W        W33230  11.364  11.766  11.284  0.1477 -0.1449 -0.2576
18100W        W33231   0.740  13.584   4.468 -0.1209 -0.1055  0.0451
18101W        W33232  18.439   6.145  13.290 -0.1048 -0.0088 -0.3283
18102W        W33233   7.823   8.315   3.055 -0.1136 -0.0739 -0.1048
18103W        W33234  11.946   8.048  10.806  0.0036  0.1533  0.0033
18104W        W33235   4.455   9.024  12.482  0.4216 -0.1851  0.2312
18105W        W33236  17.653  10.698   4.251 -0.0161 -0.3494 -0.0464
18106W        W33237   8.275   2.659  14.264  0.0314 -0.1520 -0.0326
18107W        W33238  17.050   9.302   3.258 -0.2003 -0.2796 -0.0507
18108W        W33239   5.643  16.125   5.374  0.1341 -0.0046 -0.3098
18109W        W33240   9.649  16.615   3.745  0.2363  0.2787  0.2204
18110W        W33241   8.794   5.203   0.121  0.4506  0.0044 -0.1956
18111W        W33242  14.228  10.214  15.269  0.1520  0.0948 -0.0302
18112W        W33243  17.074   5.012  12.174  0.0217  0.1479  0.1504
18113W        W33244  15.249   5.882   3.863 -0.0636 -0.0412 -0.1972
18114W        W33245   1.150   2.421   2.213  0.0551  0.1245 -0.2907
18115W        W33246   8.395   8.771  12.439  0.0574 -0.1568  0.0737
18116W        W33247  15.154   7.880   5.093  0.1184 -0.1275  0.0597
18117W        W33248   2.989   9.964   1.424  0.1725 -0.1602 -0.1650
18118W        W33249  15.528  10.840  10.743  0.3082  0.1017  0.1543
18119W        W33250   4.033   9.524   2.637 -0.2661 -0.1061 -0.0535
18120W        W33251   8.916  17.949  11.068  0.1474 -0.0821  0.0836
18121W        W33252   4.460   9.968  15.367  0.3347  0.3385  0.1927
18122W        W33253  12.581   9.979  10.981  0.3031  0.0397  0.1710
18123W        W33254   1.160  14.819   0.487  0.0940  0.1095  0.0666
18124W        W33255   4.730  17.926  11.818  0.0915  0.1187 -0.1045
18125W        W33256   8.242   6.955   0.990 -0.1993 -0.0923  0.2445
18126W        W33257  11.092   6.474  15.437  0.4655 -0.0892 -0.1671
18127W        W33258   0.057  16.840   4.125 -0.0547 -0.0905  0.0342
18128W        W33259  15.884  14.521  10.604  0.1048 -0.0303 -0.1112
18129W        W33260   2.729   7.738  11.577 -0.0185 -0.0043  0.1461
18130W        W33261  17.348  15.073   1.660 -0.0247 -0.1451 -0.0458
18131W        W33262   3.416  15.957  11.831 -0.2545 -0.0823  0.0528
18132W        W33263  12.944   3.621  15.516 -0.0954  0.0233  0.2419
18133W        W33264  13.349  17.549   2.825  0.1132  0.1827 -0.2651
18134W        W33265  18.412   5.737   1.286  0.3148  0.0752 -0.2315
18135W        W33266  10.968   1.685   4.400 -0.1391  0.0421 -0.2867
18136W        W33267  14.578  13.758  15.319  0.0750  0.2486  0.0697
18137W        W33268  17.204  12.419  12.965 -0.0460  0.1383 -0.0043
18138W        W33269  13.282  15.810  11.854  0.2577 -0.0664  0.0260
18139W        W33270  16.248  14.532   1.743 -0.4319  0.3781 -0.2618
18140W        W33271   3.690   4.289  11.598 -0.0415 -0.1343 -0.2784
18141W        W33272   8.650  17.015   1.614 -0.3362  0.2474  0.0957
18142W        W33273   9.043  11.798   4.136 -0.2055  0.0397 -0.1598
18143W        W33274  12.868   7.472   2.200  0.2162 -0.1629  0.0589
18144W        W33275  15.649   2.069  14.665  0.1750 -0.3272  0.0255
18145W        W33276  15.859  12.840   2.466 -0.0195 -0.2825  0.0708
18146W        W33277  10.293  11.222   0.254  0.0378  0.4284 -0.0504
18147W        W33278  12.533  16.323   4.701 -0.0202 -0.2176  0.1725
18148W        W33279   9.008   8.909  14.953 -0.2056  0.2003  0.0675
18149W        W33280   0.927   4.304   2.203 -0.0025 -0.0772 -0.0762
18150W        W33281   2.300  13.289  15.194 -0.1870  0.1295  0.0026
18151W        W33282  11.432  13.236  15.453  0.3430  0.0685  0.1271
18152W        W33283   2.583  12.471   2.374 -0.0830  0.1794  0.2267
18153W        W33284   1.907   0.736  14.079 -0.0962  0.0637 -0.2565
18154W        W33285  16.340  16.620   2.933  0.0391  0.1629 -0.2722
18155W        W33286   1.888   2.138  14.485  0.1279  0.1531  0.0847
18156W        W33287   9.490  11.274  15.653 -0.1638  0.0608 -0.1139
18157W        W33288  13.709   2.967   4.749 -0.1661  0.1917 -0.2040
18158W        W33289  12.368  15.042   1.158  0.0381 -0.1539  0.3713
18159W        W33290  15.507  13.339  11.286  0.0376 -0.1327 -0.4356
18160W        W33291   1.370  10.354  12.151 -0.0704 -0.2238 -0.3069
18161W        W33292   9.500   8.097  15.242  0.0719  0.0788  0.3443
18162W        W33293   9.962  10.548   2.410 -0.0838  0.2008  0.3409
18163W        W33294   7.147  18.010  13.311  0.0437  0.1265  0.0052
18164W        W33295  12.091  13.119  14.417  0.0406  0.2927 -0.0221
18165W        W33296   3.121   7.440   4.730 -0.3343  0.0017  0.1430
18166W        W33297   6.640   4.850   3.874  0.3814  0.0775 -0.0385
18167W        W33298  11.998   8.460   4.077 -0.4172 -0.0376 -0.0210
18168W        W33299   4.127  11.313  13.908  0.1584  0.2620  0.0019
18169W        W33300  12.457   9.692   3.835 -0.0994 -0.0877 -0.0411
18170W        W33301  15.751  12.135  11.440  0.4081  0.1703 -0.1216
18171W        W33302   5.528   1.804  11.749 -0.0883 -0.1522  0.1389
18172W        W33303  11.201   6.762  10.773  0.2880 -0.0450 -0.0830
18173W        W33304  16.344  18.063   3.314  0.3222  0.2297 -0.1771
18174W        W33305   7.552   1.271   2.516 -0.0584  0.2567  0.4204
18175W        W33306   2.966   0.058   2.652 -0.0365 -0.0699  0.1679
18176W        W33307  10.624  12.272  10.684  0.3743 -0.2702  0.1773
18177W        W33308   4.600   0.009  13.782 -0.0563  0.4263  0.4947
18178W        W33309   2.692   9.583   3.992 -0.1171  0.0069  0.0522
18179W        W33310   8.762   4.241  13.744  0.5126 -0.3802  0.0698
18180W        W33311   1.279  11.384  11.852  0.2687  0.1546  0.0006
18181W        W33312  14.188   5.842  15.095  0.3121 -0.0426 -0.0929
18182W        W33313   2.595   5.557  11.753 -0.1513  0.0915 -0.1235
18183W        W33314   6.541  15.517   2.836  0.3734 -0.0863 -0.1164
18184W        W33315   2.820  15.169  14.313 -0.1221  0.1649 -0.2287
18185W        W33316   1.391   3.607   2.717 -0.1093  0.0883 -0.1284
18186W        W33317   9.468   1.422  14.820 -0.0018  0.0486 -0.0007
18187W        W33318   3.275  15.836   0.138  0.1908 -0.3659 -0.2224
18188W        W33319  10.288   3.742   4.554 -0.0452  0.2225  0.2744
18189W        W33320   8.514   9.678   4.099  0.0572 -0.1943  0.1707
18190W        W33321  14.085  14.846   3.123  0.1228  0.0405 -0.2294
18191W        W33322   6.061  13.626   5.293 -0.0791 -0.2673 -0.2868
18192W        W33323   4.771  16.530   1.247 -0.1159 -0.1523  0.1673
18193W        W33324   2.632   5.690  15.687  0.0759  0.1506  0.1541
18194W        W33325  16.822   4.430   0.204  0.1001  0.0010 -0.0054
18195W        W33326   5.984   7.366  14.105  0.4925 -0.0357  0.0793
18196W        W33327  10.675  12.303  12.090  0.2939  0.1752 -0.0836
18197W        W33328  17.682   8.053   4.898 -0.2350  0.3500 -0.0446
18198W        W33329  12.791   7.479  11.749  0.2345 -0.0193 -0.2725
18199W        W33330  17.464  10.163   0.797 -0.2792  0.0094 -0.0549
18200W        W33331  11.222   3.944  10.244  0.1113  0.2435  0.1337
18201W        W33332   7.337   1.731  12.235 -0.0917 -0.0692  0.0479
18202W        W33333   3.565  17.779  13.938  0.1248  0.0433 -0.0374
18203W        W33334   0.275   7.838  12.666  0.3027  0.1441  0.1892
18204W        W33335  18.182   6.634   1.335 -0.0879  0.1802 -0.2276
18205W        W33336  11.548  13.050  11.301 -0.3016  0.1698 -0.0665
18206W        W33337   4.494  17.379   3.340  0.3781  0.0389 -0.2256
18207W        W33338   5.481   1.171   1.910 -0.4525  0.0030  0.3068
18208W        W33339   7.035   2.888   2.608  0.0744 -0.1775  0.1575
18209W        W33340   0.921   0.322   2.445  0.2292 -0.0429 -0.1708
18210W        W33341   3.689   0.347  10.982  0.0788  0.0292 -0.0355
18211W        W33342   7.383  12.943  10.491  0.4099 -0.1966 -0.2654
18212W        W33343   0.947   4.460  12.136 -0.1246  0.2551 -0.1544
18213W        W33344   7.650  17.307  12.372  0.0305 -0.3835 -0.0041
18214W        W33345  18.129   1.200   0.479 -0.2765  0.3405 -0.1578
18215W        W33346   5.555   9.358  10.437  0.1673 -0.0221  0.0873
18216W        W33347   1.709   1.569  14.500 -0.0329 -0.5586  0.2627
18217W        W33348  15.449   0.379   0.126 -0.4202  0.1762 -0.3406
18218W        W33349  17.314   3.910   1.822  0.4154 -0.0004 -0.0017
18219W        W33350  11.601   1.492  15.488 -0.0954 -0.0828 -0.1342
18220W        W33351   3.111   6.101   1.670 -0.4551 -0.1584 -0.3340
18221W        W33352  11.183   8.460  12.551 -0.0986 -0.0520 -0.1507
18222W        W33353  12.092  11.034  15.352 -0.2242  0.0301 -0.0228
18223W        W33354  12.916  13.429   2.742  0.1039 -0.0823 -0.1448
18224W        W33355  15.544  17.449  10.932 -0.3276 -0.2221  0.2626
18225W        W33356   2.587  16.027   5.884 -0.0265 -0.0706  0.1487
18226W        W33357   4.559   7.341  10.399  0.0188  0.0291 -0.7260
18227W        W33358   8.693   5.514  12.798 -0.0324 -0.1025  0.0987
18228W        W33359  13.737   1.106   2.073  0.4246  0.0374 -0.0241
18229W        W33360  18.003  18.284  15.755 -0.2757 -0.0388 -0.0424
18230W        W33361   2.850   0.329  15.444  0.1600  0.0408 -0.3581
18231W        W33362   9.447  13.495  15.400  0.5139 -0.3976  0.1790
18232W        W33363  13.161   4.350   5.088  0.4774 -0.3400  0.0001
18233W        W33364  12.344  11.645   1.773  0.4045 -0.1175  0.2831
18234W        W33365   3.741   4.027  10.855 -0.1784 -0.1674  0.1395
18235W        W33366   5.348  10.473  10.635 -0.0375 -0.0139 -0.2381
18236W        W33367  13.255   8.901   5.402  0.2468 -0.1832  0.0292
18237W        W33368   7.060  15.698  14.615  0.2185 -0.0037  0.2058
18238W        W33369   7.947   2.472   2.885 -0.1118  0.0495 -0.3066
18239W        W33370  17.268  10.418   5.640  0.1113  0.0304  0.3071
18240W        W33371   1.898  18.094   2.633  0.1998  0.3493  0.1990
18241W        W33372  15.432  13.234  15.111  0.1127  0.1555  0.2310
18242W        W33373   9.934   7.358   2.618 -0.1726  0.4276  0.1902
18243W        W33374   1.636  16.170  13.375 -0.4798  0.0985 -0.1257
18244W        W33375   1.425  14.913   2.465 -0.1714  0.2338 -0.3700
18245W        W33376  12.137  10.007   1.888 -0.0279  0.0457 -0.3676
18246W        W33377   3.037   7.477   0.580  0.1359  0.3453  0.1130
18247W        W33378   8.644   4.510  11.973 -0.1221 -0.1326 -0.0746
18248W        W33379  15.615   5.932   0.862  0.2502 -0.0805 -0.1089
18249W        W33380  13.198  14.920   3.486 -0.1234  0.1882 -0.1760
18250W        W33381   6.297   6.353  13.243  0.0556  0.3191  0.0704
18251W        W33382   8.684  10.152  13.239 -0.0838 -0.1568 -0.0714
18252W        W33383   3.862   6.170   1.194 -0.1377  0.0248 -0.2707
18253W        W33384   8.813  13.834  11.989  0.0107 -0.0983  0.0441
18254W        W33385   6.717   5.000   1.559  0.4680  0.1805 -0.2095
18255W        W33386   4.990  13.394  15.705  0.1942  0.0339  0.1239
18256W        W33387   7.631   5.711   5.310  0.1170  0.0268  0.3750
18257W        W33388  15.715  14.760  15.301  0.0441  0.1639  0.2681
18258W        W33389  18.630   9.115  11.101  0.0635  0.2382  0.1840
18259W        W33390  10.385   1.652  11.810 -0.0786 -0.0832  0.0010
18260W        W33391   0.839   3.985  12.013 -0.2231 -0.0806 -0.1290
18261W        W33392  18.567   4.840   5.352  0.0129 -0.0598 -0.1059
18262W        W33393  14.015   3.631  13.725 -0.0051  0.1007 -0.0308
18263W        W33394   1.085  17.515   1.428 -0.2189 -0.0564 -0.2098
18264W        W33395   8.621  17.464   1.437 -0.0912 -0.3712  0.1892
18265W        W33396  10.122  11.487   0.796  0.1132 -0.2073  0.0584
18266W        W33397   0.215   0.393   1.234  0.0993 -0.1572 -0.2536
18267W        W33398  13.975   9.593  12.942 -0.3394  0.4516 -0.1600
18268W        W33399  10.167   3.235   3.846 -0.0075  0.0206  0.3265
18269W        W33400   1.784  12.917   1.779 -0.1181 -0.0808  0.2087
18270W        W33401   9.458   9.778  12.976 -0.0244 -0.2569  0.3368
18271W        W33402  17.979   9.128  12.031 -0.2206  0.0259  0.0661
18272W        W33403   3.370  18.454   0.848 -0.2110 -0.1692 -0.1320
18273W        W33404   9.069  11.802  12.828  0.2294 -0.0021 -0.0561
18274W        W33405   1.351  14.822  14.922  0.0469  0.1360  0.0449
18275W        W33406  13.284  14.181   3.070  0.0431 -0.1751 -0.1467
18276W        W33407  14.585  13.282   0.840 -0.0241  0.0833  0.0885
18277W        W33408  12.777  18.286  11.824  0.0469 -0.1897  0.2067
18278W        W33409   4.954  14.365   2.457 -0.2987  0.3540  0.1276
18279W        W33410  13.385  16.494  13.633  0.3439  0.4381  0.0404
18280W        W33411  16.896   9.857  14.836  0.2370  0.1740 -0.1250
18281W        W33412   6.648   3.364  12.706 -0.0562  0.1474 -0.0827
18282W        W33413   5.925   9.960   6.063  0.0382 -0.1448 -0.1651
18283W        W33414  11.415   1.401   1.610  0.0963 -0.4003 -0.0667
18284W        W33415   7.406  18.094  14.243  0.0782  0.1985  0.1106
18285W        W33416  10.368   6.198  10.490  0.1035 -0.1473 -0.4477
18286W        W33417   6.177  11.724   2.885 -0.2284 -0.3441  0.0276
18287W        W33418  17.038   2.622  11.801 -0.2311  0.3380 -0.0194
18288W        W33419  10.221   3.268   4.328 -0.2180 -0.1861 -0.0059
18289W        W33420  10.078   9.941  11.731  0.1034 -0.1629  0.1009
18290W        W33421  18.058  16.169   3.596  0.0055  0.0437 -0.0459
18291W        W33422   6.911   9.309  14.733  0.1747  0.1509  0.0361
18292W        W33423  16.721   4.341   0.671 -0.1515 -0.0410 -0.3829
18293W        W33424   8.235   6.939  11.689 -0.2073  0.1536 -0.1035
18294W        W33425  18.484  16.944   4.792 -0.1625  0.0005  0.0893
18295W        W33426  16.696   1.491  12.813 -0.0556 -0.4232 -0.3702
18296W        W33427   5.289   5.646  11.905  0.1529  0.0577  0.2671
18297W        W33428   7.771   4.094   1.205 -0.2423 -0.0072 -0.0111
18298W        W33429  11.296   1.961  10.834 -0.1213 -0.1335 -0.0669
18299W        W33430   3.068   3.467   0.529  0.0068  0.0075  0.0615
18300W        W33431  11.454   1.202   3.409  0.2253 -0.1954  0.1647
18301W        W33432  14.150  14.073  15.109 -0.0665 -0.1193 -0.0380
18302W        W33433   9.933   3.438   1.258 -0.0996 -0.1525 -0.3405
18303W        W33434  14.103  11.523   5.806 -0.1083 -0.0327 -0.2407
18304W        W33435  12.923  14.982  11.100 -0.4320 -0.3558 -0.0357
18305W        W33436  14.523  15.689   2.700 -0.2288  0.3155 -0.0017
18306W        W33437  10.436   3.958  15.158 -0.1314 -0.0839  0.3765
18307W        W33438   5.082  15.448   0.095  0.0150  0.2524 -0.3369
18308W        W33439   0.144  17.102   5.639 -0.0217  0.0585 -0.2161
18309W        W33440  10.470  11.219  15.578  0.3096  0.1195 -0.1062
18310W        W33441   3.337  18.520   1.340 -0.1783  0.0079  0.0910
18311W        W33442  17.092   7.209   2.996 -0.1127 -0.1983 -0.0079
18312W        W33443   9.830  13.127   3.349 -0.1966  0.0444  0.0678
18313W        W33444   6.970  16.329   1.824 -0.3437  0.1579  0.2355
18314W        W33445   4.167   8.487   4.105 -0.1288  0.3037 -0.1675
18315W        W33446  16.494  10.172   1.871 -0.1733 -0.2423 -0.1830
18316W        W33447  13.137   9.909   2.768 -0.0303  0.3066  0.0024
18317W        W33448   2.743  13.386   3.234  0.0593 -0.0324 -0.1725
18318W        W33449   8.539   1.469  15.759  0.1412  0.1117 -0.4737
18319W        W33450   1.187   7.156   5.399 -0.2510 -0.0623  0.0957
18320W        W33451  15.131  18.417   3.021  0.2396  0.0829 -0.1370
18321W        W33452   5.497   8.133  11.743  0.0929 -0.2601 -0.3752
18322W        W33453  18.495   7.887   2.412  0.1075 -0.1720  0.0636
18323W        W33454   7.437   6.859   1.986  0.0471 -0.1766  0.1504
18324W        W33455  18.258  17.449   4.834 -0.2024  0.0424 -0.3092
18325W        W33456  15.379   5.122   1.713  0.1428 -0.3351 -0.1171
18326W        W33457  13.581  13.723   0.482  0.0952  0.0344 -0.0907
18327W        W33458   0.276  10.176  14.271  0.3279 -0.1494 -0.1204
18328W        W33459   1.338  12.783   4.566 -0.2301 -0.0368 -0.0849
18329W        W33460   4.363   0.311   0.791  0.0377  0.3129  0.1132
18330W        W33461   6.070  17.715   4.993 -0.0741  0.0508  0.1696
18331W        W33462  13.964   8.211  10.982 -0.0416  0.0441 -0.2865
18332W        W33463   5.990   5.601   2.243  0.4434 -0.0683 -0.2585
18333W        W33464   4.960   4.916   3.051  0.0162 -0.2175  0.3408
18334W        W33465   2.571  13.580   5.557 -0.0731 -0.1472  0.2357
18335W        W33466  11.112  18.507   5.105  0.1667 -0.0177  0.5455
18336W        W33467   4.160  15.779   3.438  0.1871 -0.1667  0.1395
18337W        W33468   0.514   8.720  10.719  0.0510  0.4236 -0.0754
18338W        W33469  12.612  11.555  12.164 -0.4874 -0.2006  0.1452
18339W        W33470  15.803   3.867   1.083 -0.1685 -0.1588 -0.1235
18340W        W33471  10.764   3.814  12.968  0.3349  0.4046 -0.1626
18341W        W33472  16.872   1.315   0.936 -0.0856 -0.0151 -0.0500
18342W        W33473   8.895  18.450   1.940  0.0953  0.1178 -0.1736
18343W        W33474   8.078  17.128  13.725  0.1285  0.0172 -0.3812
18344W        W33475   3.753  13.882   5.784  0.3280 -0.1140 -0.1199
18345W        W33476   0.067  10.762   1.944 -0.0449  0.2048 -0.4080
18346W        W33477  16.211   8.694   3.213 -0.0636 -0.1475  0.0228
18347W        W33478   7.430   7.189  12.317 -0.3392 -0.3341  0.1398
18348W        W33479   3.111  10.004  13.679 -0.0862 -0.1983  0.4174
18349W        W33480  15.936   5.778   2.985  0.1038  0.0018 -0.1900
18350W        W33481   5.873  10.524  14.303  0.2690 -0.2148 -0.1294
18351W        W33482   5.931  12.127   2.163  0.2011 -0.1464  0.0398
18352W        W33483  13.156   3.205  10.282  0.4071 -0.0768  0.2214
18353W        W33484   2.274  14.445  15.744 -0.0696  0.2550 -0.2947
18354W        W33485   0.357  17.346  14.663 -0.1279  0.0360  0.1225
18355W        W33486  17.606  13.664  12.065 -0.1030  0.0105  0.2738
18356W        W33487   0.387   2.484   3.289 -0.1280  0.1728 -0.1458
18357W        W33488  18.589   6.488   0.055  0.0900 -0.1999  0.0377
18358W        W33489  17.158   1.250  11.515 -0.2047  0.3921  0.1977
18359W        W33490   3.504  11.265   2.091 -0.3175 -0.0225  0.1311
18360W        W33491   6.937  11.062  12.799 -0.2746  0.0294  0.2662
18361W        W33492   1.843   7.228   1.286  0.1258  0.1277 -0.0920
18362W        W33493   5.180  18.164  10.765 -0.2393 -0.1651  0.2803
18363W        W33494   0.812  12.515   4.151 -0.4552 -0.1059  0.0234
18364W        W33495   3.701  14.713   4.096  0.0932 -0.0853 -0.4095
18365W        W33496  10.097   2.870  12.414 -0.2565  0.2706  0.0294
18366W        W33497  14.054   6.738   3.042 -0.0527  0.0533 -0.3993
18367W        W33498  13.293  11.998   4.532 -0.1402  0.0412 -0.0268
18368W        W33499   5.014   7.590   2.258  0.1115  0.0891 -0.2805
18369W        W33500   5.225  12.127  15.093  0.0723 -0.1921  0.0580
18370W        W33501   1.410  16.594   5.226 -0.0145 -0.1234 -0.2247
18371W        W33502   1.937  12.515  14.077  0.0645  0.2404 -0.0901
18372W        W33503   1.660  10.452   1.042 -0.0842  0.2380  0.1267
18373W        W33504   8.786  13.944  14.554 -0.1558 -0.0272  0.1425
18374W        W33505  17.842   7.230  11.102 -0.1213  0.4114  0.0696
18375W        W33506  15.754   5.859  12.654 -0.1215 -0.0226 -0.2232
18376W        W33507  16.107  13.781  12.642  0.4575  0.2095 -0.0108
18377W        W33508  10.790   6.443  14.485  0.0414  0.4200  0.0594
18378W        W33509  15.436  16.304  13.611 -0.1902 -0.3618 -0.0092
18379W        W33510  17.634   3.350  14.404 -0.0411 -0.3335  0.0582
18380W        W33511   5.688   5.798   0.122  0.0091  0.2347  0.1240
18381W        W33512   0.463  10.518   2.184  0.3826  0.2303  0.1536
18382W        W33513   6.796   7.383  15.589 -0.4696 -0.0449  0.1890
18383W        W33514   9.556   6.312   9.295  0.2938 -0.2114 -0.5027
18384W        W33515   7.952  11.535  14.928  0.0659  0.1544  0.0038
18385W        W33516  13.879   2.023  11.782  0.2142  0.0054 -0.4624
18386W        W33517  18.227   9.585   4.330  0.0136  0.0608  0.1391
18387W        W33518  18.455  11.066   3.691 -0.5073  0.1694 -0.0068
18388W        W33519   7.857  17.811   2.020 -0.1378  0.3360  0.1093
18389W        W33520   9.726   3.455  15.684  0.2597 -0.2880 -0.2623
18390W        W33521  10.183   1.713   1.871  0.3008  0.3457 -0.0165
18391W        W33522   3.381  15.671   3.769  0.1638  0.0191 -0.3616
18392W        W33523   5.923   2.420  12.183 -0.0513  0.0045  0.3930
18393W        W33524   0.299   8.532  11.832 -0.4263  0.1620 -0.4071
18394W        W33525  12.968   2.142   3.989 -0.2895 -0.1991 -0.1399
18395W        W33526   8.820  14.129  13.028  0.1003  0.0440 -0.1861
18396W        W33527   1.801   6.236   1.561 -0.1421 -0.2773 -0.2775
18397W        W33528  16.312   5.336  12.354 -0.3353 -0.1849  0.2016
18398W        W33529  10.638   4.058   2.258 -0.2587 -0.2264  0.3892
18399W        W33530  15.556  15.862   1.371  0.0152 -0.0244  0.4146
18400W        W33531  12.716   0.313  11.985  0.3479 -0.1844 -0.1419
18401W        W33532   9.500  17.438   1.587  0.2041 -0.2128 -0.3098
18402W        W33533   2.258   7.046  11.230 -0.0596  0.3773  0.2475
18403W        W33534   2.135   6.426   0.535 -0.0571  0.0091 -0.1784
18404W        W33535   8.643   3.761   4.395 -0.1168 -0.3201 -0.0260
18405W        W33536  10.418  15.114  11.272  0.1915  0.2012 -0.1052
18406W        W33537   9.488  10.594  15.012 -0.0037  0.2144  0.2648
18407W        W33538  10.527  12.742   4.649  0.0970 -0.3360 -0.3478
18408W        W33539   8.449   5.535   1.297  0.0892  0.0379  0.0502
18409W        W33540  15.055  12.001  12.358 -0.3596 -0.3064  0.1019
18410W        W33541  18.004   4.722  12.106 -0.2870 -0.1225 -0.2555
18411W        W33542   2.263  11.973   0.754  0.0080  0.3112  0.0365
18412W        W33543  18.021   3.550   2.460  0.4684 -0.0957 -0.3518
18413W        W33544   8.931   2.671   4.075 -0.0025  0.0337  0.1195
18414W        W33545  10.121   5.055  11.870 -0.1828 -0.0172 -0.2973
18415W        W33546  10.991   7.845   0.891  0.1532 -0.1307 -0.1542
18416W        W33547   7.804   0.967  15.660 -0.5264  0.1206 -0.3659
18417W        W33548   1.113  15.551  13.827 -0.1636  0.0676 -0.1952
18418W        W33549   3.497  11.126   3.129 -0.2603  0.1466  0.1835
18419W        W33550  17.553   5.009  12.841 -0.6192 -0.0384 -0.0145
18420W        W33551   7.561   0.066   5.020  0.1787 -0.2728  0.0599
18421W        W33552  10.903   9.644  14.292 -0.2947  0.2278 -0.2189
18422W        W33553   0.544   6.346  12.255  0.4278 -0.2028  0.1259
18423W        W33554   0.192   6.823   2.042 -0.0757  0.3457 -0.0058
18424W        W33555  14.308   2.495   0.062  0.1693  0.1425  0.3795
18425W        W33556  16.844  18.077  15.081  0.1093 -0.2489 -0.1179
18426W        W33557   8.765  13.974   4.737 -0.0652  0.0319  0.5722
18427W        W33558  17.558  17.688   3.815 -0.1311 -0.2054 -0.1487
18428W        W33559  18.373   8.768   4.920  0.2440  0.0565  0.1448
18429W        W33560   1.057   7.759   1.167  0.3281  0.0976  0.1354
18430W        W33561   6.541   8.898   0.670  0.1911  0.1095 -0.3198
18431W        W33562  16.953   4.990  11.674 -0.2790 -0.4577 -0.1791
18432W        W33563   1.827  14.709  11.934 -0.3541  0.0347 -0.0660
18433W        W33564  10.078  14.081  12.867 -0.0233  0.2511  0.2914
18434W        W33565   2.621  15.527   3.102 -0.1430  0.0808  0.2657
18435W        W33566   8.519   3.123   3.366  0.0337  0.1898 -0.1494
18436W        W33567   6.478  15.998   4.760  0.1395 -0.1378  0.1384
18437W        W33568  16.726   3.892   1.556 -0.0054  0.2791  0.2416
18438W        W33569  17.833  16.977  12.372 -0.2517  0.3072  0.4811
18439W        W33570   6.440  15.588   4.460  0.1888  0.1193 -0.1689
18440W        W33571   7.894  12.396   9.852 -0.2545 -0.2628  0.0518
18441W        W33572   3.106   9.368  12.756  0.2469 -0.0367 -0.0317
18442W        W33573   2.043   6.793   3.292  0.3012  0.4592 -0.1137
18443W        W33574  17.523   9.102   2.784  0.0493  0.5973 -0.2153
18444W        W33575   8.911   6.657  12.526 -0.0244  0.0024 -0.1298
18445W        W33576   5.955   2.238  15.741 -0.2409 -0.1034  0.0948
18446W        W33577  18.546   7.719   0.109 -0.0264  0.0487 -0.0107
18447W        W33578   5.988  10.909   4.505 -0.3323  0.3463 -0.0353
18448W        W33579  12.565   9.450  15.000  0.0321 -0.1041  0.1341
18449W        W33580  10.772  14.460  12.450  0.0185 -0.0373 -0.1946
18450W        W33581   0.748  13.850  14.018 -0.0196  0.2566  0.0429
18451W        W33582   4.286   5.465  14.176  0.0223  0.1708  0.0421
18452W        W33583   6.404   8.174   1.375  0.1223  0.2090  0.1113
18453W        W33584   9.368  18.014  12.560 -0.0112 -0.1758  0.1280
18454W        W33585   3.189   8.430   3.478 -0.1690  0.1655 -0.1664
18455W        W33586  18.564   2.381  13.407 -0.1895  0.3078  0.1118
18456W        W33587  14.390  17.167   1.603  0.0548  0.0625  0.1245
18457W        W33588   1.711  14.623   2.001  0.3359  0.2661 -0.2542
18458W        W33589   8.068  17.435  11.465  0.2464  0.2662 -0.3965
18459W        W33590  18.181   3.273   0.471 -0.0614 -0.0170 -0.0264
18460W        W33591   1.411  11.376   5.470 -0.0879  0.3296  0.0433
18461W        W33592   2.927   1.634  12.068  0.0710 -0.0947 -0.3865
18462W        W33593   0.255  11.344  14.536 -0.1327  0.1256 -0.0523
18463W        W33594  12.429  11.814   2.713  0.0084  0.0467  0.0149
18464W        W33595   0.390   5.504  13.894 -0.0991 -0.4188  0.0050
18465W        W33596   8.330   3.018  15.234  0.1955  0.2832  0.2895
18466W        W33597  14.814   6.135  10.977  0.1938 -0.3565  0.2063
18467W        W33598   2.501   1.691  14.985  0.3051  0.0016 -0.0490
18468W        W33599  11.685   6.251  11.822 -0.2988 -0.3866 -0.0056
18469W        W33600  17.370   8.335   2.170 -0.2172 -0.2967  0.0810
18470W        W33601   0.710   6.135   3.598  0.1760 -0.2234 -0.0964
18471W        W33602   7.423   7.863   0.412  0.1234 -0.0225 -0.0765
18472W        W33603   2.416  10.713   0.479 -0.0762  0.3633 -0.0615
18473W        W33604   0.586  12.690  12.455  0.1480  0.4429  0.2864
18474W        W33605   2.406   9.350  13.472 -0.0020  0.0575 -0.2292
18475W        W33606   6.942  12.156  10.714  0.0977 -0.1162  0.1666
18476W        W33607  15.828   3.782   5.803  0.2093 -0.0579 -0.2390
18477W        W33608   2.099  17.658   3.860  0.1659 -0.3012 -0.2570
18478W        W33609   6.550  10.111   4.703  0.0715  0.1004 -0.0900
18479W        W33610  18.336  14.703  14.085  0.0976 -0.1631 -0.1449
18480W        W33611  13.215  11.094   3.679 -0.0388  0.5964  0.1055
18481W        W33612  14.835   8.914   0.003  0.2471 -0.4376  0.1102
18482W        W33613  12.643   5.855   3.358  0.0737 -0.0227 -0.2773
18483W        W33614   1.987   2.394  13.332  0.1185  0.0335  0.0797
18484W        W33615   4.556  12.292   0.816 -0.0922 -0.0884 -0.3284
18485W        W33616  14.310  18.600  11.493 -0.1979 -0.0643  0.0603
18486W        W33617   7.122  18.719   4.785 -0.0430  0.2180  0.1759
18487W        W33618   7.635   3.719   4.888  0.1746 -0.1409  0.0350
18488W        W33619   8.832   8.581  11.052 -0.1075 -0.0627  0.0959
18489W        W33620   2.349   3.388   5.386  0.1025  0.3288 -0.2833
18490W        W33621   2.278   6.647   9.591 -0.0986 -0.0150  0.0122
18491W        W33622  13.356   9.002  10.017  0.0447  0.2976 -0.0555
18492W        W33623   6.512   5.211   1.165  0.0166  0.0946  0.0723
18493W        W33624   4.764   7.084  14.192 -0.0640 -0.1101  0.1645
18494W        W33625   3.313  17.838  14.407  0.0053  0.1768 -0.0288
18495W        W33626  16.329  17.642  11.148 -0.3899 -0.0043  0.1887
18496W        W33627   6.394   7.053   0.453 -0.1158  0.0757  0.0481
18497W        W33628   5.737   2.413   2.619  0.0032 -0.1850 -0.2703
18498W        W33629   8.535   5.034   2.551 -0.0908 -0.3278 -0.3452
18499W        W33630  15.663   0.458   5.458 -0.1516  0.0535  0.1027
18500W        W33631  10.747   0.642   0.626 -0.1046  0.1415  0.1959
18501W        W33632  15.981  13.747  10.669  0.3164  0.0769  0.0126
18502W        W33633  12.847   4.473   3.772 -0.0366 -0.0586  0.0167
18503W        W33634  18.594   9.226   4.169  0.0332  0.0120  0.0036
18504W        W33635   5.843   3.513   6.028  0.3549  0.0811  0.2161
18505W        W33636  17.901  12.691   0.698  0.4284 -0.1692  0.1189
18506W        W33637  14.105  10.414  10.988  0.2593  0.1005 -0.1356
18507W        W33638  18.635   8.635   2.779 -0.1969 -0.3007 -0.1829
18508W        W33639   1.756  17.208  13.648  0.1874 -0.1005 -0.0105
18509W        W33640   5.146   7.779   4.206 -0.1237 -0.1740 -0.3352
18510W        W33641   9.972   9.409  14.995 -0.0299 -0.0749 -0.1136
18511W        W33642   9.050  17.661  12.164 -0.3016 -0.2731  0.1888
18512W        W33643   0.782   5.977   5.081  0.0360 -0.0828  0.0450
18513W        W33644  16.058  14.185  11.413  0.1533 -0.0342  0.1547
18514W        W33645   1.199  14.130   2.197 -0.1155  0.0966 -0.1723
18515W        W33646   1.023   2.392   9.619 -0.1253 -0.0670 -0.1452
18516W        W33647  13.538   0.093  13.443 -0.0396 -0.0300  0.3135
18517W        W33648   6.786  14.441   5.537  0.2800  0.1310  0.0878
18518W        W33649   5.843  12.618   3.824  0.1845 -0.2763  0.0352
18519W        W33650   7.429  17.025  12.016  0.1769  0.0086  0.0741
18520W        W33651  18.170  12.366  12.651 -0.0181 -0.1259  0.0029
18521W        W33652  10.036   5.819  14.288 -0.0195  0.0141 -0.3915
18522W        W33653   0.900   9.566  10.562  0.1762 -0.0986  0.1573
18523W        W33654   2.844  17.538   0.678  0.3320  0.2753  0.1707
18524W        W33655  12.268  11.800   5.417  0.0499  0.1215 -0.1913
18525W        W33656  18.067   0.602   3.405  0.0204  0.1384  0.0075
18526W        W33657  10.431  10.868   0.616 -0.2883  0.1170 -0.2113
18527W        W33658  13.170   4.395   0.335 -0.1366 -0.1881  0.2122
18528W        W33659  12.936  10.838  11.621  0.0187  0.0785 -0.1709
18529W        W33660   3.181  13.246  11.711 -0.1148 -0.2495 -0.2199
18530W        W33661   0.971  13.115  11.015  0.0115  0.2163 -0.4928
18531W        W33662   5.102  18.193   2.435  0.2090 -0.4117  0.3073
18532W        W33663  18.270  18.716   5.352 -0.0418  0.0955  0.0014
18533W        W33664  15.531  15.270   1.159  0.1405 -0.1426  0.1101
18534W        W33665   1.862   0.099   4.374  0.1323  0.1423 -0.0831
18535W        W33666  12.294  15.516  14.841  0.0565  0.3225  0.4546
18536W        W33667  15.818   2.409   1.466 -0.2823  0.3043 -0.2964
18537W        W33668   5.933  12.447  12.334 -0.2601 -0.0641 -0.2023
18538W        W33669   6.091   1.960  13.024  0.4211  0.2247  0.0964
18539W        W33670   0.215  12.843  12.038  0.3275  0.1092  0.0693
18540W        W33671  13.094   7.961  12.609  0.0910  0.1600  0.0999
18541W        W33672   0.544  11.622   4.549  0.0717  0.0053  0.0276
18542W        W33673  12.181   1.921   3.196  0.1908 -0.0056  0.1030
18543W        W33674   8.414   0.534  12.844 -0.1123  0.3684  0.2178
18544W        W33675   6.979   3.646  10.274 -0.0187  0.2589 -0.2815
18545W        W33676   1.216   3.271  11.097  0.0199  0.1311 -0.1211
18546W        W33677  16.039  10.394   5.295  0.3427  0.0849  0.1575
18547W        W33678   8.232   3.806   2.168  0.1967  0.4896 -0.1966
18548W        W33679  12.537   3.300   2.774  0.0481 -0.1378  0.0559
18549W        W33680  17.113   2.221  13.179  0.0740 -0.2684 -0.3958
18550W        W33681  15.874   7.082   6.058  0.0282 -0.1649  0.4300
18551W        W33682   5.887  14.142  11.949 -0.0365 -0.0820  0.0399
18552W        W33683  13.050   1.235   4.837 -0.3038  0.2506 -0.0574
18553W        W33684   9.894   2.608  12.754 -0.0153  0.0068 -0.0657
18554W        W33685   3.911  18.375  11.414  0.0235 -0.0219 -0.1474
18555W        W33686   8.822   3.818  13.417  0.0421 -0.2151 -0.2832
18556W        W33687   2.232   7.743   2.686 -0.3294 -0.1294  0.1739
18557W        W33688  17.139   4.497  12.107  0.0797 -0.0874 -0.5106
18558W        W33689  15.240  11.078   0.147 -0.1527  0.1879  0.2963
18559W        W33690  16.147   3.147   1.522 -0.0451  0.1273 -0.0529
18560W        W33691   1.342   2.874   2.365  0.0352 -0.2299  0.4241
18561W        W33692  14.535   0.048  12.529  0.0794 -0.1550 -0.0216
18562W        W33693   6.630   3.663   2.888  0.1756  0.0318  0.1478
18563W        W33694   0.301   3.221   4.704 -0.2201 -0.0732 -0.0514
18564W        W33695  17.525   8.371  10.901  0.0733 -0.0264 -0.0161
18565W        W33696   8.673  15.120   0.206  0.3209 -0.0767  0.0925
18566W        W33697   1.409  13.840   4.322 -0.3942  0.1757  0.0905
18567W        W33698  16.087  12.240  10.888 -0.6118 -0.1420  0.1866
18568W        W33699  12.666   0.505  11.487 -0.0541 -0.3883 -0.4046
18569W        W33700   7.234  18.526   2.483  0.4100 -0.0123 -0.1401
18570W        W33701   3.940   5.126   2.930 -0.1128 -0.0321 -0.1188
18571W        W33702   6.488   1.790  14.717 -0.2904 -0.1519 -0.1569
18572W        W33703   4.053   5.512   0.056 -0.2295 -0.0298  0.2759
18573W        W33704  13.210   5.987   0.234  0.1021 -0.0302 -0.2333
18574W        W33705   9.492  10.273   2.557  0.1237 -0.2767  0.0251
18575W        W33706  15.896   2.685   3.606  0.0616  0.0178 -0.2234
18576W        W33707   4.330  14.177   0.662  0.3840 -0.0827 -0.1968
18577W        W33708  11.416   4.702   4.700 -0.2099 -0.2020  0.0935
18578W        W33709  16.403  12.466   2.168 -0.0612  0.0086  0.1876
18579W        W33710  13.935   8.593   2.820 -0.4559 -0.0234 -0.0311
18580W        W33711   9.791   0.320  13.303 -0.2649 -0.1016 -0.0065
18581W        W33712  15.539   9.674   4.839 -0.1211 -0.0343  0.3806
18582W        W33713  13.337   2.274   1.462 -0.1043  0.3599 -0.1229
18583W        W33714  15.084  18.478  13.658  0.0085  0.1110  0.1679
18584W        W33715  11.030  11.242  15.638 -0.0395 -0.5069 -0.0599
18585W        W33716   3.863  16.417   1.806 -0.1794 -0.0703  0.0524
18586W        W33717   6.111   1.885   4.330  0.1995 -0.1486  0.0315
18587W        W33718  17.514  11.219   3.291  0.0617  0.2333  0.0107
18588W        W33719   6.404   4.727  12.982 -0.1718 -0.2040  0.2713
18589W        W33720  10.595  18.211  14.134 -0.3594  0.1138  0.1132
18590W        W33721   0.848   5.163   2.627  0.0902  0.1871 -0.0165
18591W        W33722  14.265   8.096  13.430 -0.0939 -0.0016  0.0453
18592W        W33723  16.096   8.524  10.491  0.4377 -0.3615 -0.1610
18593W        W33724   7.097   0.859  12.480  0.2747 -0.2208  0.1314
18594W        W33725   0.210  18.522   5.186  0.1351 -0.1427  0.3555
18595W        W33726  11.613  10.598   2.702 -0.0668 -0.0583  0.1637
18596W        W33727   3.086   8.336   1.133  0.0609  0.1256 -0.0753
18597W        W33728  16.999  16.496   4.973 -0.2506  0.0681  0.0783
18598W        W33729  13.614  16.721  14.089  0.0898  0.0268 -0.2815
18599W        W33730  17.209   9.181   0.559 -0.1896  0.1389  0.0793
18600W        W33731   1.232   0.808   5.154  0.0601  0.3615  0.4340
18601W        W33732   5.900  12.059   5.687  0.2513 -0.3790 -0.2045
18602W        W33733  17.743   4.844   3.340  0.4810 -0.1876 -0.0525
18603W        W33734  10.688   1.479   2.268  0.1020  0.1051  0.2370
18604W        W33735  15.422  10.859   0.627 -0.2599  0.1465  0.2066
18605W        W33736   5.527  11.226  14.713 -0.2947 -0.1291  0.1413
18606W        W33737   1.823  11.536   4.595 -0.3063 -0.4181 -0.0232
18607W        W33738  13.336  12.621   3.021  0.1318  0.0125  0.3473
18608W        W33739  11.101   2.960   4.194  0.0907  0.1463 -0.0319
18609W        W33740   3.130   2.980   0.918  0.0496 -0.2879  0.3065
18610W        W33741   4.863   1.166   0.812  0.3399 -0.1414  0.3016
18611W        W33742   2.564   7.407  11.019  0.2417 -0.1877 -0.0692
18612W        W33743   9.119  17.564  14.463 -0.4967 -0.3444  0.0571
18613W        W33744   8.010   6.014   0.667  0.1882 -0.0548 -0.0971
18614W        W33745   4.984  12.248   5.163 -0.0967  0.2618  0.2962
18615W        W33746   1.219   1.490   5.804 -0.0149  0.1210  0.2380
18616W        W33747  16.471   7.625  14.501  0.0056 -0.2649 -0.3943
18617W        W33748  14.048  15.684   0.125 -0.1878 -0.1043 -0.0420
18618W        W33749  10.827  10.483   2.107 -0.1595  0.3669  0.0506
18619W        W33750   5.478  16.637   1.305  0.2903 -0.1063 -0.5962
18620W        W33751   4.032   4.929   2.075 -0.1701 -0.1187  0.2980
18621W        W33752   0.773  12.583   5.518 -0.0518  0.2655 -0.0594
18622W        W33753   4.314   3.230   1.441  0.2847 -0.1101  0.2660
18623W        W33754   3.907   2.996  13.002 -0.2986 -0.1112  0.1722
18624W        W33755   0.505   4.581  11.958 -0.2049  0.0332  0.0184
18625W        W33756   5.771  13.529  15.802 -0.3614 -0.0847 -0.0747
18626W        W33757   7.116   7.291   2.696 -0.3006  0.0485 -0.5725
18627W        W33758  15.488   9.828  13.169  0.2956  0.0696  0.0914
18628W        W33759  11.980  10.467   5.732 -0.1145 -0.0792 -0.1516
18629W        W33760  12.466   7.691   4.474  0.4682 -0.0548  0.0620
18630W        W33761   9.502  17.481   4.115 -0.2707 -0.1012 -0.0847
18631W        W33762   2.739  15.117  15.267  0.1891  0.2523 -0.1159
18632W        W33763  10.534   9.210   2.467  0.1363 -0.1209  0.3165
18633W        W33764   4.392  11.381   0.546  0.0368  0.1514 -0.1689
18634W        W33765   4.432  11.766  14.730 -0.2093 -0.1039  0.1431
18635W        W33766   0.165  10.480  12.036 -0.0391 -0.0186 -0.0090
18636W        W33767   6.798  17.453   3.758  0.1018 -0.2238  0.1622
18637W        W33768  11.328   8.009  12.553 -0.0146  0.0424 -0.0256
18638W        W33769  11.419  14.505  12.659  0.1079 -0.1953 -0.1531
18639W        W33770   1.478   5.070  10.464 -0.2501 -0.1767 -0.1233
18640W        W33771   5.273   5.179   3.364  0.0245  0.0500  0.0545
18641W        W33772   2.290   4.597  13.760 -0.1516  0.0815  0.2449
18642W        W33773  10.714  14.623  13.931 -0.0424 -0.2854 -0.1832
18643W        W33774  17.147  11.358   1.991  0.2228  0.0287  0.1655
18644W        W33775   1.735  16.575  14.312  0.1293 -0.0200 -0.0045
18645W        W33776   0.432  15.122   3.570 -0.2708  0.0505  0.1649
18646W        W33777  16.413  16.781  13.613  0.0906  0.1198 -0.1804
18647W        W33778  17.270   3.228  11.119 -0.0991  0.0170 -0.0205
18648W        W33779  14.170  11.875  10.345 -0.0261  0.4677  0.2845
18649W        W33780   7.852  16.081  15.270  0.1167  0.4060 -0.0116
18650W        W33781   1.021   6.304  12.037  0.0180 -0.0155 -0.2281
18651W        W33782   7.583  14.292  10.748  0.1920 -0.2637 -0.1780
18652W        W33783   3.409  14.616   6.390  0.3120  0.1852  0.0171
18653W        W33784   7.482  18.217   5.759 -0.0114 -0.2259 -0.1205
18654W        W33785  14.066   4.717  14.360 -0.5558 -0.0380 -0.4257
18655W        W33786   9.805  18.377   5.149  0.0135 -0.1325 -0.0329
18656W        W33787   4.284  16.642   4.369 -0.0408 -0.2353 -0.2808
18657W        W33788   5.358   3.146  14.661 -0.1906  0.1553 -0.1440
18658W        W33789   0.276   0.757   0.241  0.0388  0.0235 -0.1725
18659W        W33790  15.129   1.724  11.390 -0.3319 -0.0685  0.4774
18660W        W33791  11.529   9.717  14.282 -0.0029 -0.1263 -0.3683
18661W        W33792  16.097  16.579  12.321  0.1726  0.0188 -0.0348
18662W        W33793  12.950  13.433  13.804  0.0017  0.0845 -0.1347
18663W        W33794   4.083  13.898  14.071 -0.0529  0.0475 -0.0927
18664W        W33795  12.102   9.872  14.308 -0.1171  0.0754 -0.2107
18665W        W33796  10.495   7.599  12.723  0.1034 -0.2192 -0.0394
18666W        W33797   0.020   0.777  12.688 -0.1504  0.0596  0.1924
18667W        W33798  18.409   6.889  14.587 -0.0565  0.0001 -0.0250
18668W        W33799   8.343  11.991   1.182  0.1869  0.3590  0.1615
18669W        W33800   8.422   5.477  15.417  0.0994  0.0219  0.1464
18670W        W33801   7.634   1.039   3.881  0.3645  0.3471  0.0574
18671W        W33802  12.662   1.711   5.409  0.1169  0.0126  0.0382
18672W        W33803  15.547  18.333   3.508  0.0779  0.1553  0.0185
18673W        W33804  12.658  16.572   4.265 -0.0826 -0.4079 -0.4558
18674W        W33805  10.065   1.264  13.201 -0.1065  0.3005  0.0487
18675W        W33806  14.867   2.083   4.571 -0.5214 -0.1327 -0.0235
18676W        W33807  15.742   9.454   9.794 -0.3236 -0.3496 -0.1390
18677W        W33808   0.226   9.918  13.822  0.1163  0.1870  0.1363
18678W        W33809  12.567  15.200   4.589 -0.1015  0.0403 -0.0125
18679W        W33810  17.692   9.454  11.232 -0.0868  0.3053  0.1024
18680W        W33811  17.833  13.534   4.695 -0.0766 -0.5095  0.0810
18681W        W33812   0.923   0.483   5.429  0.2792  0.4840 -0.2704
18682W        W33813  10.403   2.861   1.832  0.1432  0.2329 -0.5246
18683W        W33814  16.473  15.482   4.672  0.1765 -0.3355 -0.0118
18684W        W33815  12.785  16.973   3.234  0.0928  0.1264  0.3375
18685W        W33816   7.531   3.151   0.965 -0.0912  0.0763 -0.2401
18686W        W33817   6.541  12.193   2.657 -0.1831 -0.2710 -0.1734
18687W        W33818  10.929  10.266   1.538 -0.1689 -0.1886 -0.0279
18688W        W33819  10.024  17.085   1.206 -0.2401 -0.1808  0.2253
18689W        W33820  11.313   0.135   1.810 -0.1719 -0.5230 -0.2215
18690W        W33821   9.383   9.876   1.530  0.2799 -0.0808 -0.3875
18691W        W33822  14.837  11.514  12.323 -0.0602  0.1467 -0.0370
18692W        W33823   6.562  18.503   3.930 -0.5345  0.2465  0.0559
18693W        W33824  11.892   9.076   1.859 -0.2938 -0.2010 -0.1211
18694W        W33825  16.801   8.218   4.333 -0.0904  0.1656  0.4179
18695W        W33826  10.818  12.854  15.795 -0.1294  0.3523 -0.3032
18696W        W33827  13.562  16.976   2.611  0.1173 -0.0517 -0.0485
18697W        W33828  14.583  16.065  13.564  0.1602  0.0414  0.0854
18698W        W33829   3.436  14.724   5.347 -0.2771 -0.2180  0.0977
18699W        W33830  12.864  12.409   5.949  0.2982 -0.0473  0.2268
18700W        W33831  16.772   3.587  15.186 -0.3047 -0.3075  0.0281
18701W        W33832   4.767  11.076  12.018 -0.0394  0.0861  0.0230
18702W        W33833  11.630  12.002  14.556 -0.0824 -0.0433  0.3270
18703W        W33834  14.804   8.077   4.362 -0.0667 -0.0550  0.1482
18704W        W33835   1.694   2.380  12.934  0.1307 -0.1132 -0.0175
18705W        W33836  10.677   6.126   2.343  0.1894 -0.3432  0.2098
18706W        W33837  12.852  17.355  14.887 -0.3446 -0.1488  0.2905
18707W        W33838  15.898  14.191   2.375 -0.0109  0.0252  0.1816
18708W        W33839   5.047   0.462  12.021 -0.1238  0.3202  0.0480
18709W        W33840   9.752   9.946  13.347 -0.3917 -0.0548  0.1020
18710W        W33841  12.656  15.023  12.303  0.1605  0.0884 -0.0308
18711W        W33842   4.917   3.075   2.074 -0.0829  0.1682  0.1495
18712W        W33843  14.139  10.022   3.617 -0.2016 -0.1023 -0.3467
18713W        W33844   8.675   1.648  12.455 -0.0541 -0.0397 -0.1043
18714W        W33845  16.110   6.954   1.472  0.1898 -0.2736  0.1514
18715W        W33846   1.434   8.629   5.077 -0.3728 -0.0475  0.1498
18716W        W33847  11.671   6.493  10.553 -0.3056 -0.2426  0.3728
18717W        W33848  15.979   1.896   2.796 -0.0294 -0.0180 -0.1545
18718W        W33849   5.687   6.019   3.960  0.1869 -0.0721  0.0321
18719W        W33850   5.386   0.680  13.495  0.0549  0.0488 -0.0487
18720W        W33851   8.638  15.193   5.387 -0.1211  0.0763  0.0101
18721W        W33852  13.878   1.205   0.172  0.3438 -0.1737 -0.4579
18722W        W33853  11.426  17.901   4.543  0.1041  0.0475  0.0225
18723W        W33854  18.392   9.146  12.348  0.1141  0.0383  0.2339
18724W        W33855  18.557  14.437   0.962 -0.1927  0.0597 -0.0887
18725W        W33856   4.587  17.170  15.742  0.0700 -0.0100  0.2746
18726W        W33857  11.742   7.832  13.391  0.1369  0.1587  0.2089
18727W        W33858   9.069  13.838  13.905 -0.2094  0.0746  0.2658
18728W        W33859  14.555  14.030   6.199  0.1257 -0.1529 -0.0774
18729W        W33860  11.536   4.177  11.172  0.0785 -0.0550 -0.0345
18730W        W33861   3.154   0.264  12.713 -0.0720 -0.0532  0.1598
18731W        W33862   4.788   8.550   0.578 -0.0779 -0.0412 -0.0393
18732W        W33863   6.134  17.507   2.508 -0.0511  0.1739  0.0772
18733W        W33864   9.230   4.740   4.680  0.1652  0.0111 -0.1393
18734W        W33865  10.412   0.861  12.218 -0.0402  0.1562  0.0552
18735W        W33866   1.293  18.604   0.520  0.1012 -0.0195  0.3306
18736W        W33867  11.284  12.177   3.498 -0.2093  0.0447  0.0935
18737W        W33868   5.913  13.231  12.967  0.1166  0.2940 -0.0286
18738W        W33869   1.499  16.295  13.903  0.2021 -0.0635 -0.1356
18739W        W33870  13.079   2.589  11.828  0.2108 -0.3526 -0.2823
18740W        W33871  18.050  10.456  12.458 -0.2304  0.0305 -0.0542
18741W        W33872   6.274   0.668   5.582  0.0669 -0.1934 -0.0752
18742W        W33873  14.721  18.692  14.716  0.1793 -0.0676 -0.1461
18743W        W33874  15.126   4.859  13.308  0.0085 -0.0406  0.0982
18744W        W33875  14.854  17.818   4.449  0.1697 -0.1977  0.0954
18745W        W33876  14.111   5.543   1.933 -0.1260  0.1546 -0.2942
18746W        W33877   2.247   5.987  11.666  0.3771  0.0524  0.3755
18747W        W33878  12.264  13.466  13.163 -0.2315  0.2080  0.1792
18748W        W33879   4.463   6.959   1.489 -0.0243 -0.0790  0.2134
18749W        W33880  13.216   7.903  14.977 -0.2241  0.3340  0.2000
18750W        W33881  13.673   1.757  14.107 -0.1067  0.3759 -0.1001
18751W        W33882  11.648   2.140   2.417  0.0884  0.1223  0.3533
18752W        W33883  18.147  11.921   0.360 -0.1682  0.2914  0.2036
18753W        W33884  14.532  12.701   3.686 -0.2077  0.2068 -0.1379
18754W        W33885  18.612   0.837  14.869  0.2269 -0.1857  0.5767
18755W        W33886  10.282   0.518  15.037  0.0094  0.2478 -0.0301
18756W        W33887  12.169  15.906   1.712 -0.1455 -0.0428 -0.0990
18757W        W33888  13.514   1.391  15.499 -0.0408 -0.2946 -0.4243
18758W        W33889   6.728   0.396   0.624 -0.0700 -0.2794  0.1811
18759W        W33890   2.480   9.362  10.641 -0.3391 -0.0568  0.2415
18760W        W33891   9.933  18.270   0.196 -0.2054 -0.2007  0.0409
18761W        W33892  16.881   2.329  12.733 -0.1805  0.1201  0.0278
18762W        W33893   6.243   0.810   3.638 -0.0961 -0.1926 -0.1335
18763W        W33894   9.933  18.331   2.283 -0.2220  0.0790 -0.0899
18764W        W33895   5.817   4.964  12.005  0.3561 -0.2745  0.0165
18765W        W33896   3.956  10.505   1.464  0.1044  0.2873 -0.0476
18766W        W33897  12.122  15.948   1.111 -0.0018  0.1394  0.3597
18767W        W33898  14.624  17.346   4.428  0.0103 -0.1457  0.3070
18768W        W33899   8.253   7.393  10.583  0.0229 -0.1084  0.1485
18769W        W33900  11.152  13.844   4.185 -0.0382  0.2811  0.1939
18770W        W33901   2.685   9.117  12.568  0.2283  0.1940  0.4185
18771W        W33902   8.558   8.950  15.169  0.1378  0.0338 -0.0908
18772W        W33903  15.034  14.449  13.284  0.4311 -0.1189 -0.0211
18773W        W33904  14.045  14.528   1.617  0.0681  0.0480 -0.0424
18774W        W33905   1.000   6.384   4.517 -0.2758  0.0103 -0.2654
18775W        W33906   2.749   9.224  13.095  0.1243  0.1350  0.1658
18776W        W33907   8.566  13.948  15.045 -0.1745  0.0399  0.2320
18777W        W33908  15.488   5.211  13.378 -0.0999  0.2225 -0.0676
18778W        W33909  11.339   8.986   1.942  0.1909  0.2298  0.0762
18779W        W33910   5.262   1.780  12.541  0.0335  0.2160 -0.0345
18780W        W33911   4.178  17.247  12.934 -0.0020  0.0021  0.1816
18781W        W33912  17.626   0.666   0.222  0.2528 -0.0730 -0.0290
18782W        W33913  16.949   5.077   4.847  0.0699  0.0451 -0.2120
18783W        W33914   7.029   1.455   0.630  0.3644  0.3988 -0.3451
18784W        W33915   0.046  11.216   9.906 -0.0505  0.2166 -0.0918
18785W        W33916  10.734  18.581  11.965 -0.0297  0.0525  0.1573
18786W        W33917   2.454  12.187  14.105 -0.4582 -0.0816 -0.0830
18787W        W33918  13.297   1.202   1.383 -0.0431  0.0649 -0.0556
18788W        W33919   1.220   4.221  13.008 -0.0328 -0.1613  0.0120
18789W        W33920   7.429   6.166   3.620  0.1669  0.0598 -0.1980
18790W        W33921  17.523  16.081  13.496  0.2160 -0.1474 -0.1170
18791W        W33922   4.792   7.066   2.921 -0.2151  0.1388 -0.0856
18792W        W33923   7.619  14.244   3.935  0.1791 -0.2928  0.0022
18793W        W33924  18.157   5.875   4.779  0.1937 -0.0614  0.1928
18794W        W33925   7.652  11.101   3.238 -0.2374 -0.3284 -0.0555
18795W        W33926   7.093  17.452   4.183 -0.2805  0.2536  0.0689
18796W        W33927   9.722  12.413   3.972  0.2163  0.1949 -0.2609
18797W        W33928  10.387   0.647   3.340  0.3093 -0.2606  0.0410
18798W        W33929  11.471   8.295   0.403 -0.1407  0.0972  0.1957
18799W        W33930   8.791   7.558  15.753  0.1840 -0.0451 -0.1783
18800W        W33931  14.252   0.107  14.587 -0.1427 -0.0096 -0.0947
18801W        W33932   8.878  14.620   3.254 -0.0506  0.2135 -0.0114
18802W        W33933   5.620   3.868   2.531  0.0622  0.2779  0.1673
18803W        W33934   0.115   0.569  12.251 -0.2269 -0.1482 -0.0277
18804W        W33935  13.663   4.490   2.970  0.0336 -0.0711  0.3065
18805W        W33936   9.561  15.156   3.102 -0.0786  0.1317 -0.0025
18806W        W33937  10.372   3.105  11.949 -0.0100  0.0776 -0.0146
18807W        W33938  16.982   1.793   1.035 -0.0017  0.1446  0.1769
18808W        W33939   4.029   7.307   5.415  0.2559 -0.1201 -0.1203
18809W        W33940   5.989   7.254   1.350  0.0506  0.0517 -0.2031
18810W        W33941  15.555   6.317  14.718  0.0185 -0.2321  0.2493
18811W        W33942   0.226   8.900  15.089  0.2680 -0.0324 -0.3846
18812W        W33943   4.144  10.510   5.121 -0.0810  0.0999  0.2265
18813W        W33944   9.513  17.407   0.393 -0.3452  0.1928  0.1561
18814W        W33945   2.139  13.093   1.295  0.2410 -0.0623  0.0421
18815W        W33946  10.777   3.107   2.169 -0.0435 -0.1237 -0.1119
18816W        W33947   7.675   7.156  14.988  0.0904  0.1373 -0.1308
18817W        W33948   2.907  10.564  11.950 -0.0394 -0.0037 -0.5169
18818W        W33949   3.006  13.980  14.993 -0.1040 -0.2787  0.0371
18819W        W33950   0.819   9.383   4.479  0.1864 -0.1189 -0.1094
18820W        W33951   4.912   5.766   1.302  0.1504 -0.0684 -0.2833
18821W        W33952  10.887  13.121  15.011  0.2697 -0.4879 -0.0647
18822W        W33953   5.278  14.775  15.481  0.0234  0.1624 -0.0244
18823W        W33954   9.746  11.288   3.832  0.5099 -0.3854  0.1131
18824W        W33955  14.040   9.867   5.833  0.0491 -0.0240 -0.1082
18825W        W33956  13.734  12.147  10.599 -0.1697  0.2058  0.1307
18826W        W33957   2.860  16.647  12.031 -0.1767 -0.1436 -0.2749
18827W        W33958   7.554  10.996   4.526 -0.0552 -0.1297  0.0084
18828W        W33959  10.506   0.743  12.961  0.0938 -0.4261 -0.0167
18829W        W33960   2.652  10.116   3.117 -0.2854 -0.0725  0.0097
18830W        W33961   6.515  18.515   1.513 -0.2900 -0.0736 -0.2272
18831W        W33962   0.977  18.589  13.473  0.1053  0.2417  0.1161
18832W        W33963   9.591  18.661   4.745 -0.1514 -0.0315  0.0353
18833W        W33964   8.644  12.304  15.015  0.0746  0.2670 -0.1818
18834W        W33965   7.484  13.795   3.007 -0.0364  0.0577  0.0275
18835W        W33966   3.642  14.172  13.644  0.0755 -0.0766  0.1456
18836W        W33967   5.084  14.426  10.183  0.1664 -0.3186  0.0782
18837W        W33968   9.573   3.193  14.644  0.3519  0.3451 -0.5770
18838W        W33969   7.469  14.803  13.105  0.3571  0.1531 -0.1051
18839W        W33970   9.695  12.104   1.420  0.0341  0.0593 -0.1228
18840W        W33971   7.418  15.263   0.588 -0.3303  0.0012 -0.2867
18841W        W33972  15.695   8.208  11.344  0.2689 -0.1206  0.1077
18842W        W33973   0.440  12.939   5.691 -0.1563 -0.3054 -0.1729
18843W        W33974   9.030   5.575   1.178 -0.0172 -0.1195 -0.2174
18844W        W33975   7.450  11.592  14.978 -0.0189  0.3276 -0.0423
18845W        W33976   9.144   4.868  13.964 -0.3168 -0.0019  0.0989
18846W        W33977  16.437  12.650  13.285 -0.1251  0.2856  0.2603
18847W        W33978  17.242   5.864   3.141 -0.0287 -0.0951 -0.0591
18848W        W33979  11.426   7.639   1.995  0.0679 -0.0150  0.0195
18849W        W33980  18.399   8.661  13.300 -0.2204 -0.0387 -0.2726
18850W        W33981   7.545   0.744   0.194  0.0961  0.1144  0.2393
18851W        W33982  12.687  14.717   9.600  0.1302  0.0404  0.2167
18852W        W33983   9.775   7.645   1.735 -0.1706 -0.0615 -0.1953
18853W        W33984   4.258  16.416   0.539 -0.0359  0.3667 -0.0324
18854W        W33985   9.648   6.640  10.116  0.1652  0.2415 -0.1276
18855W        W33986   6.906  13.074  13.144 -0.1402 -0.1164  0.0902
18856W        W33987  18.304  12.419   0.709 -0.0912 -0.1965 -0.0835
18857W        W33988   9.827  13.416   3.753  0.1215 -0.0179 -0.0855
18858W        W33989   9.312   0.959   1.243 -0.0159 -0.0841 -0.0764
18859W        W33990  17.952  11.851   5.294 -0.0820 -0.1046  0.1180
18860W        W33991  13.988   3.021   4.261  0.0787 -0.2040 -0.1583
18861W        W33992   3.721  15.796  12.449 -0.1218  0.0783 -0.2926
18862W        W33993  11.470  13.907  10.795  0.2705 -0.2287  0.0475
18863W        W33994  17.871   8.662  14.489 -0.0401  0.2202  0.0169
18864W        W33995  17.481   7.097  15.084  0.0486  0.0761  0.0375
18865W        W33996   7.728  18.238  14.664 -0.1427  0.4068  0.5160
18866W        W33997   6.570   9.705   0.529  0.0448 -0.0915 -0.1663
18867W        W33998   8.436   1.085  14.487  0.2263  0.5196 -0.0299
18868W        W33999  13.154  10.150   4.192  0.0858 -0.2243  0.4809
18869W        W34000   4.366   4.455   0.444  0.0492 -0.2922  0.1671
18870W        W34001   0.377  13.030   0.516  0.0362  0.1125  0.2790
18871W        W34002   7.477  15.440   1.102  0.0118 -0.0356 -0.1555
18872W        W34003  15.322   4.546  14.707  0.2433  0.0475  0.2635
18873W        W34004  15.763   5.549   3.895  0.1350  0.2139  0.4901
18874W        W34005  11.555   0.609   1.712 -0.3304  0.2522 -0.1689
18875W        W34006  13.127  16.166  11.317 -0.0159 -0.0289 -0.2620
18876W        W34007  18.708   1.719   1.611 -0.3408 -0.2678  0.4038
18877W        W34008   8.955  15.514   5.712  0.0455 -0.4074  0.1782
18878W        W34009  11.882   1.505   1.358 -0.1571 -0.0164 -0.2153
18879W        W34010  17.194  16.597   2.016 -0.1309  0.0206  0.2809
18880W        W34011   6.123  17.066   4.111 -0.0373 -0.0492 -0.2148
18881W        W34012   6.576  13.138   2.420  0.0120 -0.0711 -0.0589
18882W        W34013   3.979   1.251   5.548  0.1036  0.0485 -0.0859
18883W        W34014  11.400  17.610   4.115  0.3839 -0.0584  0.0756
18884W        W34015  18.289  12.833   4.863 -0.1758  0.0694 -0.0535
18885W        W34016   5.571  17.277  10.818 -0.0660 -0.1207 -0.3022
18886W        W34017  15.416   5.845   2.301  0.1072  0.0428  0.0621
18887W        W34018   2.246  14.344  14.381 -0.1093  0.0266  0.1221
18888W        W34019  16.612   4.577  15.413 -0.0558  0.3735 -0.2995
18889W        W34020   1.650   0.079  14.363  0.2337 -0.1291 -0.3423
18890W        W34021  15.484   6.840  11.463 -0.0193 -0.0193  0.0063
18891W        W34022   7.629  18.073   4.304  0.3555 -0.2380 -0.4061
18892W        W34023  11.761   6.304  12.367 -0.0556 -0.3062 -0.0360
18893W        W34024   2.255   4.798   3.881  0.0184  0.1969  0.0810
18894W        W34025   1.472   1.248   5.418  0.1044  0.1539  0.2306
18895W        W34026  11.519  18.449  14.059  0.5017  0.3537 -0.1454
18896W        W34027   5.717   2.028  15.293  0.3240 -0.1687 -0.2120
18897W        W34028   2.937  15.481  14.664 -0.0637 -0.4617 -0.3599
18898W        W34029  13.511   7.692  15.403  0.1846 -0.1246  0.1638
18899W        W34030  15.887  16.419  12.785 -0.0189  0.1327 -0.0472
18900W        W34031   7.272   3.374   4.710  0.0306 -0.0812  0.4817
18901W        W34032  13.897  14.430   0.600 -0.0240 -0.1249  0.0781
18902W        W34033  10.940   5.564  15.658 -0.1850 -0.0867  0.0707
18903W        W34034   1.974  12.281  12.779 -0.2118  0.2548  0.1822
18904W        W34035  13.642  13.859  11.564 -0.0540  0.2054 -0.1496
18905W        W34036   9.721   6.459   2.970 -0.3078 -0.4296 -0.0229
18906W        W34037  18.548  16.248  13.430 -0.2452 -0.2848 -0.1092
18907W        W34038   8.777  17.949   1.200 -0.1927 -0.4483 -0.2349
18908W        W34039   0.492  17.552   4.577  0.3697 -0.0755  0.2636
18909W        W34040   9.263  11.789   4.755  0.0585  0.1699  0.4625
18910W        W34041   8.179  12.014  15.052  0.1535  0.1443  0.1735
18911W        W34042  15.178   7.221  11.475  0.2225  0.0064  0.0731
18912W        W34043   7.168  15.686  15.081 -0.1397 -0.2222 -0.0884
18913W        W34044  13.774  16.067   0.397 -0.4136 -0.3331 -0.0688
18914W        W34045  11.355  15.678   3.747 -0.4334 -0.0842 -0.2134
18915W        W34046   1.259  15.082   0.087  0.1222  0.0427 -0.1577
18916W        W34047   5.066  14.817  10.950  0.1851  0.1611  0.2837
18917W        W34048  14.962   0.165  15.134 -0.1910 -0.2802 -0.3744
18918W        W34049  17.771   6.256  15.195  0.2605  0.0074  0.0143
18919W        W34050  16.616  15.940   0.801 -0.3602  0.1862 -0.1650
18920W        W34051   0.243  11.763   4.208 -0.0068  0.0521  0.0121
18921W        W34052  18.065   7.065   3.177 -0.2558 -0.1296  0.1841
18922W        W34053   0.440   0.162   2.326 -0.2340  0.1754 -0.0543
18923W        W34054   9.884   8.243   3.205 -0.0435 -0.6044 -0.0105
18924W        W34055   6.523   9.158  11.253 -0.1090  0.2954  0.0633
18925W        W34056  10.172   8.433   0.346 -0.5185 -0.3286 -0.1108
18926W        W34057   1.974   5.153  14.750  0.0021  0.0187 -0.1614
18927W        W34058   7.190  10.539   3.294  0.0528 -0.3727  0.2125
18928W        W34059  16.661   6.718  14.358 -0.4019 -0.1079 -0.0862
18929W        W34060  13.550   7.582  14.679 -0.0775 -0.1601 -0.0824
18930W        W34061  11.183   8.241   4.221 -0.4678  0.4982  0.2120
18931W        W34062  14.260   2.180   5.242 -0.1785  0.0976  0.0594
18932W        W34063  16.101   5.937  13.024 -0.1623  0.5951 -0.1155
18933W        W34064   2.359  16.842   1.180 -0.0930 -0.0051  0.0853
18934W        W34065  17.367  13.548  15.605 -0.3011 -0.2959 -0.2042
18935W        W34066  18.252  13.074  11.884  0.1885  0.2581 -0.3789
18936W        W34067   4.097  11.636   3.917 -0.1379 -0.1528 -0.2092
18937W        W34068  14.076   2.610   5.414 -0.2990  0.2276  0.2117
18938W        W34069   7.146  11.739   2.627  0.0799 -0.2901  0.0698
18939W        W34070  15.602   2.526  14.511 -0.0828  0.0760  0.1291
18940W        W34071  13.878  18.030   4.525  0.1518  0.1603  0.2774
18941W        W34072  14.689   2.294   5.025  0.2505  0.2008  0.0855
18942W        W34073   0.866  18.353   4.180 -0.0634  0.2226 -0.0268
18943W        W34074  12.976  15.882   3.033  0.1245  0.1259  0.2936
18944W        W34075   6.547   2.106  10.964 -0.0260 -0.1393  0.0619
18945W        W34076  10.665  12.203   2.065  0.1837  0.0486  0.0052
18946W        W34077   1.781  16.201   0.446  0.0184  0.1189 -0.0953
18947W        W34078   6.763   4.521  11.934  0.3354  0.2473  0.1662
18948W        W34079  15.115   2.107   5.317 -0.2193  0.1653 -0.0303
18949W        W34080   9.374  13.933  11.664  0.2784  0.0292  0.0220
18950W        W34081   9.244  11.005   5.276  0.1404  0.1447 -0.0786
18951W        W34082   8.835   1.312   0.914  0.2325 -0.0691  0.2295
18952W        W34083  17.023   0.170   3.798 -0.1294 -0.1410  0.1043
18953W        W34084  10.311  10.354  10.274  0.1557 -0.2832  0.0792
18954W        W34085  12.490   6.223   1.687 -0.4139  0.0648  0.1656
18955W        W34086   8.025   1.299  12.326 -0.0640 -0.0730  0.0719
18956W        W34087  14.806   7.098   2.347  0.0465  0.2953  0.0196
18957W        W34088   8.293   1.157   1.749  0.2367 -0.0982  0.1231
18958W        W34089   7.872   5.890   0.217 -0.2786  0.1490 -0.2669
18959W        W34090   4.801   3.281   3.827 -0.1606 -0.0232  0.0496
18960W        W34091  17.707   7.540   5.830 -0.0865  0.0083  0.1494
18961W        W34092   5.196   5.530   1.761  0.1577 -0.0434 -0.1551
18962W        W34093   9.551  11.890  13.329  0.1248 -0.1371 -0.2442
18963W        W34094  16.818  17.871   4.274  0.2474  0.2623  0.2453
18964W        W34095   9.108   9.216  11.028  0.1332 -0.1072  0.3681
18965W        W34096  12.719  11.927   4.192  0.1150  0.0188 -0.1076
18966W        W34097  10.166   4.152   3.047  0.0091 -0.0065  0.1627
18967W        W34098  10.342  18.673  12.233 -0.0474 -0.0478  0.0271
18968W        W34099   3.781   1.875   1.715 -0.1245  0.3116 -0.1592
18969W        W34100   2.970   9.908   4.641  0.0830 -0.0733  0.0926
18970W        W34101   1.863  10.751  15.486  0.3232  0.1419  0.3557
18971W        W34102  12.346   9.410  14.535  0.3109  0.0001  0.2201
18972W        W34103   1.885   3.520  12.954 -0.0281 -0.0198  0.0376
18973W        W34104  13.909   3.133   5.553  0.0636 -0.6139  0.0227
18974W        W34105   3.808  15.486  13.656  0.0659 -0.4505 -0.1023
18975W        W34106   1.690   7.451   0.815 -0.1406  0.0709 -0.0196
18976W        W34107   1.476   9.110   1.662 -0.0692  0.1068 -0.1532
18977W        W34108   6.101   5.233  10.679 -0.1165 -0.2316  0.1796
18978W        W34109  13.793  15.379   4.601 -0.0015 -0.1996 -0.1410
18979W        W34110   5.869  15.383  15.639  0.0800 -0.3163 -0.0565
18980W        W34111   1.522  18.380   2.439  0.2151  0.5396 -0.0671
18981W        W34112   1.448  12.686  12.937 -0.0695  0.0133 -0.4252
18982W        W34113   4.359   5.404  14.746 -0.2921  0.4521 -0.0828
18983W        W34114   0.356  17.306   0.242  0.0351 -0.2087 -0.1265
18984W        W34115  10.995   4.168   3.315 -0.1024 -0.1548 -0.2605
18985W        W34116   7.672   2.417   5.459 -0.0454 -0.0676  0.0074
18986W        W34117   5.623   9.497   2.798  0.2473  0.1207 -0.1574
18987W        W34118  17.942  13.188   0.398  0.0154  0.0657 -0.4509
18988W        W34119  13.212   9.246  10.406 -0.2338  0.0422  0.2495
18989W        W34120  11.245   5.941  11.671 -0.1347 -0.0922  0.0386
18990W        W34121  15.972   0.660   3.313 -0.2276 -0.0724  0.1515
18991W        W34122  16.402  10.969   4.812 -0.0544  0.0693 -0.2411
18992W        W34123  17.545   6.181   2.534 -0.1017  0.1918  0.0628
18993W        W34124   6.563   0.742   3.113 -0.0206 -0.0055  0.2940
18994W        W34125  13.748  18.348   1.505  0.1052 -0.0490  0.4190
18995W        W34126  14.783  17.965   3.068 -0.3231 -0.2514 -0.0848
18996W        W34127   5.834   8.679  12.604  0.0715  0.0267 -0.2672
18997W        W34128   4.093  13.470  15.715  0.1594 -0.2277 -0.1129
18998W        W34129  17.630  17.546   0.098 -0.0148  0.1000 -0.5455
18999W        W34130  12.886   1.900  11.023 -0.1230  0.0467 -0.0714
19000W        W34131   3.427   5.501  12.145  0.3018 -0.3984 -0.2292
19001W        W34132   6.074   8.235  12.928 -0.1101 -0.1195  0.1946
19002W        W34133  12.313  12.820  11.450 -0.0497  0.3082 -0.1527
19003W        W34134  15.068  16.886   0.116  0.1318  0.3183  0.1597
19004W        W34135  17.692  16.322   9.908  0.1616 -0.1098  0.1238
19005W        W34136  18.583   8.835   5.393  0.1031 -0.0289  0.1509
19006W        W34137  13.875   2.239   0.794  0.1400 -0.1631  0.2729
19007W        W34138  17.259   1.882   1.996  0.4854 -0.0391  0.0273
19008W        W34139   9.077   7.167   1.599  0.0412 -0.2971 -0.0944
19009W        W34140  10.802  18.638   0.408 -0.1536  0.0272 -0.2863
19010W        W34141  13.408   5.198   4.529  0.4871  0.1272  0.0876
19011W        W34142   1.987   3.410   0.214 -0.0917  0.1382  0.0157
19012W        W34143   3.954  11.625  14.920 -0.1017  0.1782  0.1633
19013W        W34144   7.307   0.938   2.172  0.1267  0.0827  0.1194
19014W        W34145   1.754  16.768  15.650 -0.0134  0.1559  0.0524
19015W        W34146   3.098   4.998   5.496 -0.0903  0.0801 -0.1387
19016W        W34147  15.493  15.770   3.774 -0.0280 -0.1532 -0.0690
19017W        W34148  17.692   6.395  11.856  0.0743  0.5299  0.0731
19018W        W34149   0.403   8.079  14.635  0.2721 -0.1059  0.0894
19019W        W34150   3.321   8.192  12.093  0.2719 -0.0537  0.0636
19020W        W34151   6.388  10.730  13.507 -0.2523 -0.2337 -0.1782
19021W        W34152  12.955   5.628   4.473 -0.1146 -0.2428 -0.0727
19022W        W34153  13.165  17.786  13.744  0.1703  0.1974 -0.1622
19023W        W34154   1.652  13.650   5.622 -0.1550  0.0855 -0.0181
19024W        W34155  11.052  17.254  12.356 -0.0991 -0.0117 -0.1370
19025W        W34156  14.207   8.944  13.711  0.0177 -0.1265  0.1371
19026W        W34157  18.361   7.572   3.735 -0.2875  0.1999  0.2841
19027W        W34158   8.275   1.389  14.872  0.0087 -0.4950  0.0302
19028W        W34159  15.175  16.797   1.691 -0.2116  0.3083  0.1444
19029W        W34160   8.910  17.175   5.284  0.1325 -0.3681  0.1489
19030W        W34161   1.521   0.411   3.975  0.3408  0.2597 -0.3623
19031W        W34162   8.803   7.071   5.029 -0.0862  0.1278 -0.0260
19032W        W34163   3.591   2.563   2.023 -0.0379  0.2818 -0.1603
19033W        W34164   6.282   2.591   4.827  0.0198 -0.1717  0.2426
19034W        W34165   4.187  12.050  12.533  0.1543 -0.1909 -0.0383
19035W        W34166   5.140   1.869  14.520 -0.2773 -0.4645  0.0157
19036W        W34167   5.675  12.949  14.372  0.1006 -0.1245  0.0029
19037W        W34168  12.796   9.174   5.276 -0.1391  0.1822  0.0508
19038W        W34169  11.583  16.494   2.427 -0.1810 -0.1773  0.1095
19039W        W34170   6.099   6.601   0.684  0.2780 -0.0675  0.0705
19040W        W34171  16.016  18.170   0.495 -0.2040  0.2621  0.2078
19041W        W34172  17.094   5.400   0.191 -0.0728 -0.4238  0.0620
19042W        W34173   7.958   5.800   2.858 -0.0974 -0.0038  0.1213
19043W        W34174   5.143  14.013   2.128 -0.0846  0.1236  0.2120
19044W        W34175   0.333   6.880  12.673  0.0681  0.0459  0.1437
19045W        W34176   2.483   6.549  13.030 -0.1278  0.1293  0.0448
19046W        W34177   7.053   8.007   4.730 -0.1504  0.1468 -0.2943
19047W        W34178   3.757  16.543  11.055  0.1246 -0.1393 -0.0710
19048W        W34179  15.719   8.151  13.057 -0.1349 -0.1124  0.1723
19049W        W34180  13.439  18.409  15.728  0.0717  0.0969 -0.0721
19050W        W34181  18.675   9.476   4.613  0.3086  0.3981  0.1009
19051W        W34182   6.661   2.480  14.283 -0.0167 -0.2523  0.1854
19052W        W34183  18.397  17.133   5.308 -0.0980 -0.1753  0.0293
19053W        W34184   1.955   9.478   5.127  0.3000  0.2894  0.1203
19054W        W34185   6.722  11.672   3.552  0.0334  0.0574  0.1863
19055W        W34186   4.812   2.869   3.124 -0.0974 -0.2770  0.1586
19056W        W34187   4.208  13.322  15.153 -0.0234 -0.1627  0.0991
19057W        W34188   9.002  17.227  14.945 -0.0570 -0.0328  0.2778
19058W        W34189   7.384  11.730   0.969 -0.0800  0.3268 -0.1739
19059W        W34190  17.951  14.451  13.739 -0.0600 -0.2263  0.1856
19060W        W34191   6.082  14.282  15.510 -0.2068  0.1491  0.0314
19061W        W34192  11.955  14.337   2.602 -0.1078  0.1208 -0.2123
19062W        W34193  18.717   3.121   5.134 -0.1168 -0.0957  0.2021
19063W        W34194   4.116  13.216  11.547  0.1017 -0.2714 -0.0725
19064W        W34195  14.322   2.728  11.945 -0.0200 -0.2970  0.2191
19065W        W34196   0.949   8.397  15.128  0.3220  0.3224  0.0930
19066W        W34197  11.776   9.353   3.372 -0.1756  0.2379 -0.1622
19067W        W34198  10.102   0.702   5.727  0.1819 -0.0591 -0.1255
19068W        W34199   5.487   4.212   1.655  0.2954 -0.1564  0.0161
19069W        W34200   2.489   5.206  14.318 -0.0841 -0.1623  0.1080
19070W        W34201  11.806  12.509   0.269 -0.0342 -0.0226 -0.1380
19071W        W34202  14.084   8.612   0.029  0.2915 -0.1143  0.1492
19072W        W34203  15.442  12.945  14.624  0.3984 -0.0082  0.0682
19073W        W34204   8.908   7.932  11.912  0.1820 -0.3746 -0.2600
19074W        W34205   7.892  15.993   2.382  0.2528  0.0606 -0.2778
19075W        W34206  17.227   6.615  11.115  0.1766  0.3271 -0.3347
19076W        W34207   7.805   3.293   5.501 -0.0383  0.0708  0.2013
19077W        W34208  11.455  16.005   9.449  0.0887 -0.0964 -0.0162
19078W        W34209  18.380   1.600  13.661  0.0587 -0.1599  0.0043
19079W        W34210   1.403   3.966  12.126 -0.0607 -0.1684 -0.1115
19080W        W34211   7.004   3.234   0.966  0.0132  0.0887  0.0227
19081W        W34212   9.110  11.613  13.326 -0.1830 -0.0451  0.0509
19082W        W34213  14.224   7.512  15.508 -0.2847  0.4165 -0.1730
19083W        W34214   3.315   8.790  13.559 -0.1564  0.1273  0.2737
19084W        W34215   0.008  13.902   2.795  0.3742  0.1698 -0.0989
19085W        W34216  11.966   8.467  10.201 -0.1792 -0.1089 -0.2122
19086W        W34217  10.050   1.882   0.412 -0.0072  0.0350  0.4720
19087W        W34218  17.482   7.158   1.561 -0.2811  0.2741 -0.0930
19088W        W34219  16.284   9.240   3.909 -0.0049  0.0806 -0.1343
19089W        W34220  18.026  14.916   2.808 -0.1274 -0.0110  0.1081
19090W        W34221   9.664  10.760   5.482  0.0633  0.0159  0.3555
19091W        W34222   7.650  10.944   1.539  0.0199  0.1219 -0.1076
19092W        W34223  13.552   1.157  11.063  0.0672  0.3224 -0.2027
19093W        W34224  18.020   9.364   0.481  0.0767 -0.2788 -0.1152
19094W        W34225   4.307   4.648  13.628 -0.3363  0.0207 -0.2189
19095W        W34226  17.313  10.329  11.120  0.0037 -0.2466  0.0586
19096W        W34227   6.785   3.501   4.738  0.2719  0.0111  0.0020
19097W        W34228  17.457  12.708   3.605  0.3022  0.2355 -0.0223
19098W        W34229  12.712   6.472  13.441 -0.4718 -0.4378 -0.0506
19099W        W34230  15.990   3.416   3.491  0.0521 -0.0858  0.0059
19100W        W34231   0.960   5.565  14.203  0.1914  0.2190 -0.0118
19101W        W34232   6.282  12.610   2.463 -0.0381 -0.4010 -0.0602
19102W        W34233  13.638   1.658   2.222  0.1781 -0.0060  0.5258
19103W        W34234   9.958   0.447   3.175  0.0233 -0.2613  0.2232
19104W        W34235   2.383  14.715  15.346 -0.2212 -0.1738  0.0823
19105W        W34236  12.105   5.696  10.348 -0.0341  0.1827 -0.1465
19106W        W34237  10.464   5.928  11.757 -0.0831  0.0543  0.1505
19107W        W34238   6.824  12.173   3.977 -0.1007  0.1113 -0.1145
19108W        W34239   7.598  13.394   9.548  0.1463 -0.1605  0.0318
19109W        W34240  11.319   9.587  11.476 -0.0937 -0.5507 -0.2394
19110W        W34241   6.073  15.161   2.164 -0.0723 -0.2676 -0.0141
19111W        W34242  14.868  17.300   1.818  0.3670 -0.0585  0.0181
19112W        W34243   8.081  15.177  13.717 -0.0010 -0.0638  0.0696
19113W        W34244  13.542   1.348   3.707 -0.1127 -0.2405  0.1621
19114W        W34245   0.151   2.373   2.319  0.1025 -0.2364  0.0166
19115W        W34246  14.614   1.770   0.550 -0.0496 -0.0549  0.3485
19116W        W34247  14.820  12.795   0.739 -0.4205 -0.4764 -0.3711
19117W        W34248  14.706   3.814   5.773  0.3956  0.0659  0.1387
19118W        W34249   5.730  15.482  10.148  0.1455  0.2772  0.2315
19119W        W34250  14.936  14.681   1.590  0.0045 -0.1444  0.1127
19120W        W34251  17.861  13.641   3.373 -0.2283 -0.2137 -0.6399
19121W        W34252   3.595   3.761   1.532 -0.0737 -0.1162  0.3934
19122W        W34253   6.959   0.527  11.690 -0.2888  0.1758  0.2371
19123W        W34254   6.688  13.844  10.527  0.2548 -0.2502 -0.0551
19124W        W34255  15.866  11.495   0.677  0.3402  0.1565 -0.0666
19125W        W34256   0.244  12.319  15.771  0.1808  0.2767 -0.0620
19126W        W34257   5.615   9.557  11.423 -0.1394  0.0830  0.2170
19127W        W34258   0.302  11.508   4.974  0.1010  0.3196  0.0934
19128W        W34259   6.200  13.733   3.430 -0.0722 -0.2408  0.2854
19129W        W34260  14.136   4.539   2.269 -0.1712 -0.1272 -0.2307
19130W        W34261   1.018  15.505   3.312 -0.2242 -0.0157  0.0142
19131W        W34262  18.334   3.734   0.175 -0.1126  0.0338  0.0288
19132W        W34263   7.539   4.613  15.662  0.1484  0.2952  0.0299
19133W        W34264   3.763  16.986  15.570  0.1804  0.2374  0.1040
19134W        W34265  17.063   0.323  14.008  0.0184 -0.1239 -0.5839
19135W        W34266   9.685   2.270   3.036 -0.1063 -0.1864 -0.1015
19136W        W34267  14.971  12.127  12.882 -0.4161  0.1121 -0.3939
19137W        W34268   1.485  18.576  14.750  0.0797  0.4093  0.2028
19138W        W34269  16.476   3.007   0.160 -0.1900  0.1077  0.2267
19139W        W34270   9.023   9.271  11.859  0.0374  0.1436 -0.0257
19140W        W34271   2.162   9.891   5.188  0.0424  0.1675 -0.0203
19141W        W34272  15.680  17.472   1.144 -0.0311 -0.4655 -0.0321
19142W        W34273  11.369   2.665  14.335  0.1508 -0.3464 -0.1413
19143W        W34274   7.935   3.889  14.589 -0.0068  0.2193  0.1490
19144W        W34275   5.636   0.288  10.797  0.0527 -0.0986 -0.3295
19145W        W34276  13.668  16.037   4.283 -0.1462 -0.1820  0.2242
19146W        W34277  12.603  13.199   1.346 -0.0142  0.1312  0.0528
19147W        W34278  18.086   3.329   4.453  0.1584  0.0770 -0.2387
19148W        W34279   8.135   0.787  12.343 -0.1905 -0.0767 -0.0848
19149W        W34280  12.339   2.200   0.274  0.4029 -0.1082  0.1157
19150W        W34281  15.390  12.498   1.576  0.1214  0.1146  0.2373
19151W        W34282  13.972   0.486  14.355  0.1615  0.4822  0.1860
19152W        W34283  17.507   0.677   3.622  0.0214 -0.0145  0.0973
19153W        W34284  14.431   3.164   5.506 -0.1188  0.0302  0.0147
19154W        W34285  12.955  14.581  12.199 -0.0082  0.0126 -0.0340
19155W        W34286  14.773   2.981   2.219  0.1648  0.0067  0.2653
19156W        W34287  15.346   1.630   3.492 -0.0669 -0.1726 -0.0310
19157W        W34288   1.790  13.877   0.481 -0.1557  0.1970  0.1098
19158W        W34289   2.488   4.420   4.118 -0.0224 -0.1118  0.1909
19159W        W34290   8.937  11.800   0.035 -0.1941  0.2843 -0.1318
19160W        W34291   5.099  15.744   4.192  0.3282 -0.1265 -0.0860
19161W        W34292  13.338   5.598   1.242  0.0364  0.0085  0.2724
19162W        W34293   2.164   6.280   5.387  0.1861  0.0405  0.2031
19163W        W34294   7.323   0.917   1.496 -0.0211  0.0554  0.1748
19164W        W34295  11.028  11.851  13.974  0.2061 -0.1765 -0.1039
19165W        W34296  11.231   6.744  15.030 -0.3057  0.1102  0.0208
19166W        W34297   4.979   8.715   1.455 -0.0231 -0.1025  0.1425
19167W        W34298   6.346  18.276  10.158 -0.2595 -0.2261 -0.0511
19168W        W34299   7.928  17.963  15.113  0.1067 -0.2637  0.3448
19169W        W34300  11.711   2.174  14.791  0.0534 -0.0886 -0.0042
19170W        W34301  15.959  10.973   0.781  0.1342 -0.0290 -0.0998
19171W        W34302   3.586  16.131  14.268  0.0586  0.0786 -0.0187
19172W        W34303  14.330  18.527   6.054 -0.0719 -0.0552 -0.2765
19173W        W34304  15.760  11.239   5.200 -0.3247  0.0702  0.3487
19174W        W34305   4.288   3.371  11.894  0.0884  0.3018 -0.1692
19175W        W34306  12.508   4.128   0.328  0.1525  0.0114  0.2935
19176W        W34307   4.486  12.841   2.989  0.0033  0.1229  0.3202
19177W        W34308   3.070  14.440  14.985 -0.1080  0.3170  0.0219
19178W        W34309  17.156  18.101   4.657  0.2036  0.2213 -0.2665
19179W        W34310   9.376  10.636  11.545  0.2471 -0.0633 -0.1913
19180W        W34311  15.122   5.761  12.012  0.0158  0.1782  0.0878
19181W        W34312   9.291   6.848   3.561 -0.1198  0.1329 -0.1755
19182W        W34313   7.451  16.002  13.459 -0.0389 -0.2695 -0.1803
19183W        W34314   1.498  11.456  12.438 -0.0323  0.1835  0.3103
19184W        W34315   1.951   6.826  10.498 -0.1240  0.0774  0.3162
19185W        W34316  10.593   4.858  14.447  0.1430  0.1225  0.0055
19186W        W34317   1.879  12.739  13.137 -0.1120  0.0110 -0.2083
19187W        W34318  15.944  11.492  12.320  0.1369 -0.2057  0.1177
19188W        W34319   8.063   9.496  11.552  0.0003 -0.0200 -0.2560
19189W        W34320   0.001   8.778  12.890  0.0354  0.1729  0.3119
19190W        W34321  11.945   2.955   2.072 -0.0699  0.2160  0.0694
19191W        W34322   3.829   9.682  13.903 -0.0953  0.2942 -0.5324
19192W        W34323  17.943   3.911  12.048 -0.2850  0.1533 -0.2434
19193W        W34324  14.914  10.228   2.448 -0.0913 -0.1491 -0.0944
19194W        W34325   4.796  14.817   4.809 -0.1806  0.0646 -0.0602
19195W        W34326   5.898   6.991  10.954  0.0004 -0.3241 -0.2749
19196W        W34327   1.927  10.707  14.932  0.3838 -0.0663 -0.0769
19197W        W34328   6.224  13.603  13.091 -0.1816  0.1564  0.0377
19198W        W34329   3.787   3.291   1.312 -0.2841  0.3835  0.2292
19199W        W34330   7.418  15.774   3.823  0.2680 -0.4236 -0.2086
19200W        W34331   1.012  11.233   2.046  0.2956  0.0627 -0.0738
19201W        W34332   5.257  12.054  11.948 -0.0832  0.1031 -0.0582
19202W        W34333   0.489  16.849   3.101  0.0375  0.2936 -0.2225
19203W        W34334   3.004  14.384   5.493 -0.1437 -0.0029 -0.1383
19204W        W34335  10.551   3.363  15.078  0.3280 -0.1079 -0.1856
19205W        W34336   9.862   7.410  11.215  0.0504  0.3537  0.1051
19206W        W34337  10.668  13.810   2.582 -0.0422 -0.2096 -0.1305
19207W        W34338  16.591   6.890   2.569  0.1450  0.0650  0.0154
19208W        W34339   0.590  12.494   4.604  0.3637 -0.1645 -0.1963
19209W        W34340  14.636  11.944  15.335 -0.0185 -0.2292 -0.1126
19210W        W34341   3.416   4.591  11.259  0.2324  0.4496  0.0504
19211W        W34342  13.929  11.769  14.115  0.0072  0.1698 -0.0745
19212W        W34343   7.076   9.959   1.678  0.1341 -0.1286 -0.1355
19213W        W34344   0.377   1.231   5.465 -0.2261  0.1027  0.2384
19214W        W34345   0.257  17.430  12.933 -0.1825  0.1953 -0.2545
19215W        W34346   6.118   5.161   4.464  0.2284  0.0654  0.0964
19216W        W34347   2.070   6.389  14.346  0.0486 -0.1260  0.2342
19217W        W34348  12.425  11.844   3.663  0.0778 -0.3282 -0.2528
19218W        W34349   8.741   5.808  14.367 -0.1013  0.1715 -0.0767
19219W        W34350   4.050   3.352   4.251  0.0694  0.0166 -0.0228
19220W        W34351  15.950  18.326   4.215 -0.1423 -0.2927  0.1605
19221W        W34352   8.503   2.187  13.767  0.1291 -0.4279 -0.0193
19222W        W34353  17.844  14.975  13.319  0.1213  0.3531  0.3213
19223W        W34354  16.293   6.075   3.161  0.0363  0.0095  0.1109
19224W        W34355  10.972   8.014   0.361  0.0685 -0.0152  0.0216
19225W        W34356  16.630  14.776  10.953 -0.1078 -0.0084  0.1598
19226W        W34357  15.678   6.437  12.373 -0.0629  0.1098 -0.0656
19227W        W34358  17.582  15.721  12.902 -0.2508  0.1909 -0.0553
19228W        W34359   1.267  17.975   5.323 -0.1219 -0.1588 -0.0179
19229W        W34360  17.953  15.293  12.072 -0.1839  0.0044  0.0546
19230W        W34361  16.962   5.633   5.038  0.0838  0.0524 -0.0616
19231W        W34362  12.904   3.396   3.177  0.0318 -0.0632  0.0089
19232W        W34363  13.054  11.991  12.936 -0.0716  0.0765  0.0812
19233W        W34364   2.901   2.039   0.795  0.2240  0.5045  0.0469
19234W        W34365  12.039   3.267   3.968  0.1236  0.3289 -0.2005
19235W        W34366   9.592  14.193  10.121 -0.1552 -0.1425 -0.0342
19236W        W34367  11.389   4.660  11.040 -0.1715 -0.2163 -0.0843
19237W        W34368   1.230   1.107   2.742 -0.2496  0.0029 -0.0106
19238W        W34369  16.022   9.490  11.873 -0.1165 -0.0550  0.1982
19239W        W34370   3.022  14.855  13.433  0.0564  0.0142  0.0288
19240W        W34371   8.910  10.110   4.927 -0.1469 -0.0062  0.0964
19241W        W34372  12.321   7.178   4.753 -0.0732  0.2114  0.1273
19242W        W34373   9.285   1.768  11.759  0.1538  0.4056 -0.2782
19243W        W34374   6.455   0.041   1.004 -0.1528  0.0485  0.2292
19244W        W34375   9.172  17.728   0.576 -0.5174 -0.2748 -0.4139
19245W        W34376  15.345  16.162  14.494 -0.1223  0.1453 -0.0727
19246W        W34377  17.218   0.969   4.236 -0.2100  0.0246  0.3238
19247W        W34378   5.593   8.304  11.297 -0.1231 -0.2699 -0.1765
19248W        W34379   5.346  17.709   1.507 -0.2726 -0.1072 -0.1110
19249W        W34380   7.493  14.466   3.283  0.0955 -0.2581  0.0643
19250W        W34381   7.693   2.596  13.044  0.0425  0.1669 -0.1434
19251W        W34382  12.130  18.577   4.366 -0.3844  0.0214  0.0632
19252W        W34383   8.052   4.850   2.017  0.0586 -0.0777 -0.1939
19253W        W34384   3.281  14.575  13.084  0.0164  0.4981 -0.0234
19254W        W34385   5.441   1.060   3.422  0.2749  0.0077  0.1707
19255W        W34386   6.345   9.086  10.290  0.0905  0.1026 -0.1592
19256W        W34387  13.667   0.677  11.002 -0.1152  0.1456  0.3083
19257W        W34388   8.630   7.938  10.485  0.0258 -0.3562 -0.0107
19258W        W34389   6.367   6.853   1.091 -0.2597 -0.0068  0.2884
19259W        W34390   4.361  16.956   2.319  0.0829 -0.1701 -0.0704
19260W        W34391  12.492  17.462  12.721 -0.1177  0.3045  0.0446
19261W        W34392   3.087   9.785   5.529  0.2145 -0.1482 -0.4790
19262W        W34393  18.481  17.941  15.014 -0.0034  0.4063  0.1354
19263W        W34394  17.664   2.842  14.263 -0.2554  0.0974  0.0010
19264W        W34395   8.771  12.263  14.499 -0.0660  0.0442  0.1307
19265W        W34396   8.269   6.557   1.790  0.0537  0.1036 -0.0914
19266W        W34397   9.227  17.890  13.078 -0.0823  0.4641  0.0655
19267W        W34398   4.797  10.463  11.223 -0.0801  0.0128  0.1879
19268W        W34399  11.715   6.381  12.956 -0.0269  0.2961  0.1522
19269W        W34400  12.693  13.831  14.592 -0.0827  0.0610 -0.0132
19270W        W34401   4.621   1.452   1.797 -0.0985 -0.2639  0.0890
19271W        W34402  13.625  16.726  10.494  0.1367 -0.2958  0.1702
19272W        W34403  15.774  14.839   5.255 -0.0594  0.1132 -0.3306
19273W        W34404  18.652   1.235  14.547 -0.4225 -0.5322 -0.1795
19274W        W34405   7.996  18.360  11.751 -0.2535 -0.1709  0.1438
19275W        W34406  14.432   9.576  10.560 -0.0320  0.3517  0.0130
19276W        W34407   2.744   6.782   1.008 -0.0196  0.0903 -0.1033
19277W        W34408   2.655  13.105  13.660  0.2569 -0.3381 -0.0343
19278W        W34409   2.000   3.300  12.079 -0.2488  0.2977  0.1661
19279W        W34410   0.802  12.983   4.071  0.2135 -0.2318 -0.3705
19280W        W34411  15.957   5.437   1.738  0.0380 -0.4791 -0.0718
19281W        W34412  13.165  16.600  14.224  0.4799 -0.0285 -0.0669
19282W        W34413  13.803   3.650   1.915 -0.1699 -0.2618 -0.1406
19283W        W34414   5.737  14.703  11.471 -0.2601  0.3065  0.2484
19284W        W34415   1.707  12.429   3.362  0.0678 -0.1461  0.3119
19285W        W34416  13.760   8.059   4.783  0.1858  0.1195  0.2363
19286W        W34417  13.957  14.103   3.503  0.3422 -0.1891 -0.1324
19287W        W34418  13.099   1.616  14.048 -0.5110  0.1264  0.2082
19288W        W34419  16.301   4.582  14.505  0.1818  0.1837 -0.1800
19289W        W34420   4.176  14.995  15.791  0.3160  0.4175 -0.0455
19290W        W34421  18.702  11.438  12.476 -0.0851 -0.1860 -0.2411
19291W        W34422  14.834  15.101   0.359  0.0631 -0.1887  0.1608
19292W        W34423  12.728   4.850  14.248  0.2178 -0.2682 -0.2632
19293W        W34424  18.569  13.547  14.876 -0.0154  0.1794  0.2024
19294W        W34425   8.321   0.043  14.477 -0.3056  0.3490  0.0740
19295W        W34426   6.312  16.825   5.619  0.0933  0.0559  0.2902
19296W        W34427  11.997   3.051  14.004 -0.5052 -0.0390 -0.1160
19297W        W34428   9.813  11.295   4.399  0.0730  0.2412  0.1341
19298W        W34429   1.621  15.441  14.180 -0.2809  0.0222 -0.2685
19299W        W34430   6.217  11.888  15.291 -0.1029 -0.3175  0.1274
19300W        W34431  18.725   0.209   5.262 -0.0338 -0.4360  0.7249
19301W        W34432  10.126  15.474  10.537 -0.0707  0.1972  0.3223
19302W        W34433  14.365   3.732   0.406 -0.0743 -0.4125 -0.1292
19303W        W34434   9.824  15.307  11.506 -0.3373 -0.0718  0.0428
19304W        W34435  18.032  15.753  12.751 -0.0863 -0.1409 -0.2829
19305W        W34436  11.204   3.317   0.769  0.0568  0.0610  0.3215
19306W        W34437   4.744   8.083  12.652  0.0029  0.1843  0.1826
19307W        W34438   9.651   9.573   2.380  0.2569  0.1697  0.1934
19308W        W34439  17.346   6.372   1.253  0.0693 -0.1233  0.1087
19309W        W34440   9.563   7.038   0.281  0.4471 -0.1577  0.5090
19310W        W34441  16.760  12.826   2.117 -0.1724 -0.1442 -0.1512
19311W        W34442  10.668  14.606   0.928  0.2526 -0.1617  0.0189
19312W        W34443   1.489  17.193  12.457  0.2019 -0.0965  0.0009
19313W        W34444  17.713   0.146   4.664 -0.1485 -0.1947  0.3871
19314W        W34445   0.141  12.700   1.337  0.1470 -0.0009  0.2004
19315W        W34446   5.596  12.962   4.155 -0.2737 -0.1414 -0.0607
19316W        W34447   0.288  18.331  12.982  0.1393 -0.0327  0.1541
19317W        W34448   4.698   8.791  10.677  0.0296  0.1769  0.2889
19318W        W34449   5.299  10.241   5.253 -0.2417 -0.3737  0.3789
19319W        W34450  10.585  11.459  14.902  0.0494 -0.3445  0.1677
19320W        W34451  18.404   4.518   3.889  0.1270 -0.0988 -0.0474
19321W        W34452   7.070  11.552  15.347 -0.3873  0.0957  0.1225
19322W        W34453  15.279   1.983  12.935 -0.1853  0.4306  0.2524
19323W        W34454   8.648   2.754   5.359  0.2030  0.0519  0.0386
19324W        W34455   6.431   9.038  15.437 -0.0899  0.3582 -0.2342
19325W        W34456   8.880  12.776  12.959 -0.0406  0.4036  0.0400
19326W        W34457   3.239  17.164   4.893  0.3802 -0.1627  0.2521
19327W        W34458   8.170   7.252   0.540  0.2816  0.1022  0.0205
19328W        W34459  17.203  15.285   3.712 -0.1706 -0.2507 -0.2516
19329W        W34460   8.768  13.595   2.139  0.0003  0.3736  0.1287
19330W        W34461   3.035  14.617   0.669 -0.0398  0.1698 -0.2942
19331W        W34462   8.263   0.218   0.359 -0.3558  0.3422 -0.1383
19332W        W34463   1.422  16.870  11.160 -0.1624  0.0424  0.0630
19333W        W34464   4.290  10.917   3.790 -0.2470 -0.5150  0.0136
19334W        W34465   3.592   4.860   5.573  0.0037  0.2180  0.0258
19335W        W34466   8.857  11.333   4.247 -0.2182  0.2311  0.0452
19336W        W34467  12.975   5.356  12.109  0.1854 -0.2640  0.1310
19337W        W34468  13.794   8.905  14.012  0.3628 -0.0039 -0.3549
19338W        W34469   8.028   2.511   2.390  0.1107 -0.1427 -0.1227
19339W        W34470   4.281   9.412  10.990 -0.0764 -0.0982  0.1326
19340W        W34471   4.132   0.348   3.448 -0.2103  0.0840 -0.1239
19341W        W34472  17.613  10.131  11.525  0.0480 -0.2328 -0.0319
19342W        W34473   2.261  15.983  13.256 -0.0773  0.1122  0.1052
19343W        W34474  11.489  15.384  10.176 -0.1323 -0.2753 -0.1669
19344W        W34475  18.304   1.595  11.842  0.0775 -0.1339 -0.0983
19345W        W34476   6.600  14.466  10.641 -0.1278  0.0106 -0.3808
19346W        W34477   1.487  10.650   4.841  0.1551  0.0395 -0.0389
19347W        W34478  14.705   0.375  10.233  0.1601 -0.3413  0.0059
19348W        W34479   0.144  15.363   1.351 -0.0153  0.0624 -0.0593
19349W        W34480   4.744   5.872  12.307 -0.0136 -0.1562  0.2713
19350W        W34481   6.906   7.290  14.244 -0.2150  0.1683  0.0356
19351W        W34482  10.461   2.898   4.513  0.0498  0.2877 -0.2784
19352W        W34483   0.584  13.027   4.555  0.2217  0.0764 -0.2166
19353W        W34484  12.393  17.741  14.641  0.0123  0.0318  0.1697
19354W        W34485  11.701   1.940   3.474  0.1976  0.1354 -0.1503
19355W        W34486  18.301  18.314   0.386 -0.3568 -0.0534  0.0140
19356W        W34487   6.756   6.429   0.075 -0.3002  0.2410  0.0328
19357W        W34488   7.947   0.115  15.727 -0.0941 -0.2948  0.0876
19358W        W34489  14.858   7.086  13.282 -0.1807 -0.0024  0.1224
19359W        W34490   2.586  12.014  14.690  0.1303 -0.0389 -0.2390
19360W        W34491  14.305   0.319  13.957  0.2388  0.2693  0.1358
19361W        W34492   7.160  17.453  15.102  0.0684  0.2217  0.2407
19362W        W34493  15.123  12.324   2.555 -0.0736  0.1648  0.1400
19363W        W34494  17.678   1.594  14.269 -0.0361  0.0231  0.1126
19364W        W34495  13.842  10.323  14.888 -0.1612  0.0534  0.2410
19365W        W34496   9.945   3.793   5.021  0.0457  0.0982  0.0587
19366W        W34497   3.364   3.198   5.592 -0.1008  0.0016 -0.1765
19367W        W34498  15.217  11.440  13.591  0.1176 -0.2578 -0.0504
19368W        W34499  16.169   6.252  12.584  0.3006  0.1695  0.1888
19369W        W34500   3.806   9.256  15.324 -0.0978 -0.1957 -0.2544
19370W        W34501   8.119  12.316  13.688 -0.1440  0.3119  0.3221
19371W        W34502   9.539   0.284   3.480  0.0162 -0.2487 -0.1670
19372W        W34503  10.932  12.439  14.516  0.0317  0.0952 -0.0345
19373W        W34504  11.337   1.883   1.446 -0.0633  0.1541 -0.0646
19374W        W34505  15.109   0.126   5.158  0.0544  0.0149 -0.1362
19375W        W34506   3.273  12.021  11.852 -0.0003 -0.0095 -0.2219
19376W        W34507  14.874   8.436  12.561  0.0547  0.2154 -0.1246
19377W        W34508  14.326  13.263  13.535  0.2547  0.0454  0.0159
19378W        W34509  12.897  15.625   1.411 -0.2993 -0.4206  0.1280
19379W        W34510  16.145  18.145  15.758  0.4420 -0.0821  0.2591
19380W        W34511   5.696  14.849  12.929  0.0023  0.1384 -0.1696
19381W        W34512   0.734   7.469   0.900 -0.1677 -0.1774  0.1754
19382W        W34513  13.683  16.456   5.357 -0.0047 -0.0668  0.0905
19383W        W34514  10.569   1.073   0.666  0.5447 -0.1111 -0.1067
19384W        W34515   4.695  13.607  11.484  0.0149 -0.0675  0.1309
19385W        W34516   1.922   4.290   0.512 -0.0687  0.1017 -0.0614
19386W        W34517   9.238  13.712   2.897 -0.1951 -0.3069 -0.0420
19387W        W34518   7.456   2.447  11.953 -0.0684 -0.1744  0.0321
19388W        W34519   6.210   8.020   0.889 -0.1904  0.2529  0.0371
19389W        W34520   7.800   9.024   0.603 -0.0545 -0.1614 -0.2395
19390W        W34521   3.500   0.734   3.390 -0.0574 -0.2163  0.4481
19391W        W34522  13.326  10.184   1.050  0.2232 -0.0124  0.1811
19392W        W34523   9.015   2.074   4.137 -0.1190  0.3284  0.1495
19393W        W34524   4.797   9.991  10.259 -0.1251  0.1038 -0.0426
19394W        W34525   3.500  14.936  10.042  0.0131 -0.1895  0.2501
19395W        W34526  15.159   1.130   3.615  0.0006 -0.1419  0.0798
19396W        W34527  15.927  13.787  14.473  0.2844  0.0718  0.1150
19397W        W34528  13.562  17.235  15.441 -0.0514 -0.1798  0.1068
19398W        W34529  10.890   1.633   0.449 -0.3900 -0.1252  0.1016
19399W        W34530  17.755   0.010  13.123  0.1807  0.3332  0.0569
19400W        W34531  10.142   2.990  11.256 -0.1844  0.4221  0.0011
19401W        W34532  12.771   0.578   5.717 -0.1321  0.5694 -0.1294
19402W        W34533  11.004  11.535  12.432 -0.0342  0.1107  0.0856
19403W        W34534  14.513  13.304  15.129  0.1208 -0.0010  0.2649
19404W        W34535   6.783  17.877  11.057 -0.0368  0.1063  0.2420
19405W        W34536  11.612  14.762  11.974  0.0177  0.1683 -0.0144
19406W        W34537  10.525  11.999   2.548  0.2873 -0.1359 -0.1560
19407W        W34538  12.499   5.815  11.301 -0.0176  0.0803 -0.1446
19408W        W34539   2.911   5.994  15.323  0.1438  0.0496 -0.1364
19409W        W34540  10.835   6.638   1.021  0.0232 -0.2928 -0.0919
19410W        W34541   2.643   2.728  13.046  0.1595  0.2990  0.0745
19411W        W34542   4.026   7.166   4.269 -0.1753  0.1661  0.2519
19412W        W34543   4.768  10.583  15.189 -0.0225  0.0546  0.0723
19413W        W34544   4.593   9.120   4.763 -0.2084  0.1381 -0.1011
19414W        W34545   0.539  17.293  11.791 -0.1690 -0.0150  0.0261
19415W        W34546  15.331   6.920  13.305  0.0422 -0.0436 -0.1784
19416W        W34547  17.839  12.233   4.116 -0.0409  0.0583 -0.0337
19417W        W34548  12.522   2.042   5.020  0.2295 -0.0068  0.1715
19418W        W34549  18.382   3.365  13.478  0.1556 -0.0570 -0.2045
19419W        W34550  11.112   0.966  14.413  0.0222  0.0948  0.0601
19420W        W34551   6.745   0.400  13.352  0.2008 -0.0721 -0.0866
19421W        W34552   3.421  13.371   4.385  0.0815 -0.1117 -0.0397
19422W        W34553  14.823  16.567   2.991 -0.3780 -0.0387 -0.0440
19423W        W34554   8.863   9.909  12.262  0.1403 -0.1221 -0.1756
19424W        W34555   7.503   6.778  13.560 -0.1080  0.3786  0.0316
19425W        W34556  18.524   3.079   4.309 -0.3673  0.0839  0.5578
19426W        W34557  11.035   3.097  12.313 -0.0841  0.0466 -0.0567
19427W        W34558   6.171  11.595   6.297 -0.5297  0.0818 -0.3183
19428W        W34559   2.904   7.944   0.388 -0.1090  0.0016 -0.3168
19429W        W34560  17.527   3.300   2.298  0.0675 -0.0748  0.0383
19430W        W34561   6.051   5.447  12.260 -0.3345 -0.3521  0.2078
19431W        W34562   2.221   8.462  14.676  0.1070  0.0074 -0.0878
19432W        W34563   2.801  15.238  11.530 -0.1953  0.2468  0.0800
19433W        W34564   2.798   4.750   0.788  0.2674 -0.1175 -0.2557
19434W        W34565  15.486   5.680  11.166  0.0367 -0.3206  0.5490
19435W        W34566   5.238  14.986  12.670  0.2815  0.2624  0.3844
19436W        W34567   3.528   4.002  15.367  0.1230  0.1231  0.2397
19437W        W34568   6.788   7.310  13.789  0.4828  0.3303 -0.3881
19438W        W34569  13.394   5.170  12.407  0.0520  0.1070  0.0374
19439W        W34570   1.844   7.395   2.999 -0.2000  0.1385 -0.0577
19440W        W34571   7.973  10.109   2.825 -0.1075 -0.1600  0.0873
19441W        W34572  16.441  14.406  14.243  0.0702 -0.0982 -0.1941
19442W        W34573   1.069  13.796  15.364  0.1614 -0.0015  0.0768
19443W        W34574  18.441   5.129  15.692 -0.0147 -0.1028  0.2555
19444W        W34575   0.850   5.438   3.094  0.1108  0.0762 -0.2006
19445W        W34576   7.846   0.174  11.315 -0.0055 -0.3497  0.2730
19446W        W34577  14.245   5.396   3.961  0.3044  0.2186  0.2009
19447W        W34578   7.590   0.015   5.509 -0.3496 -0.1527  0.0367
19448W        W34579  16.906   4.163  11.060 -0.2311 -0.3649  0.0934
19449W        W34580  18.308  10.271  11.232 -0.2232 -0.2077  0.2591
19450W        W34581  18.628   2.998   1.305  0.2496  0.1070 -0.3181
19451W        W34582   7.037   3.725   5.107  0.0329 -0.2864 -0.3765
19452W        W34583   0.437  10.420  10.125 -0.2067 -0.1269 -0.0270
19453W        W34584   8.300  12.644   2.541  0.2489  0.0208 -0.0771
19454W        W34585   4.452   7.611  15.484  0.0721 -0.2226 -0.0330
19455W        W34586  15.965  10.817   5.058  0.2254  0.0842  0.1079
19456W        W34587  10.708  17.282  14.752 -0.0846 -0.0061 -0.0846
19457W        W34588   7.352   0.818   2.732  0.2021 -0.2505 -0.0370
19458W        W34589  17.963  18.002  14.253  0.0519  0.2598 -0.2272
19459W        W34590  11.233  16.793  12.449 -0.3004  0.3008  0.0720
19460W        W34591   5.812  17.021  14.244 -0.0057 -0.0154 -0.2224
19461W        W34592   0.507   7.183  13.195  0.2556  0.0057 -0.0318
19462W        W34593   5.676   9.395   3.786 -0.0030 -0.0064  0.1069
19463W        W34594   1.962  12.942  15.295 -0.0194 -0.1095 -0.0000
19464W        W34595  13.272  18.549   1.593  0.1045  0.0703 -0.0814
19465W        W34596   3.787  14.367   3.731  0.2903 -0.1875 -0.3230
19466W        W34597   1.218   2.350  11.266  0.1139  0.0116  0.3158
19467W        W34598  10.084  16.801   3.923  0.1621  0.0562 -0.1210
19468W        W34599  10.393  12.614   0.183 -0.0516 -0.0440  0.1516
19469W        W34600  13.032  15.615  14.989 -0.0325 -0.0421 -0.1539
19470W        W34601  12.422   7.622   0.308 -0.1070 -0.0766  0.2362
19471W        W34602   3.972  15.691  14.993 -0.2286 -0.0321  0.0349
19472W        W34603  15.568  14.244   3.603 -0.2657 -0.0438 -0.4271
19473W        W34604  14.221   7.197   2.273  0.1347 -0.0250 -0.1615
19474W        W34605   6.062  14.568   4.373  0.0211 -0.0708  0.2092
19475W        W34606   3.406   9.894   1.155  0.3245  0.0646 -0.2287
19476W        W34607   9.681  13.238  15.750 -0.2575 -0.3233  0.2673
19477W        W34608  12.123   8.523   3.395  0.0564 -0.0834  0.0318
19478W        W34609   5.993  12.294  15.124 -0.0729 -0.2451  0.1900
19479W        W34610   2.456  10.374   5.364  0.1282 -0.1950  0.2563
19480W        W34611   5.501   6.424   5.045  0.1436  0.0874 -0.0455
19481W        W34612  17.986   5.350  10.802  0.1371 -0.0426  0.3994
19482W        W34613  11.001   0.368  13.246 -0.1672 -0.1106  0.1100
19483W        W34614   7.744   1.805  13.924  0.1358  0.0068  0.1313
19484W        W34615  12.712   2.459   4.314 -0.2536  0.1561 -0.2098
19485W        W34616  17.619  18.592  11.408  0.2155 -0.2864  0.4883
19486W        W34617   5.599  16.368   1.869 -0.1352  0.2295 -0.1557
19487W        W34618   1.148  18.219  13.161  0.0575  0.0878 -0.4738
19488W        W34619   5.623  10.073  15.082 -0.0000 -0.1048  0.0402
19489W        W34620   8.361   1.983  13.311  0.0391  0.1017 -0.3814
19490W        W34621  17.102   9.300   1.728 -0.2336  0.1808  0.0685
19491W        W34622   9.729   5.382   1.941 -0.1357 -0.4446 -0.2493
19492W        W34623   8.515   8.903   4.721 -0.0900 -0.1462 -0.1439
19493W        W34624   6.966  18.429  11.052  0.0040 -0.2411 -0.1343
19494W        W34625  13.031   3.003   3.675 -0.0195 -0.1054 -0.0329
19495W        W34626  16.105  16.985   0.549 -0.1076  0.0906 -0.1016
19496W        W34627  15.197  13.788  11.354 -0.0573 -0.3110  0.2802
19497W        W34628  10.067  16.232   0.742 -0.0653 -0.0845 -0.2507
19498W        W34629   5.550  12.889  13.767  0.1316  0.2281  0.1112
19499W        W34630   4.530   1.475  14.757 -0.0857  0.1342  0.0111
19500W        W34631  12.857  16.983   4.068 -0.1939  0.1600 -0.1682
19501W        W34632   5.910   9.918   4.228  0.0725 -0.0676 -0.0600
19502W        W34633  15.548   4.594  15.389 -0.0443 -0.0256 -0.0436
19503W        W34634  17.882   5.606   5.055  0.2395  0.1708  0.1772
19504W        W34635  17.467  11.381  12.158 -0.0905 -0.1549  0.1875
19505W        W34636  13.028  17.449  13.084 -0.0936  0.1161  0.0356
19506W        W34637  16.282  18.444   3.771  0.4073 -0.0253  0.1671
19507W        W34638  18.540   6.513   5.265  0.3808  0.2996 -0.0747
19508W        W34639  10.097  12.802  13.473 -0.0631 -0.0308 -0.0944
19509W        W34640  12.026  14.225   0.628 -0.2588 -0.1543  0.0295
19510W        W34641  15.362  15.400  13.201  0.1202 -0.0136  0.1339
19511W        W34642  17.361  11.129   1.094  0.3727 -0.2498 -0.1417
19512W        W34643   3.594  15.169   3.928  0.1672 -0.2933  0.0515
19513W        W34644  14.126  12.060  11.494 -0.1521 -0.0616 -0.1103
19514W        W34645   9.788   0.338  12.771  0.1138 -0.1456 -0.1092
19515W        W34646   9.597   8.879  10.291  0.0209 -0.3061 -0.1542
19516W        W34647  15.254   4.571   3.151 -0.2885  0.1072  0.2535
19517W        W34648  17.853   8.279  14.101 -0.4967  0.1320 -0.2793
19518W        W34649   0.063  18.286   0.495  0.1277  0.0932 -0.1796
19519W        W34650  11.747   7.488  14.484  0.0014 -0.0064 -0.2079
19520W        W34651   2.715   4.500  14.618 -0.3238  0.1686  0.2261
19521W        W34652  10.590   9.548   9.838  0.3063  0.0309 -0.1414
19522W        W34653  15.596   8.524  13.297 -0.0110 -0.1378  0.0951
19523W        W34654  15.443   9.881   3.067 -0.0475 -0.1965  0.0572
19524W        W34655   3.768   9.863  15.402 -0.0283  0.4627  0.1437
19525W        W34656   6.778   4.221  10.892  0.0092  0.3118 -0.1823
19526W        W34657   3.500  17.414  10.600 -0.0692 -0.1348  0.1973
19527W        W34658   7.240  17.170   0.068  0.3741 -0.0689 -0.0308
19528W        W34659  10.605  11.835   0.825  0.1465 -0.2463  0.0848
19529W        W34660  16.939   0.056   5.314  0.1963  0.5256  0.2355
19530W        W34661   7.836   1.410   3.464 -0.2843 -0.1656  0.1730
19531W        W34662  12.716   3.200  14.109  0.3233 -0.2854  0.0247
19532W        W34663   6.872   0.796   1.350 -0.1785  0.2336 -0.1298
19533W        W34664   6.775   8.562   1.104 -0.1249  0.0822  0.0789
19534W        W34665   1.090  11.556   1.197  0.2327  0.0753 -0.2111
19535W        W34666  14.567  17.636  11.273 -0.1878 -0.0190  0.0601
19536W        W34667   6.085  18.000  13.401  0.1198 -0.0391 -0.2802
19537W        W34668   8.827   2.543  12.360  0.0563  0.1773 -0.1161
19538W        W34669   9.344  10.077   2.106  0.1290  0.2008 -0.1411
19539W        W34670  12.119  11.028  13.987  0.0573  0.1068  0.0187
19540W        W34671   4.152  12.881  15.435  0.2485 -0.0294  0.1428
19541W        W34672   8.803   7.416   1.986 -0.0987  0.2695 -0.0953
19542W        W34673   1.441   0.864  14.197  0.0136  0.0246  0.0843
19543W        W34674   7.549  13.175   2.392 -0.1698  0.0004  0.0339
19544W        W34675   3.164   5.776   3.115 -0.1544  0.0013 -0.1858
19545W        W34676  11.817   9.271   4.874 -0.4146 -0.0786 -0.0317
19546W        W34677   9.221   2.942   1.526  0.0001 -0.1800 -0.0274
19547W        W34678   7.313  11.135  14.117 -0.0817  0.1105 -0.0151
19548W        W34679   5.002  10.797  10.862 -0.2883 -0.1467  0.1427
19549W        W34680   0.264   4.581  11.414 -0.2915  0.1064  0.0099
19550W        W34681   5.067  17.140  12.647  0.1309  0.0553 -0.2894
19551W        W34682   7.882  14.985  12.233 -0.2116 -0.1828  0.0162
19552W        W34683  14.050  13.382   2.770  0.3765  0.2671  0.1521
19553W        W34684   0.109  13.742   5.644 -0.0619 -0.2757 -0.1506
19554W        W34685   0.232   3.511  13.835 -0.0144  0.1123 -0.2002
19555W        W34686  13.431   6.708  11.675 -0.0877  0.1678 -0.1398
19556W        W34687   0.776  13.970  10.619 -0.1226 -0.1910 -0.1866
19557W        W34688  10.003  17.776   3.921  0.0874 -0.1110  0.2110
19558W        W34689  12.002  15.542   0.731 -0.0932 -0.0077  0.1177
19559W        W34690  18.615   4.272   2.037 -0.0581  0.0054 -0.1670
19560W        W34691   8.488   6.565  12.860  0.0032  0.0330 -0.0794
19561W        W34692   3.805  11.313   0.006  0.2418 -0.2355  0.3499
19562W        W34693   5.870   1.486  13.863 -0.4977  0.0034 -0.1964
19563W        W34694  15.349  17.253  14.210  0.1081 -0.0804 -0.3280
19564W        W34695   6.544  16.248   5.242 -0.0545  0.1309 -0.0903
19565W        W34696  14.907   3.941   2.042 -0.0709 -0.0323  0.1367
19566W        W34697   1.797   4.827  12.584 -0.1633 -0.0310 -0.1174
19567W        W34698  10.110  11.288  14.442  0.0892 -0.1686  0.1496
19568W        W34699  13.144   8.930   1.378  0.0597  0.0191 -0.3334
19569W        W34700   0.637  14.263  12.179 -0.1221 -0.0452  0.1745
19570W        W34701  16.462   5.757   5.177  0.4083 -0.0037 -0.0705
19571W        W34702   6.821  16.810   1.717 -0.0046 -0.2905 -0.0114
19572W        W34703  16.720   0.962  14.111  0.5320  0.0843 -0.1202
19573W        W34704  13.091   5.224  13.862 -0.1267  0.0396 -0.1022
19574W        W34705  10.570  14.187  12.988 -0.0701 -0.1365 -0.4180
19575W        W34706  14.574  14.416  14.114  0.0541  0.1099 -0.1011
19576W        W34707   1.467   3.036  15.620  0.1741  0.0861  0.0586
19577W        W34708  14.482  10.684  14.405  0.0639  0.1779 -0.1532
19578W        W34709   6.370   4.854   5.311  0.0741  0.1673  0.0656
19579W        W34710  17.801  15.765  15.346 -0.0326  0.2370  0.0288
19580W        W34711   5.780   7.912   0.560 -0.0930 -0.3820  0.2274
19581W        W34712  12.436   0.597   0.467  0.1527 -0.0368 -0.1682
19582W        W34713  17.326   5.689  13.617  0.3360  0.0772  0.1998
19583W        W34714  11.700  13.354  13.785  0.2208 -0.0144 -0.0958
19584W        W34715   6.145  11.112  13.179  0.2411  0.1937 -0.1414
19585W        W34716   8.983   8.120  14.963  0.1409 -0.0289 -0.0762
19586W        W34717   5.156   8.583  10.749 -0.2201  0.0746 -0.2632
19587W        W34718   6.737   8.847   4.210  0.4040 -0.1339  0.1634
19588W        W34719  12.372  17.734   3.649 -0.1922  0.2014 -0.3111
19589W        W34720  11.648   2.409   3.388  0.1275 -0.3845 -0.0626
19590W        W34721   0.233   6.554   4.837 -0.2657 -0.0399  0.1593
19591W        W34722  10.543   4.212   1.421  0.1098 -0.1554  0.2008
19592W        W34723   1.353  11.087  11.103 -0.0038  0.3511  0.0866
19593W        W34724  13.374   4.776  12.905 -0.0376  0.1947 -0.1218
19594W        W34725   3.769   8.581   5.237 -0.0724  0.1186  0.0616
19595W        W34726  12.898   6.006   1.441 -0.0235  0.1443 -0.0871
19596W        W34727   9.521   5.872  13.599 -0.1129 -0.1579 -0.2652
19597W        W34728  17.744  12.035  15.736 -0.1001  0.1770  0.0092
19598W        W34729  13.983  17.797   1.948  0.1117 -0.3584 -0.0187
19599W        W34730   0.946   8.491  10.784 -0.0924 -0.1269 -0.0758
19600W        W34731  14.795  14.029   4.765 -0.0303  0.1305  0.2031
19601W        W34732   9.819  13.555   4.385 -0.1036  0.2493 -0.0265
19602W        W34733   1.684   6.213  14.585  0.1927 -0.4236  0.3969
19603W        W34734   1.025  15.155  12.521 -0.2486  0.1438 -0.0737
19604W        W34735   7.052   2.994   6.021  0.1471 -0.0317 -0.1996
19605W        W34736   4.732  16.727   5.459  0.1013  0.0620 -0.1362
19606W        W34737  18.501  16.827  14.797  0.0072  0.0041 -0.0304
19607W        W34738  11.562   3.439  13.234  0.2887  0.0664  0.0270
19608W        W34739   9.540  16.578   0.057 -0.1194 -0.0755  0.0340
19609W        W34740  11.313  13.545  10.458  0.0162 -0.0651 -0.0831
19610W        W34741   4.137   8.341   1.060  0.1132  0.0262 -0.3171
19611W        W34742   7.625   5.035  11.819  0.1443 -0.0924  0.0862
19612W        W34743  16.487   5.379   4.173  0.1117  0.2511  0.2555
19613W        W34744   3.288  11.786   0.598 -0.1424  0.1447 -0.0828
19614W        W34745   4.322  15.627  14.535 -0.5157  0.0789  0.1189
19615W        W34746  16.934   2.248  12.253  0.0158  0.4421 -0.0456
19616W        W34747  17.111  14.345  12.426 -0.5018 -0.2604  0.0774
19617W        W34748  18.629  11.143  14.302  0.2596 -0.0705  0.1414
19618W        W34749   6.450   5.539   4.631 -0.0476  0.2196  0.2750
19619W        W34750  16.642  14.784   3.121 -0.0493 -0.0974 -0.0298
19620W        W34751  10.245  17.383   2.655  0.1451  0.0091 -0.2624
19621W        W34752  15.704   5.541   4.703 -0.2158  0.3376  0.1280
19622W        W34753   2.118  11.329  13.520  0.0009 -0.0444  0.2679
19623W        W34754   6.746   6.841  11.528  0.1035  0.0027  0.2943
19624W        W34755   6.198  13.982  14.230 -0.1371  0.0421 -0.1156
19625W        W34756  13.466   6.952   5.291 -0.0571 -0.0000 -0.0305
19626W        W34757  15.460  17.312  11.460  0.2904  0.1766 -0.0545
19627W        W34758   3.566  10.011   4.674 -0.3226  0.1474  0.1224
19628W        W34759   5.666   2.482   2.105 -0.0488  0.0328  0.0831
19629W        W34760   6.139   6.295  14.226 -0.0140  0.2041  0.0677
19630W        W34761  10.270   7.700  11.154  0.2830  0.2554 -0.3682
19631W        W34762   5.658  12.642  15.334  0.1032 -0.3087 -0.0516
19632W        W34763   0.773   4.362   4.180  0.1081 -0.0150 -0.2125
19633W        W34764   6.539   5.599   2.456 -0.0856  0.2091 -0.0618
19634W        W34765  16.666   4.955  14.371 -0.2846 -0.0664  0.0001
19635W        W34766   2.683   7.693   1.361  0.1417  0.1856 -0.3501
19636W        W34767  15.173   0.391  11.349  0.3848 -0.0498 -0.0310
19637W        W34768   1.709  13.517   5.152 -0.0685  0.3355  0.1349
19638W        W34769   2.048  18.415  13.081  0.2229 -0.1201  0.1030
19639W        W34770  17.348  14.032   5.008  0.2783 -0.0826  0.1533
19640W        W34771   1.488  11.939   1.908 -0.2288  0.2295  0.2247
19641W        W34772   9.641  12.548   3.387  0.0029  0.1603 -0.3804
19642W        W34773   9.302   3.257  10.886 -0.2956 -0.1463  0.2065
19643W        W34774   7.913  17.060  14.200 -0.0235 -0.0437 -0.0644
19644W        W34775   3.758  10.898   4.979 -0.0974  0.1915 -0.2275
19645W        W34776  13.836   5.831  11.200  0.0958  0.1712  0.0607
19646W        W34777   7.792   4.367  14.295 -0.0210  0.1206 -0.1087
19647W        W34778   5.723  16.315   5.895  0.1510  0.0186 -0.0581
19648W        W34779   0.633   8.315   2.412  0.0035 -0.2107  0.2929
19649W        W34780  14.833   7.620   1.609  0.0023 -0.0563 -0.1641
19650W        W34781  12.663   9.882  13.390 -0.1317  0.3085 -0.1609
19651W        W34782  15.070   4.922   3.898 -0.1676  0.0718  0.0839
19652W        W34783   7.362  13.492  15.544  0.2233  0.0979 -0.1488
19653W        W34784   0.833  18.061   1.665 -0.3220 -0.3596 -0.0859
19654W        W34785   2.510   0.100  14.555  0.2431 -0.1825  0.3181
19655W        W34786  15.791  17.050  12.426  0.4239 -0.1769  0.3917
19656W        W34787   7.947  10.607   0.583 -0.3847 -0.0209 -0.2119
19657W        W34788   2.881  16.158  13.595  0.0076  0.2461 -0.2993
19658W        W34789  17.617   4.387   4.573  0.2448 -0.0819 -0.1855
19659W        W34790  15.780   9.079   1.697  0.2984  0.1243 -0.0675
19660W        W34791  10.923  13.045   1.470 -0.1880 -0.0245 -0.1096
19661W        W34792   9.664   9.244  14.663 -0.0895 -0.1506 -0.1010
19662W        W34793   6.692   0.103  13.850 -0.0093  0.0139  0.0746
19663W        W34794  11.272  13.767  11.957 -0.0203  0.2087  0.0636
19664W        W34795   4.397   9.602   4.916  0.0908 -0.1686  0.2254
19665W        W34796  12.151  13.588  14.112  0.2610 -0.1087  0.2877
19666W        W34797   0.241   7.851  11.093 -0.2643 -0.0961  0.0865
19667W        W34798   0.248   3.649   0.878 -0.3939  0.0015 -0.1159
19668W        W34799   0.550   3.339   0.676 -0.1957  0.0334 -0.0237
19669W        W34800   7.195   3.289  15.679  0.1303 -0.0188  0.1030
19670W        W34801   9.642   0.849   3.924  0.1129  0.1972  0.0208
19671W        W34802  13.805  10.009  11.099 -0.1804 -0.2395  0.1639
19672W        W34803  16.701  11.961   4.360  0.2936 -0.1757 -0.2232
19673W        W34804   7.310   8.488   4.163  0.0333  0.1352  0.1607
19674W        W34805  16.328   6.276  14.092  0.0573  0.0483 -0.1250
19675W        W34806  10.049   5.377  10.612  0.0422  0.0054 -0.0952
19676W        W34807  10.777   8.520  14.226  0.1495  0.1370 -0.1749
19677W        W34808   9.677   0.412   4.338  0.0742 -0.0098 -0.2599
19678W        W34809  17.801  15.194  11.354  0.0385 -0.0790 -0.1627
19679W        W34810  13.634  16.870   4.571 -0.1179 -0.1639  0.0238
19680W        W34811  14.513  14.981   5.108  0.0252  0.1478  0.2604
19681W        W34812   2.075  18.002  15.333  0.3094 -0.0781 -0.1129
19682W        W34813  12.141  18.376   3.614 -0.0355 -0.1645  0.1314
19683W        W34814   6.404  11.467  14.234  0.2072 -0.0115 -0.1409
19684W        W34815  13.334   6.939   0.854  0.1039  0.2153 -0.1204
19685W        W34816   7.452  15.144   4.299 -0.0122 -0.0527 -0.1408
19686W        W34817   4.331  18.593   0.521 -0.0122  0.0241  0.0697
19687W        W34818   9.526   1.404  15.740 -0.1497 -0.2877 -0.1514
19688W        W34819   5.071   0.815   2.123  0.1032  0.3371 -0.0844
19689W        W34820  11.777   9.557   0.202  0.1619 -0.1696 -0.1294
19690W        W34821  13.204   2.613   1.810  0.1348  0.5662 -0.1695
19691W        W34822   7.591   7.547   1.393  0.1358 -0.3947 -0.3365
19692W        W34823   7.485  10.954  15.572  0.0566 -0.3200  0.1478
19693W        W34824  13.863   0.936  14.386  0.2127 -0.2822 -0.1261
19694W        W34825   2.442   2.352   1.793 -0.0615  0.0021 -0.3062
19695W        W34826   3.918  15.968  13.352 -0.1023 -0.0727  0.0137
19696W        W34827  14.465   4.536   5.015  0.1318 -0.0165 -0.1224
19697W        W34828  17.565   8.557  13.419  0.0250  0.0913  0.0004
19698W        W34829   5.742   0.551  14.342 -0.1363 -0.2808  0.3409
19699W        W34830   0.336  16.241   0.015 -0.0358 -0.0140  0.1265
19700W        W34831  16.869   2.148   1.451 -0.0997 -0.2232 -0.0416
19701W        W34832  18.286   1.273   4.881 -0.0259 -0.2718  0.0243
19702W        W34833  15.578  18.311   1.544 -0.0523 -0.0489  0.2270
19703W        W34834  13.801   6.750   0.518 -0.2369 -0.0688  0.0984
19704W        W34835  11.554  12.035   3.126 -0.0667 -0.2342 -0.0371
19705W        W34836  15.454   3.186  13.924  0.1975 -0.2453 -0.1037
19706W        W34837   4.060   0.398  15.733  0.0415 -0.1965  0.2452
19707W        W34838  15.039  15.456  15.770 -0.0226  0.1390 -0.3130
19708W        W34839  15.596   2.922  10.631  0.2160  0.3889  0.1188
19709W        W34840   6.892  17.530   0.510  0.1535  0.3099  0.2763
19710W        W34841  16.102   7.258  13.173  0.1988  0.0853 -0.2346
19711W        W34842   2.869   2.059  14.552  0.0173 -0.0722 -0.0356
19712W        W34843  15.494  13.465   3.155 -0.1313 -0.1174  0.0503
19713W        W34844  12.285   7.564  14.715  0.1128  0.1292 -0.0278
19714W        W34845   2.033  16.901  13.202 -0.0416  0.1633 -0.2082
19715W        W34846   2.972  13.181   3.710  0.2185  0.0764 -0.2803
19716W        W34847   8.465   8.570   1.474  0.2668 -0.3829 -0.1806
19717W        W34848  13.947   4.977  12.834  0.3186 -0.0183 -0.0015
19718W        W34849   4.343  14.177   3.003  0.0858 -0.0167 -0.3698
19719W        W34850   1.807  17.238   4.021  0.2033  0.0435  0.4856
19720W        W34851   3.957   6.669  11.450  0.1619 -0.0502  0.0567
19721W        W34852   6.269  14.954  13.818 -0.0466  0.0346 -0.1810
19722W        W34853   0.157  11.884   5.280 -0.0902  0.1731 -0.2426
19723W        W34854  13.219  15.289  15.325 -0.2439 -0.1738  0.2169
19724W        W34855   4.644   0.051   3.724 -0.1019 -0.1686  0.0324
19725W        W34856   4.823  13.886   4.469 -0.0391 -0.1515  0.0139
19726W        W34857   7.519   7.358  13.094 -0.0725 -0.0481  0.1129
19727W        W34858  18.437   6.986   5.417 -0.0050 -0.1891  0.1613
19728W        W34859  14.589   1.798   1.784 -0.0778 -0.1311  0.0234
19729W        W34860  18.096   7.888   2.056  0.0353 -0.3476  0.0583
19730W        W34861  16.751  16.760  11.277  0.4235  0.0131  0.0597
19731W        W34862  15.252   1.074  13.257 -0.0299 -0.1307  0.0841
19732W        W34863  12.218   5.058  15.062  0.1304 -0.0934 -0.1942
19733W        W34864   1.592   9.595  13.406  0.0804  0.0683  0.1163
19734W        W34865   4.317  15.640  11.132  0.2739 -0.4058  0.0918
19735W        W34866   5.381  16.309   3.072  0.0418  0.1210  0.2502
19736W        W34867   6.302   5.509  11.084 -0.2240  0.3110 -0.0210
19737W        W34868   1.824  14.022   4.200 -0.2045  0.3595 -0.3680
19738W        W34869  16.681   7.072   0.158 -0.1074  0.0272 -0.4953
19739W        W34870   2.357   6.912  13.368  0.2400  0.2246  0.0546
19740W        W34871   6.860  17.497  13.500  0.4344 -0.0492  0.1060
19741W        W34872   5.292  15.102  14.663  0.1312  0.0733 -0.0159
19742W        W34873   5.978   8.322  14.257  0.1770  0.1348 -0.1967
19743W        W34874   4.162  17.720  13.758  0.1623 -0.1362 -0.2526
19744W        W34875  10.618   7.750   1.198  0.0427 -0.3428  0.2352
19745W        W34876   3.979   2.596   0.714  0.4303 -0.1284  0.1403
19746W        W34877   5.033  10.777   4.016 -0.0519  0.2282 -0.1113
19747W        W34878   5.934  12.888  14.940  0.3070  0.1627  0.1949
19748W        W34879  15.003   0.350  14.503  0.0605 -0.2703 -0.0138
19749W        W34880   5.424   8.289  15.562 -0.1674  0.1215 -0.0217
19750W        W34881   1.171  16.681   0.796  0.0588  0.0593 -0.2738
19751W        W34882   2.674   1.134   0.598 -0.2829  0.3004  0.2839
19752W        W34883   9.874   4.579  15.584 -0.1119 -0.1558 -0.0397
19753W        W34884   5.974  15.807   4.429  0.3756 -0.1383  0.0971
19754W        W34885  17.065   8.302   2.614 -0.0798  0.0468 -0.0489
19755W        W34886  11.215  10.594   2.410  0.0067 -0.2030 -0.3008
19756W        W34887  13.069  17.014  14.453 -0.1557 -0.2695 -0.2319
19757W        W34888   1.367  16.911   2.076  0.1474  0.1062  0.3462
19758W        W34889   3.448   8.453  10.840  0.1126  0.2928 -0.1932
19759W        W34890   1.220   6.118   2.830  0.0918  0.1340  0.0566
19760W        W34891   3.467  16.880  13.101  0.0212 -0.1686 -0.0373
19761W        W34892  11.731   3.181   5.174  0.0556 -0.3348 -0.1790
19762W        W34893  10.596   0.550  13.382  0.3390  0.2689  0.1998
19763W        W34894  14.452  14.850  11.114  0.3030 -0.2888 -0.0749
19764W        W34895  17.753   2.870  13.625  0.1526 -0.0970  0.1976
19765W        W34896   5.801  16.906  11.810  0.1579  0.2261  0.0989
19766W        W34897  11.876  13.880  11.946  0.0936 -0.0890 -0.4112
19767W        W34898  14.547   0.626  11.043 -0.2157 -0.3809 -0.2584
19768W        W34899   4.777  12.059  14.906 -0.0246 -0.2476 -0.0319
19769W        W34900   0.848  10.573  15.290 -0.0176 -0.0006 -0.2868
19770W        W34901   0.388   5.829   0.502 -0.0850  0.3620  0.0212
19771W        W34902  11.864   0.313  14.745 -0.0481 -0.2663  0.0747
19772W        W34903   8.573   8.455   5.610 -0.2121 -0.2227  0.1182
19773W        W34904   3.998   0.036  15.317  0.0392  0.0111 -0.3312
19774W        W34905   0.370  13.643   2.465  0.1862 -0.1602 -0.1050
19775W        W34906  14.181  14.444  10.737 -0.3775 -0.1295 -0.1059
19776W        W34907  16.122  12.765   3.331 -0.3168  0.2570  0.1078
19777W        W34908  11.541  15.441   4.252  0.1252  0.0026 -0.1654
19778W        W34909   0.958   8.374   2.925  0.1483  0.0111 -0.0471
19779W        W34910   7.757  12.805  13.677 -0.3128  0.2525  0.0831
19780W        W34911  15.427  10.266   2.470  0.2726  0.2033 -0.0984
19781W        W34912   5.416   9.995  11.193 -0.2417 -0.1510  0.1314
19782W        W34913  11.996   4.403   1.112  0.3311 -0.0088  0.0874
19783W        W34914  12.247   5.438  15.388 -0.2409 -0.1770 -0.0264
19784W        W34915  10.664  13.868   3.800 -0.0241  0.1304 -0.2740
19785W        W34916  15.764  16.094  13.185  0.0835 -0.0223 -0.0843
19786W        W34917  13.917   7.090  10.407 -0.3096 -0.0726  0.0079
19787W        W34918  10.865  17.892   3.860 -0.2588 -0.0879  0.3784
19788W        W34919  17.119   3.467  15.584 -0.0880  0.0028  0.1743
19789W        W34920  14.946   3.312   4.493 -0.2178  0.1036  0.0258
19790W        W34921  18.255   1.864   3.413  0.0411  0.2160  0.1397
19791W        W34922   1.900   3.750   4.612 -0.0570 -0.0761 -0.1592
19792W        W34923   3.571   2.390   4.108  0.3056 -0.0449  0.0547
19793W        W34924  10.231  14.527   0.376 -0.1149  0.0247  0.0339
19794W        W34925  14.671  18.065  11.421  0.1032 -0.1437 -0.1358
19795W        W34926   6.502  16.725   4.484 -0.0925 -0.2467 -0.1515
19796W        W34927   5.172  11.488   1.975  0.1440  0.0943 -0.2036
19797W        W34928   3.636  12.224   0.467 -0.0340  0.0306  0.0604
19798W        W34929  15.266  15.134  12.015 -0.0828  0.0315 -0.0321
19799W        W34930   4.393  15.947  13.236 -0.2062  0.2334 -0.0458
19800W        W34931   3.290  12.423  15.173  0.0247 -0.1121 -0.0792
19801W        W34932   0.010   3.515   1.995 -0.0502 -0.4804 -0.2759
19802W        W34933   2.191  10.646   4.364 -0.0961 -0.2020  0.0428
19803W        W34934  17.438   1.567   3.343  0.1512 -0.1374  0.1026
19804W        W34935  17.132  16.622  10.360 -0.2883  0.2008 -0.3943
19805W        W34936  14.053   2.288   2.196 -0.2828 -0.1356  0.0907
19806W        W34937   0.317   7.818  13.866  0.1431 -0.1421  0.7441
19807W        W34938   7.834  17.626   0.539  0.0383  0.2318 -0.2702
19808W        W34939  15.077   8.498   1.883  0.0237 -0.1281 -0.0196
19809W        W34940  13.340   3.922   1.017 -0.0525 -0.2405 -0.3111
19810W        W34941  12.845   0.303   0.613  0.4195  0.0549 -0.1433
19811W        W34942   4.748  17.696   4.899  0.3273 -0.1391  0.1909
19812W        W34943  12.380   5.042   2.179  0.0498 -0.3633  0.2871
19813W        W34944   9.464  14.995  13.846 -0.2403  0.3238  0.2105
19814W        W34945  17.290   4.321   4.248  0.3333 -0.0922 -0.1906
19815W        W34946   6.251  13.913   1.299  0.0793 -0.2636  0.2019
19816W        W34947   4.490   2.928   3.524  0.1826 -0.0854 -0.0525
19817W        W34948  11.153   6.427   2.465 -0.2568 -0.3015  0.0863
19818W        W34949   1.399  14.352  14.028 -0.1760  0.1300 -0.1585
19819W        W34950  10.748  10.062   0.949  0.0863  0.1614  0.0037
19820W        W34951  17.244  10.005   3.906  0.2900  0.1807 -0.2231
19821W        W34952   6.096   5.848  13.217 -0.2835  0.1586  0.0218
19822W        W34953  17.786  14.715  14.594  0.1404  0.4917  0.0489
19823W        W34954   4.773   6.874   1.050 -0.0482 -0.0152  0.1462
19824W        W34955  15.589   2.727  13.773 -0.0094 -0.0774  0.3267
19825W        W34956  14.837  15.702   4.736 -0.2096 -0.2229 -0.3171
19826W        W34957  14.950   0.586  13.965 -0.0657 -0.0121  0.2233
19827W        W34958   6.489  10.380  10.970 -0.1389  0.0822 -0.0729
19828W        W34959  15.174   6.601   0.682  0.4818  0.0207 -0.0120
19829W        W34960   0.325  10.406   3.938  0.2994  0.1870  0.1481
19830W        W34961  17.018   8.105  12.625  0.1911  0.1608 -0.1099
19831W        W34962   0.858   0.885   0.087  0.1797 -0.2595 -0.1107
19832W        W34963  11.562  11.156   0.534  0.4502  0.3036 -0.0490
19833W        W34964   8.317   7.726   0.262  0.2628 -0.1066  0.2177
19834W        W34965  11.173   7.111   1.692 -0.2719 -0.2951  0.1309
19835W        W34966   9.387   5.474   4.874 -0.4655  0.1392 -0.1245
19836W        W34967  15.907  13.875   4.943  0.1241 -0.0576 -0.1966
19837W        W34968  14.013   7.863   2.393 -0.0312  0.0769  0.0137
19838W        W34969   7.510   0.489   6.333  0.1968 -0.2705  0.3941
19839W        W34970   2.906   2.912  10.100  0.1390 -0.0889 -0.0611
19840W        W34971   8.219  15.201  14.238 -0.2296 -0.1481  0.1576
19841W        W34972  14.545  18.470   1.675 -0.1254 -0.2976 -0.0189
19842W        W34973   4.045   5.638   5.713  0.2123 -0.3073  0.1238
19843W        W34974  16.069   0.720   0.477 -0.1369 -0.0778  0.0006
19844W        W34975  17.524  16.934   1.901 -0.3017  0.1025 -0.0826
19845W        W34976  14.969   8.301   3.914  0.4047 -0.0040 -0.1113
19846W        W34977  16.003  13.632  13.616  0.1566 -0.0575  0.0304
19847W        W34978  16.650   1.342  11.327  0.2244 -0.0521  0.1055
19848W        W34979   7.226   2.889  14.660 -0.0431 -0.2800  0.0673
19849W        W34980  10.572   6.658   2.404  0.1274  0.0508 -0.0986
19850W        W34981   2.708   3.448  13.370 -0.0720  0.0966  0.1159
19851W        W34982   6.424   1.102   2.290  0.1558  0.1038 -0.0508
19852W        W34983  11.124  16.047  14.450 -0.2947 -0.0505  0.2469
19853W        W34984  12.063  11.538   3.676 -0.0824 -0.0226 -0.0232
19854W        W34985   5.437   2.149  13.037  0.1136 -0.4339 -0.4720
19855W        W34986   1.529  18.372  12.834  0.0130  0.3317  0.3221
19856W        W34987   9.814   9.257   0.188  0.1057 -0.0115 -0.0825
19857W        W34988   1.752   3.103   5.361  0.1126 -0.0607  0.3550
19858W        W34989   6.046  15.600  12.557  0.1029  0.3437 -0.1774
19859W        W34990  16.026  18.067   2.931  0.2527  0.3734  0.2306
19860W        W34991   9.618   6.564   4.329 -0.1618 -0.2277 -0.2712
19861W        W34992   8.819   6.375  12.053 -0.2169 -0.0008  0.0455
19862W        W34993  18.430  10.650  15.692  0.0640  0.2063  0.0237
19863W        W34994  12.755  10.327   4.994  0.1042 -0.2122  0.2248
19864W        W34995   1.900  16.560  11.205 -0.0580 -0.3690 -0.1289
19865W        W34996  15.870   7.449  15.747 -0.1546  0.0536 -0.2652
19866W        W34997  13.109   8.514  11.567 -0.1942 -0.1125 -0.0581
19867W        W34998   3.584   4.193   1.263  0.3648 -0.2712  0.1913
19868W        W34999   5.347   8.626  13.799 -0.0733  0.0212  0.2298
19869W        W35000   7.194  14.041   3.781  0.4116  0.0632  0.1834
19870W        W35001   2.190   9.012  11.820 -0.1105  0.1273  0.1649
19871W        W35002  13.973   0.289  14.946  0.5647 -0.2284  0.0040
19872W        W35003  10.625  15.483   3.990  0.1213  0.3894 -0.1449
19873W        W35004  10.534  13.335   1.389 -0.0169  0.2758  0.3157
19874W        W35005   4.287  17.505   5.468 -0.0174 -0.0042 -0.0179
19875W        W35006  15.134   0.349   1.214  0.1627 -0.2299 -0.0787
19876W        W35007   8.537   4.735   2.223 -0.1163  0.0530 -0.2619
19877W        W35008   6.696  13.755   0.425  0.0207  0.1042  0.0279
19878W        W35009   3.395   5.358   2.237  0.0389 -0.1700 -0.0365
19879W        W35010  10.965   1.793   3.014 -0.1556 -0.0845  0.0072
19880W        W35011  11.053   0.253  11.940 -0.0349  0.0415  0.0266
19881W        W35012   0.954   1.985   2.102 -0.1014  0.0938 -0.1074
19882W        W35013  12.509  15.975   1.358  0.2548 -0.1652  0.1955
19883W        W35014   6.092  14.417  14.054 -0.1316  0.0659  0.1121
19884W        W35015  15.030  17.652  12.316 -0.3620 -0.1076  0.1163
19885W        W35016  15.365   0.908  15.648  0.0939  0.1143  0.3325
19886W        W35017  17.813  18.456   1.611 -0.0887  0.3047 -0.0737
19887W        W35018   5.160  13.557   1.847 -0.0179 -0.1182  0.0734
19888W        W35019   8.100   9.627   5.038  0.2163  0.1859  0.2162
19889W        W35020  15.157   1.551   4.507  0.3255 -0.3073 -0.3378
19890W        W35021   5.909   0.838   1.967 -0.0274 -0.0673 -0.1343
19891W        W35022   9.347   2.122  13.763  0.2056  0.3781 -0.3911
19892W        W35023  12.882   6.001  13.504  0.0445  0.2766  0.2581
19893W        W35024  16.119  14.159  10.400  0.1127  0.2310  0.1047
19894W        W35025   6.214  16.011   2.838 -0.1765  0.0627  0.2464
19895W        W35026  10.786  16.298  11.605  0.1761 -0.0001 -0.1163
19896W        W35027   4.274   3.693   2.551  0.0497 -0.0071  0.2450
19897W        W35028   7.230  13.238  12.153 -0.1134 -0.1603 -0.0994
19898W        W35029  14.851  16.285   9.908 -0.0456 -0.1351 -0.2015
19899W        W35030   3.574   9.266   4.477  0.0051  0.0993  0.3691
19900W        W35031  17.889  16.530   1.305  0.4684  0.2352 -0.0589
19901W        W35032   4.974  13.258  15.117  0.2431  0.3666 -0.0467
19902W        W35033   3.254   2.450  12.331  0.0753 -0.0896 -0.0389
19903W        W35034   1.321  18.339   0.980 -0.0226 -0.3008 -0.0275
19904W        W35035   6.321   6.278  11.395 -0.4016 -0.0359  0.0756
19905W        W35036   1.186  16.389   3.794 -0.0751  0.0175 -0.0851
19906W        W35037  17.656  18.036   2.157  0.2441  0.2324 -0.0571
19907W        W35038   1.179  16.415  11.946  0.0370 -0.2435 -0.0304
19908W        W35039   9.892  15.935   3.802  0.2028 -0.0545  0.0070
19909W        W35040   1.392   9.921  15.728  0.1851 -0.1370 -0.0197
19910W        W35041   7.234   6.436   0.170  0.1539  0.1324 -0.0455
19911W        W35042   2.950  12.485   2.023  0.1241 -0.3107  0.2257
19912W        W35043   9.256   5.465  11.832  0.2095 -0.3555  0.1787
19913W        W35044  10.243   2.020  14.949  0.0166 -0.0555  0.1758
19914W        W35045  14.350   3.307  10.741 -0.1954  0.0334 -0.0169
19915W        W35046   6.159   9.102  10.831  0.3348 -0.6824 -0.0930
19916W        W35047   7.570  12.359  13.599 -0.0626 -0.1739 -0.2052
19917W        W35048   2.988   1.446  12.610  0.1578  0.0847 -0.1356
19918W        W35049   0.912  11.810   2.157  0.1677  0.4255  0.1938
19919W        W35050   5.863   7.597   0.981  0.1768 -0.0730 -0.0568
19920W        W35051   3.612   4.047   5.070 -0.2101  0.0894  0.2536
19921W        W35052   1.630  17.990  11.200  0.2287 -0.0936  0.1101
19922W        W35053   0.218  16.717  13.449  0.2028  0.0878  0.1982
19923W        W35054  14.088   5.638  12.937  0.2169 -0.4547 -0.2712
19924W        W35055  16.175  11.868   3.579  0.1587  0.4781  0.0881
19925W        W35056   3.152  12.701  12.016 -0.0884  0.0778  0.2869
19926W        W35057   5.933  14.271  11.319 -0.1078 -0.0573 -0.0109
19927W        W35058   2.921  18.164  13.433  0.0340  0.1874 -0.3201
19928W        W35059   4.775  18.681   0.218  0.2835 -0.1307  0.3333
19929W        W35060  14.101   3.451  14.288 -0.0769 -0.0991  0.1213
19930W        W35061   7.521   4.424   3.603 -0.1669  0.2100 -0.1947
19931W        W35062   8.934  16.267   4.991  0.0919 -0.2331  0.0075
19932W        W35063   3.759   2.885   1.573  0.2611  0.3577 -0.2300
19933W        W35064  16.995   4.579  13.911  0.2026  0.4569 -0.2927
19934W        W35065  11.289  10.300  10.017 -0.0105  0.4769  0.0240
19935W        W35066   6.880   4.442   0.046  0.0849  0.0906  0.0354
19936W        W35067   1.698  12.393   2.458  0.1775 -0.0416 -0.1828
19937W        W35068  17.686  14.391   2.940 -0.2203 -0.1990 -0.0124
19938W        W35069   2.025  17.579  10.802 -0.4288 -0.1059  0.2451
19939W        W35070  18.177  10.108  13.548 -0.0477 -0.3869  0.0961
19940W        W35071   6.416  12.789   1.975  0.1184  0.2278 -0.2258
19941W        W35072   1.571  16.099  11.931 -0.2328  0.2183 -0.1241
19942W        W35073  15.826  15.157  14.396 -0.1569 -0.1020 -0.3409
19943W        W35074  12.424  10.415   2.935  0.0613 -0.1366  0.0837
19944W        W35075   3.804  17.632   0.463 -0.1799 -0.1627  0.0494
19945W        W35076   1.596  12.996  12.439 -0.3195  0.2350  0.0134
19946W        W35077   7.779   0.125   0.461 -0.2027  0.0841 -0.0566
19947W        W35078   4.225  18.257   1.606  0.2262  0.0676  0.0725
19948W        W35079   6.520  18.529  11.619  0.5531 -0.0449  0.1582
19949W        W35080  11.791   6.454  14.906  0.0337 -0.0075  0.0291
19950W        W35081   4.219  15.463   2.706  0.0176  0.3365  0.3321
19951W        W35082   8.428   9.062  13.021  0.2898  0.0189 -0.0598
19952W        W35083   4.277   5.922  14.475  0.0671  0.0003  0.2574
19953W        W35084  12.176   2.903  15.439  0.3514 -0.2112  0.1383
19954W        W35085   9.697   6.374   2.057 -0.0215  0.0560 -0.2231
19955W        W35086  13.849   1.651   0.905 -0.0775 -0.1903  0.0577
19956W        W35087   3.400   8.211  15.190  0.0647  0.1018  0.2369
19957W        W35088   9.730  11.742   2.881  0.1420  0.1212  0.4529
19958W        W35089   9.728   5.641  14.746 -0.1045 -0.0661 -0.0866
19959W        W35090   7.023   1.759  10.961 -0.2004 -0.0218  0.1670
19960W        W35091   1.022   8.624   4.665 -0.0223 -0.3036  0.0288
19961W        W35092  12.518  10.231  15.068  0.0481 -0.0389  0.1226
19962W        W35093   9.245   2.307  10.919  0.2502 -0.1800 -0.1854
19963W        W35094   2.221   4.608  12.170 -0.1576  0.0090 -0.0140
19964W        W35095  11.909  16.725  12.444  0.0822  0.2511  0.4298
19965W        W35096  12.011   3.944  11.121  0.2445 -0.0142 -0.0131
19966W        W35097  12.164   3.684   4.501 -0.0882 -0.1557 -0.1226
19967W        W35098   6.518  12.972   4.305 -0.0428 -0.1251  0.1648
19968W        W35099  10.272  14.313  10.788 -0.1789  0.1787 -0.1456
19969W        W35100  10.653   1.513   5.341 -0.0222 -0.2228 -0.0684
19970W        W35101  10.403   5.509   1.336 -0.0013  0.2363  0.0872
19971W        W35102  11.048   6.367   4.029  0.4451 -0.0241  0.1365
19972W        W35103   1.895   7.977  10.557  0.2615 -0.0133 -0.1737
19973W        W35104   2.916   7.585  14.012 -0.1982 -0.3240 -0.0392
19974W        W35105  18.355   7.463   2.162 -0.2108  0.0192 -0.1417
19975W        W35106  13.963   5.583   4.418 -0.2943 -0.0796  0.2223
19976W        W35107  11.381   2.057   2.976 -0.1575  0.2871  0.0391
19977W        W35108   0.703   8.390   1.644  0.0598  0.1472 -0.1385
19978W        W35109   5.639   7.752  14.084 -0.0313  0.1381 -0.5111
19979W        W35110  17.222   8.007   5.045  0.7084  0.0775 -0.0364
19980W        W35111  12.266   6.115  10.136 -0.1307  0.1282  0.3031
19981W        W35112   0.813  16.501   5.663  0.0947 -0.1997  0.1732
19982W        W35113  10.693   0.967   3.089 -0.2735 -0.0724  0.0077
19983W        W35114  15.203   8.331  14.522  0.2350 -0.2033 -0.2386
19984W        W35115  15.970   0.651  10.778  0.1450  0.1113 -0.2545
19985W        W35116  15.735  16.616   3.430 -0.1222  0.0805 -0.1552
19986W        W35117   7.625   0.618  15.046 -0.1983 -0.0199  0.0569
19987W        W35118  12.824  16.269   3.760 -0.1895 -0.1433  0.4709
19988W        W35119   1.270   5.948   0.058 -0.2205 -0.2343 -0.5213
19989W        W35120  17.136  13.787  13.766  0.1084  0.0247  0.3742
19990W        W35121  16.583   3.649   2.227 -0.0332  0.3045  0.0576
19991W        W35122  13.699  15.901  14.738  0.0672  0.4452  0.0423
19992W        W35123  11.367  16.803   0.640 -0.0691  0.1776 -0.2721
19993W        W35124   3.033  14.173  14.559 -0.1996 -0.0092 -0.0604
19994W        W35125  11.443  13.982  12.690 -0.1865  0.0669  0.0906
19995W        W35126   8.480  14.615   0.164  0.2075 -0.2094 -0.0230
19996W        W35127   3.376  10.653   2.753 -0.1049 -0.0944 -0.0088
19997W        W35128   0.995  16.173  12.577  0.1087 -0.1159  0.0784
19998W        W35129  13.494  13.089  11.366 -0.0066  0.0576  0.0810
19999W        W35130  11.071   6.130   3.312  0.0326  0.2758  0.1238
20000W        W35131   6.585  11.565  15.077  0.1488 -0.0208  0.1584
20001W        W35132   2.243  14.699   0.954  0.0107 -0.0168 -0.6541
20002W        W35133   3.171  11.561   1.083 -0.0535  0.0343  0.0416
20003W        W35134  11.792   2.401   4.448 -0.1080  0.0294  0.3493
20004W        W35135  11.977  12.284  12.105  0.0904 -0.1994  0.0926
20005W        W35136  16.342  17.603   2.575 -0.0126  0.3285 -0.0159
20006W        W35137   2.556  11.000   4.533 -0.1737 -0.1782  0.0981
20007W        W35138  10.469  17.045  15.181  0.1673 -0.3087 -0.1447
20008W        W35139  12.712   0.451  12.744  0.0915  0.1790 -0.1011
20009W        W35140  16.359  15.613  12.395  0.1600  0.1248  0.3239
20010W        W35141   2.577  12.044   2.725 -0.2603  0.3695 -0.1723
20011W        W35142  14.211  13.306  12.132  0.1145 -0.2589  0.2855
20012W        W35143   0.385   6.723   1.424 -0.1650  0.3581  0.3217
20013W        W35144   2.726  14.715   2.818  0.0540  0.2040  0.0499
20014W        W35145   8.362   6.820   0.438 -0.1489 -0.0180  0.1424
20015W        W35146  11.285  11.635   0.706 -0.0956 -0.1113  0.2413
20016W        W35147   9.631  16.870  14.008 -0.4209 -0.1360  0.0383
20017W        W35148  13.205  13.896  11.783 -0.2342 -0.1245 -0.1998
20018W        W35149  11.537   1.542   3.781 -0.0605  0.1409  0.3130
20019W        W35150   0.768   6.625  12.575  0.1567 -0.1202 -0.0331
20020W        W35151  15.243  17.693  12.822 -0.0229 -0.1646 -0.3118
20021W        W35152  17.051   0.654   2.845 -0.1364 -0.0712 -0.3228
20022W        W35153   3.737  17.750  10.235 -0.3302 -0.1064  0.2252
20023W        W35154  15.185   1.012   2.936 -0.2197 -0.0162 -0.1819
20024W        W35155  11.780  15.003  15.187  0.2103 -0.0712 -0.3499
20025W        W35156   8.391  11.759   0.045 -0.0536  0.0888 -0.1111
20026W        W35157   4.813   6.318  14.910  0.3525 -0.3054  0.0858
20027W        W35158  10.376   2.254   2.489  0.0690 -0.1788 -0.0344
20028W        W35159  13.836  10.355  12.510 -0.3859 -0.3640  0.0395
20029W        W35160   2.394   2.126  10.713 -0.2623 -0.0105 -0.2237
20030W        W35161  13.907   2.469   4.937  0.1779 -0.0929 -0.0551
20031W        W35162  11.347  12.111   4.576  0.0952 -0.1222 -0.0802
20032W        W35163  12.436   3.130   3.691  0.1193 -0.0082 -0.0846
20033W        W35164   0.098  17.128  11.157  0.1732  0.0036  0.0760
20034W        W35165   1.030   0.362   3.243 -0.0431  0.0815 -0.1185
20035W        W35166  14.909  14.506  12.671 -0.1171  0.2248  0.0715
20036W        W35167  18.090   8.090   0.813  0.0191  0.0363  0.0747
20037W        W35168  10.945  18.699   3.283  0.0201  0.2019  0.1037
20038W        W35169   7.900  14.573  11.981 -0.1618 -0.1234 -0.2194
20039W        W35170  12.208   2.662  13.654  0.0738 -0.2082 -0.2656
20040W        W35171   2.258  15.928   1.378  0.1306 -0.1668  0.1445
20041W        W35172   4.019  12.881   4.703 -0.1578  0.1179  0.2489
20042W        W35173  16.050   7.156  12.569 -0.2372 -0.0830 -0.3341
20043W        W35174   8.178   9.450  10.947  0.1875  0.0341  0.1363
20044W        W35175   7.571   5.692  13.837 -0.0777 -0.1476 -0.1736
20045W        W35176  10.500  12.372   4.955 -0.3543  0.2115  0.1752
20046W        W35177  11.688   3.544  11.087  0.3263 -0.0361  0.0822
20047W        W35178   9.704  18.232  12.811  0.1770  0.1115  0.1443
20048W        W35179  12.517  10.742   1.515 -0.0653 -0.5109  0.2283
20049W        W35180  14.219   7.169   2.739 -0.2306 -0.1249 -0.3538
20050W        W35181  14.011  12.601   4.602  0.3544  0.0067  0.0912
20051W        W35182   0.464  15.124   5.458 -0.0113  0.0820 -0.4524
20052W        W35183  13.420  11.848  14.378 -0.2288  0.1091  0.3479
20053W        W35184  10.642   1.135  12.726 -0.1501 -0.1239  0.3573
20054W        W35185   1.021   2.816  11.207  0.1694  0.1058  0.0134
20055W        W35186  18.399  14.212  13.136 -0.0727  0.1818  0.0914
20056W        W35187  14.857   4.185   0.325  0.0700 -0.0151  0.1970
20057W        W35188   6.202   8.457   3.530  0.2047  0.2282  0.3456
20058W        W35189  16.248   3.826  13.500  0.2238 -0.0637 -0.0333
20059W        W35190  17.323   1.598  11.226  0.4035  0.1294 -0.0253
20060W        W35191  11.025  10.362  11.843 -0.0371 -0.1901  0.2441
20061W        W35192   2.800   5.728   2.053 -0.1677 -0.0245 -0.0373
20062W        W35193  11.738   2.683  10.961  0.2092  0.2335 -0.1869
20063W        W35194  11.429   0.779  12.391  0.3399  0.3032 -0.0624
20064W        W35195   8.336  14.176  14.685 -0.0472  0.0315  0.1925
20065W        W35196   5.759   0.558  15.309 -0.0501 -0.0941 -0.4207
20066W        W35197   5.506  13.280  11.303  0.0937 -0.2608  0.2043
20067W        W35198  13.844   8.723  10.745 -0.0670 -0.0210 -0.1022
20068W        W35199  12.981   2.851   4.769  0.0177 -0.1193  0.0129
20069W        W35200   5.728   4.912   6.070 -0.0113  0.1583 -0.1576
20070W        W35201   0.557  12.013  11.383  0.1804  0.0069 -0.0609
20071W        W35202  10.762   2.013   1.280 -0.0463  0.1932  0.0388
20072W        W35203   3.169   8.626   3.919  0.2849 -0.1082  0.1883
20073W        W35204  13.755   6.987   2.167  0.1007 -0.1209 -0.2366
20074W        W35205   2.568   7.770   4.655 -0.2261 -0.0359  0.3094
20075W        W35206   5.125  17.922  15.551 -0.3509  0.2107 -0.1367
20076W        W35207  18.394  18.181   3.767 -0.0317  0.4496 -0.2205
20077W        W35208  17.717  17.106   0.788 -0.1115  0.0639 -0.3083
20078W        W35209  16.837   9.467  10.483 -0.2796  0.3348  0.2275
20079W        W35210  17.576  12.679  14.037 -0.2353 -0.0507  0.4817
20080W        W35211   9.298   3.806  11.742  0.3118  0.1607  0.1495
20081W        W35212  18.439   2.583   2.531  0.1125 -0.1957  0.1750
20082W        W35213  14.832   4.618   4.271 -0.0535 -0.1858  0.3173
20083W        W35214   2.092   1.981   4.981  0.2034  0.0521  0.1111
20084W        W35215   1.469  14.664  12.302  0.3324 -0.0468 -0.1466
20085W        W35216   1.514   7.992   0.745 -0.1751 -0.2245 -0.4566
20086W        W35217  13.176   1.521   5.496  0.0897 -0.1442 -0.1371
20087W        W35218  17.031   8.141   3.224 -0.0818  0.0574 -0.2211
20088W        W35219   3.742   8.806  11.014  0.0842 -0.0886  0.0955
20089W        W35220   8.144   8.950   0.999  0.0981  0.0943  0.3480
20090W        W35221   6.882   8.417  13.759 -0.1545 -0.3310 -0.1830
20091W        W35222  13.140   0.065  15.541 -0.2035  0.1522 -0.1197
20092W        W35223  14.588   9.467   4.773 -0.2148 -0.1130  0.0683
20093W        W35224  13.199   6.155   1.936  0.3983 -0.5333  0.1088
20094W        W35225   0.622  12.071  12.240 -0.2727  0.2873  0.0245
20095W        W35226  14.167  16.981   4.419 -0.2071  0.0349 -0.1938
20096W        W35227   5.061  15.624  12.828 -0.1592 -0.0089 -0.2308
20097W        W35228   7.013   4.426   4.754 -0.1148  0.2140 -0.1364
20098W        W35229  15.255  12.005  15.716 -0.0459  0.4224  0.1694
20099W        W35230   1.935   3.039  13.088  0.4124 -0.3190 -0.2691
20100W        W35231  11.889  16.108  13.377  0.0635 -0.2819  0.3069
20101W        W35232   7.554  10.818   0.833 -0.0816 -0.0041 -0.0675
20102W        W35233  10.225   1.245   1.206  0.0866 -0.0397  0.2652
20103W        W35234  14.124   2.964  15.724 -0.3384  0.2782  0.4012
20104W        W35235  13.203  17.355   3.360  0.0099  0.3239 -0.0730
20105W        W35236   1.049   3.943  13.383  0.0514  0.0128 -0.1481
20106W        W35237   4.821   1.183  15.101 -0.1823 -0.1016  0.2975
20107W        W35238   2.284  18.485  11.870  0.0458  0.0554 -0.1473
20108W        W35239   1.619   4.166   4.668  0.0535  0.3492 -0.4539
20109W        W35240   2.175   7.742   3.303  0.0915  0.5149  0.2179
20110W        W35241  15.098   8.406   1.421 -0.1472  0.2492  0.1266
20111W        W35242  11.826   2.712   1.455  0.1583 -0.0658 -0.1187
20112W        W35243  11.105  13.772   2.240  0.1210 -0.0181 -0.1540
20113W        W35244  12.775   9.099   2.404 -0.1394  0.0013 -0.0850
20114W        W35245  15.524   7.349   5.748 -0.2370 -0.3727 -0.1137
20115W        W35246  13.457  17.069   9.998  0.1411 -0.2508  0.3426
20116W        W35247  15.236   9.810   1.941 -0.0748 -0.2081 -0.1880
20117W        W35248   1.481   3.673  14.216  0.0413  0.1094 -0.2251
20118W        W35249   8.942  10.719   0.726  0.1835 -0.2075 -0.1868
20119W        W35250   9.330  13.505   3.395  0.0468  0.2616 -0.1219
20120W        W35251  18.128   0.470   0.227 -0.1022 -0.1257 -0.0798
20121W        W35252  10.835   5.016  15.771 -0.3576  0.0450  0.0655
20122W        W35253  10.839  11.649  11.263  0.1195  0.1405 -0.1916
20123W        W35254  16.248  17.392  14.513  0.0123 -0.2524  0.1910
20124W        W35255  13.097   7.722  15.663 -0.0681  0.0682 -0.0750
20125W        W35256   4.700   5.116  11.280 -0.0854  0.0974  0.1344
20126W        W35257  12.254   9.180   5.180  0.1322  0.0993  0.2789
20127W        W35258   3.932   7.724  13.660  0.1548 -0.1729  0.1197
20128W        W35259   2.774   7.250  14.884 -0.3403  0.3560 -0.0886
20129W        W35260   3.134   6.564  12.989 -0.0534  0.0582  0.1466
20130W        W35261   8.033  13.783  15.031 -0.3281 -0.1420  0.0755
20131W        W35262   5.078   6.164   4.978  0.0051  0.0924 -0.0279
20132W        W35263  11.917  18.469   4.834  0.0798  0.0704 -0.1913
20133W        W35264  15.416  14.087   4.088  0.0808  0.2217 -0.0540
20134W        W35265   8.534   2.110   5.990  0.2782  0.2792 -0.2020
20135W        W35266  15.169  15.555   1.477  0.2116 -0.2485 -0.0559
20136W        W35267   5.328   5.070   2.013  0.0649  0.0174 -0.2035
20137W        W35268   2.030   1.006  12.419  0.3566 -0.2215  0.1992
20138W        W35269  18.226   4.446  11.273  0.1740 -0.3540 -0.1062
20139W        W35270   6.074  11.130   1.738  0.1808  0.0436 -0.0477
20140W        W35271   5.710   6.786   0.347 -0.1034  0.1303  0.2418
20141W        W35272  17.406  12.540   4.486 -0.1229 -0.1312  0.0843
20142W        W35273  18.444   0.971   3.344  0.1413  0.1262  0.0256
20143W        W35274   9.369  10.196  15.296 -0.0968 -0.1927  0.0030
20144W        W35275   0.071  11.356   0.983  0.0539 -0.2760 -0.1141
20145W        W35276  17.011   2.157   4.444 -0.2784  0.0163  0.2149
20146W        W35277  10.582   4.605  11.726 -0.0618  0.0092  0.3064
20147W        W35278  18.407   4.599  15.442 -0.3204 -0.1361  0.3405
20148W        W35279   4.655   7.924   0.420 -0.0500  0.2638 -0.1868
20149W        W35280  14.583   6.588   1.103 -0.1759 -0.0510 -0.4120
20150W        W35281  13.242  17.315   2.349 -0.1561  0.0982 -0.0083
20151W        W35282   4.570   0.473   6.030 -0.0807 -0.2542 -0.0669
20152W        W35283   0.843   6.066  15.687 -0.2656  0.0648 -0.0117
20153W        W35284   2.211   7.024  12.196 -0.0450  0.0151  0.1205
20154W        W35285   4.735  17.324  13.030  0.2432  0.0260 -0.1457
20155W        W35286   8.650   1.285   2.787 -0.0044  0.3099  0.1830
20156W        W35287   3.305  12.781   0.230  0.1605 -0.2405 -0.1775
20157W        W35288   5.956  10.732  12.213 -0.2346  0.1149 -0.3483
20158W        W35289   5.897   7.486   3.332 -0.0923 -0.1093 -0.0331
20159W        W35290   2.757   2.306  12.165 -0.0521 -0.1237 -0.2038
20160W        W35291  10.750  12.753  12.216  0.2230  0.4560 -0.1005
20161W        W35292  15.568  12.534  11.211 -0.1870  0.1156 -0.0157
20162W        W35293   5.012  15.949  13.288 -0.2631  0.0927 -0.0917
20163W        W35294  12.962  14.995   5.305 -0.2265 -0.0780  0.3147
20164W        W35295  12.512   2.484   3.815 -0.1284  0.0310  0.0491
20165W        W35296  14.435   4.183   0.663  0.0291  0.2817 -0.1334
20166W        W35297   9.853   4.252   0.816 -0.0949  0.0282  0.1113
20167W        W35298  17.127  17.944  13.153 -0.4671 -0.3685  0.0478
20168W        W35299  17.185   9.873  13.414 -0.1613  0.1429  0.1043
20169W        W35300  10.368   8.088   3.699  0.2957  0.1524 -0.1757
20170W        W35301   5.519   3.943   3.878  0.0006 -0.0528 -0.0815
20171W        W35302   9.145   6.440   4.348  0.1757  0.1452  0.0195
20172W        W35303  13.163  13.905  15.361  0.1506  0.2371 -0.2318
20173W        W35304   9.632   2.807   4.601  0.1810 -0.4751 -0.1827
20174W        W35305   8.400   4.381   3.533  0.0727 -0.2948 -0.0254
20175W        W35306  10.214  12.621   4.229 -0.0034  0.0323  0.1858
20176W        W35307   2.957  12.164   5.246  0.0096 -0.0749 -0.0727
20177W        W35308   6.843   2.070  14.486 -0.2581  0.3165 -0.0583
20178W        W35309  11.358   7.407  12.514  0.1087  0.3105  0.2553
20179W        W35310   2.850  12.054   6.144  0.2122  0.1649  0.0363
20180W        W35311   8.285  16.317   0.375  0.2290 -0.0058  0.0175
20181W        W35312   2.419  10.245   2.560 -0.5207 -0.1526  0.0895
20182W        W35313   7.386  10.516   4.222  0.2702  0.0347 -0.0105
20183W        W35314  12.418   5.021   0.500  0.0078  0.0740 -0.1177
20184W        W35315  14.816  18.098   4.875  0.0705 -0.0332  0.1701
20185W        W35316   4.147   4.379  12.311 -0.0436  0.2815  0.1443
20186W        W35317  15.862   7.660  11.854 -0.0328 -0.0228 -0.1289
20187W        W35318  13.461   7.987  11.685 -0.1545  0.2534 -0.0857
20188W        W35319  15.461  14.196   9.864 -0.0255  0.0371  0.1989
20189W        W35320   5.186   4.701   3.509  0.4058  0.2014 -0.0542
20190W        W35321   8.660  13.127  14.102  0.2223  0.0854 -0.3775
20191W        W35322  15.789  16.272  14.041  0.2372 -0.0920 -0.1204
20192W        W35323  17.332  11.778  10.725  0.3862  0.0350 -0.2725
20193W        W35324  18.489   3.546  13.972 -0.1027 -0.1418 -0.0691
20194W        W35325  11.384   8.479   2.243 -0.1641  0.1045  0.0193
20195W        W35326  12.713   5.615  15.479 -0.0483 -0.0165 -0.2447
20196W        W35327  10.608  13.281  12.366  0.0451 -0.4817 -0.0101
20197W        W35328   6.516  18.171   5.141  0.2651  0.1168 -0.1287
20198W        W35329   8.931   0.640  10.772  0.1252 -0.4018 -0.4158
20199W        W35330  10.655  13.303   5.313  0.1270  0.0258  0.0258
20200W        W35331  15.733  16.697   4.756  0.1059  0.0080  0.1474
20201W        W35332   5.038   7.345  15.016  0.3897  0.0521  0.1765
20202W        W35333  11.392   0.278  12.298  0.1167  0.2033  0.0021
20203W        W35334   6.260   2.932   1.810 -0.1947 -0.1906 -0.0308
20204W        W35335   3.599   2.172   3.108  0.2965 -0.3039 -0.6530
20205W        W35336   8.348  10.148   4.239  0.1648 -0.0128  0.2921
20206W        W35337  16.638  14.816  13.207  0.3139 -0.0715  0.1249
20207W        W35338  17.004   6.023  13.298  0.0663  0.2831 -0.1076
20208W        W35339  12.973   5.990   4.841 -0.1744 -0.2464 -0.3262
20209W        W35340   6.411  13.589   1.708  0.0360 -0.1728 -0.1438
20210W        W35341   3.738   0.279  14.005 -0.1602 -0.1611 -0.0775
20211W        W35342   3.339  13.735   0.568  0.1545  0.1038  0.2682
20212W        W35343   7.919  17.079  15.163 -0.4578 -0.0895  0.1735
20213W        W35344   9.609  11.553  11.995  0.1416  0.0690  0.0473
20214W        W35345  13.245  18.018   0.327 -0.1360  0.6202 -0.0073
20215W        W35346  11.925  12.149   2.757  0.1927 -0.4600 -0.0406
20216W        W35347   5.340  18.532   1.436 -0.4380  0.0150 -0.1947
20217W        W35348  13.750  13.356  13.655  0.0560  0.2847 -0.3262
20218W        W35349  18.033   8.517   4.026  0.1690  0.0939  0.0373
20219W        W35350  15.816  13.538  15.376 -0.0789  0.0140 -0.0026
20220W        W35351  17.353  13.210   2.663  0.1494  0.1904  0.2060
20221W        W35352  15.710  16.075   2.371  0.0991 -0.0768  0.0433
20222W        W35353   3.884  14.288  12.735  0.1195  0.1739 -0.2902
20223W        W35354   0.237   3.470   3.641 -0.1421  0.4336  0.0827
20224W        W35355  13.909  17.406  14.976 -0.0201 -0.1252 -0.4847
20225W        W35356   3.380   5.886   3.968 -0.3714  0.0669 -0.0837
20226W        W35357  18.225   4.027   3.314  0.0806  0.1198 -0.0405
20227W        W35358  13.053   1.745  12.472  0.2517 -0.1024 -0.0753
20228W        W35359   9.738  10.325   3.506 -0.0907 -0.2045  0.1024
20229W        W35360   5.522  14.614  12.549  0.1673 -0.1214 -0.2390
20230W        W35361   9.837  16.765   2.652 -0.0258 -0.0806  0.0466
20231W        W35362   3.025   0.643  11.794 -0.2638  0.0039 -0.3377
20232W        W35363   8.328  10.040  12.852  0.1448  0.5360 -0.1456
20233W        W35364   6.280  15.403  13.647  0.2346 -0.0652  0.0914
20234W        W35365   5.495   8.187   4.099  0.1908  0.2816  0.2738
20235W        W35366   9.515   5.096   2.409 -0.0555 -0.2430  0.2515
20236W        W35367  10.427   7.299   0.982  0.2357 -0.0814  0.0197
20237W        W35368  12.440  11.815  15.639 -0.4233  0.0460  0.1133
20238W        W35369  12.252  12.510  13.057 -0.0443  0.1698  0.3466
20239W        W35370   7.291   4.994  13.134 -0.0228 -0.0245 -0.0917
20240W        W35371  17.177   9.204   0.054 -0.0954 -0.1263  0.1838
20241W        W35372  14.465  17.658   1.766  0.1421 -0.0506 -0.1044
20242W        W35373   5.421  12.462   4.151  0.3809 -0.1114 -0.1179
20243W        W35374   9.546  11.279   4.797  0.1194  0.0918  0.1112
20244W        W35375  11.180  15.244   0.076 -0.0589  0.0576 -0.0861
20245W        W35376  17.528   6.525   4.802  0.1760  0.0624  0.0644
20246W        W35377  18.531   0.247   1.607  0.0399  0.2404  0.0202
20247W        W35378  18.408   2.705  12.481  0.1405  0.3398  0.1838
20248W        W35379   6.838   6.770   4.395  0.0884 -0.1038  0.0095
20249W        W35380   6.858  13.445  11.901 -0.2007  0.1197 -0.0351
20250W        W35381   2.923  15.918  14.962 -0.0203  0.0871 -0.3933
20251W        W35382   6.990  15.845  14.107  0.0996  0.2046 -0.0834
20252W        W35383  16.709   0.031  12.723  0.2093  0.4013  0.0990
20253W        W35384   1.171   8.830  11.032  0.0304 -0.2132  0.0110
20254W        W35385   3.414   1.210   1.463 -0.1558 -0.0223  0.1631
20255W        W35386   7.937  17.544   5.005  0.0249 -0.1809  0.2394
20256W        W35387  12.543  18.694   0.532  0.1873  0.0565 -0.0560
20257W        W35388   7.337   7.823   4.334  0.1268  0.1467  0.2932
20258W        W35389   6.526   2.513   3.251  0.4145 -0.2823  0.0686
20259W        W35390   1.797  13.278   9.712  0.1779  0.1255 -0.0938
20260W        W35391  11.460  12.089  11.730 -0.2037  0.0883 -0.2185
20261W        W35392  13.194  10.185   4.708  0.1831  0.1255 -0.0824
20262W        W35393  15.985  10.560  11.761 -0.0070  0.4456  0.0321
20263W        W35394   3.195   6.838   1.140 -0.0142 -0.0479  0.1346
20264W        W35395   2.401  15.780   0.055 -0.1351  0.1661 -0.0274
20265W        W35396  16.170  17.978   4.833 -0.1876 -0.2445 -0.1746
20266W        W35397   3.982   8.839  12.262  0.0337  0.0987 -0.1761
20267W        W35398  15.620   7.589  15.368 -0.0661  0.1331  0.0229
20268W        W35399  11.284   5.095  14.894  0.3243  0.0892  0.0416
20269W        W35400   6.515  15.520   5.006 -0.1038  0.1601 -0.0984
20270W        W35401   9.338   0.084   1.862 -0.1410 -0.2545  0.1247
20271W        W35402   6.023  13.003   0.832 -0.0033  0.3416 -0.0658
20272W        W35403   6.741  16.242  13.876 -0.0280  0.3022 -0.0046
20273W        W35404   6.204   5.191  11.818 -0.2277 -0.2597 -0.0360
20274W        W35405  14.801   5.408  14.480  0.2588  0.1009 -0.1199
20275W        W35406  15.155  16.263   4.579  0.2464 -0.2367  0.0750
20276W        W35407   8.625  13.439  12.254  0.1658  0.2645 -0.0071
20277W        W35408  14.825  16.737   4.551  0.1252  0.0950 -0.0257
20278W        W35409  16.129   2.214   0.797 -0.1714  0.0032 -0.0331
20279W        W35410   6.344  10.578  15.094 -0.1615 -0.5101  0.1468
20280W        W35411   0.842  12.931   0.215 -0.1805  0.2158  0.3306
20281W        W35412  12.831  11.949   4.712  0.0110 -0.2096 -0.2448
20282W        W35413   4.450   0.333   0.248 -0.1449  0.0077 -0.0321
20283W        W35414  12.141   7.254   1.845  0.1370  0.0276  0.1981
20284W        W35415  14.395   5.929   1.991  0.0499  0.0533 -0.0981
20285W        W35416  12.432   6.149   0.393 -0.0277  0.3628 -0.1087
20286W        W35417   9.582  15.469   4.567  0.2298  0.1895 -0.0935
20287W        W35418   3.028  18.230  13.949 -0.0396 -0.0789 -0.0499
20288W        W35419   0.454   1.124   4.881 -0.1817 -0.1252 -0.3687
20289W        W35420   2.406   9.597   4.384  0.0649  0.1439  0.4450
20290W        W35421   4.349   6.370  10.122  0.3109 -0.3196 -0.3783
20291W        W35422  16.348  13.651   3.926  0.1006  0.0371  0.1109
20292W        W35423   4.113   2.003  10.893 -0.0118 -0.1575 -0.0422
20293W        W35424   9.005  13.819   0.491 -0.3015 -0.0610  0.0315
20294W        W35425   0.966  13.172   2.397 -0.0844 -0.2724 -0.1031
20295W        W35426  16.631   5.900  15.479 -0.0864 -0.2757 -0.1114
20296W        W35427  13.208   7.085   3.004  0.2314  0.1547  0.0525
20297W        W35428  11.922  15.990   3.814  0.0289 -0.0173  0.0587
20298W        W35429  10.005  15.901   4.867  0.2104 -0.1823  0.2171
20299W        W35430   3.763   6.868   5.305 -0.3381 -0.0078 -0.4138
20300W        W35431   1.007  16.059   2.114 -0.2806  0.2293  0.4124
20301W        W35432   2.831  11.152   1.264 -0.2451 -0.0159  0.0521
20302W        W35433   7.222   5.767   4.997 -0.1247 -0.2115  0.0179
20303W        W35434   9.928  13.659  14.574 -0.2516 -0.0354  0.2372
20304W        W35435   5.418   5.935   1.674  0.1631 -0.2760  0.1024
20305W        W35436  16.321   8.932  12.561  0.0108  0.3375 -0.4173
20306W        W35437   4.578  18.159  12.536  0.0726 -0.0400 -0.1712
20307W        W35438   6.370   8.217   4.942 -0.3352  0.3204  0.1960
20308W        W35439   6.475   7.192  10.881  0.2677  0.0583  0.0299
20309W        W35440   6.870   9.315   3.234 -0.0495 -0.2194  0.1641
20310W        W35441  13.498  14.162  13.620 -0.0645 -0.3234 -0.0410
20311W        W35442  13.628   0.046   1.968 -0.1848 -0.2853 -0.0941
20312W        W35443  17.806  18.233  10.488  0.1312  0.5375 -0.1491
20313W        W35444   6.352   7.321   2.665  0.0344 -0.2689  0.0609
20314W        W35445  15.940   8.082   4.751  0.1853 -0.0307 -0.3274
20315W        W35446   1.541  11.171   3.223  0.0384  0.0836  0.0973
20316W        W35447  11.481   1.595  14.572  0.0242 -0.0227  0.1410
20317W        W35448   2.796  11.891   4.260  0.3100  0.0979 -0.3624
20318W        W35449   1.812   2.895  13.616  0.1001 -0.0442  0.0706
20319W        W35450   7.464  18.362   4.652 -0.1999 -0.1233 -0.0963
20320W        W35451   6.051  10.092   3.022  0.3351  0.2396 -0.0058
20321W        W35452   5.051   7.163   1.872  0.1577  0.2241  0.0197
20322W        W35453   9.320   7.843  14.802  0.1118  0.1414  0.2060
20323W        W35454   9.777   2.538   0.905  0.0862 -0.3804 -0.3259
20324W        W35455  13.030   3.439   1.213 -0.0323  0.2862 -0.0740
20325W        W35456   7.140   2.869   3.153 -0.2546  0.0745  0.1078
20326W        W35457   0.681   2.392   4.992  0.1776  0.0378  0.0542
20327W        W35458   4.481   4.063  13.767  0.1474 -0.0775 -0.2221
20328W        W35459  14.249   5.302   5.449 -0.0674 -0.1545  0.1531
20329W        W35460   1.808  12.410   3.840 -0.1355 -0.1433  0.1464
20330W        W35461  13.956   0.884   5.016  0.1923  0.1810 -0.1155
20331W        W35462   1.313   1.550   4.884  0.0181 -0.1199 -0.1172
20332W        W35463   9.848   9.801  11.327  0.0742 -0.1139  0.2699
20333W        W35464   8.356   8.126   3.161 -0.0588 -0.1321 -0.3552
20334W        W35465   1.169  18.424   2.776  0.0401 -0.0273 -0.1320
20335W        W35466  15.684   1.052  14.474 -0.0318  0.0767  0.1028
20336W        W35467   1.042   1.987  10.486  0.3264  0.0330  0.0233
20337W        W35468   3.801   9.300   1.866  0.0566  0.1854  0.2576
20338W        W35469   7.895   3.889  12.138  0.1014  0.0005  0.1137
20339W        W35470  15.260   2.460   0.652  0.5729  0.0243  0.2932
20340W        W35471   9.336   4.304  14.533 -0.0626  0.1270  0.0220
20341W        W35472  18.352  15.265   0.513 -0.3693  0.3700 -0.0371
20342W        W35473  15.167  11.856   5.161  0.4187 -0.2967  0.1102
20343W        W35474  16.307   3.326  12.617  0.1086  0.1363  0.0769
20344W        W35475   1.722   8.581  14.415 -0.0137 -0.2046 -0.1037
20345W        W35476   8.220   5.310   2.173 -0.5197 -0.3574 -0.2323
20346W        W35477  10.144   9.425  11.588  0.0899  0.2866 -0.5133
20347W        W35478  10.613  16.006  14.551  0.0727 -0.0683  0.4581
20348W        W35479   3.462   5.821  12.662  0.0793  0.0778 -0.1443
20349W        W35480   7.305  17.931  13.776 -0.1295  0.0780  0.0634
20350W        W35481   1.334   8.357  14.132 -0.2133  0.1446  0.2682
20351W        W35482   8.092  15.045   4.303 -0.1274  0.3033  0.1849
20352W        W35483   5.264  15.950   5.720 -0.0110  0.0274  0.0923
20353W        W35484   8.412  12.105   5.041 -0.0586 -0.0396  0.0707
20354W        W35485  15.203   6.920  10.500  0.1382  0.4941  0.1369
20355W        W35486  14.021   3.631   3.661 -0.0962  0.1202 -0.3141
20356W        W35487  15.344  14.787   1.162 -0.1008  0.0350  0.0953
20357W        W35488   7.770   6.094  14.017  0.3025 -0.0778  0.1530
20358W        W35489  18.207   5.763  13.662  0.1007 -0.3931 -0.0471
20359W        W35490  10.584   5.272  15.386  0.0097 -0.0270 -0.4047
20360W        W35491  14.436   0.985   4.847  0.2579 -0.0019 -0.0157
20361W        W35492   4.063   7.151   0.317 -0.2504 -0.2348  0.0731
20362W        W35493   2.965  17.350   5.958 -0.1615 -0.1501  0.0306
20363W        W35494  11.912  16.792   1.294  0.0143  0.2670  0.2404
20364W        W35495  14.009  10.425   4.491 -0.0702  0.0976  0.3880
20365W        W35496  15.738   4.862   4.035 -0.4666 -0.4220 -0.0952
20366W        W35497  12.825   0.886   3.132 -0.1528  0.1842  0.1087
20367W        W35498   6.616   7.936  13.475  0.2705  0.0518 -0.2038
20368W        W35499   6.997  13.644   1.938  0.0725 -0.0666 -0.0528
20369W        W35500   9.959   8.966  13.429  0.4161  0.0499  0.1594
20370W        W35501  14.224  13.607  14.865  0.1903  0.1134  0.1993
20371W        W35502  12.962   4.874  13.312 -0.0330 -0.3007 -0.3401
20372W        W35503  12.351   1.180   1.287  0.0546 -0.1431 -0.0297
20373W        W35504  16.031   5.329  11.935 -0.3011 -0.1993  0.2218
20374W        W35505  15.548  11.336  15.647 -0.0943 -0.0031 -0.3071
20375W        W35506   8.853   3.467  10.852 -0.1295  0.4267 -0.4202
20376W        W35507  15.632   1.120   2.159  0.0963  0.1202 -0.0186
20377W        W35508   4.102  15.071  12.809  0.2113  0.3740  0.0582
20378W        W35509   5.875  15.047  14.803 -0.3179  0.1659  0.0043
20379W        W35510  14.037   0.185  13.402 -0.1816 -0.0959 -0.1102
20380W        W35511  14.873   8.715  10.892 -0.0792  0.0733 -0.2037
20381W        W35512  11.471   0.674   2.678  0.2122 -0.1459  0.5187
20382W        W35513   1.958  10.440   3.537  0.0017 -0.0453 -0.2916
20383W        W35514  17.766   4.160  13.774  0.1865 -0.0991  0.0467
20384W        W35515  11.336   5.150   2.758 -0.2775  0.3942  0.2185
20385W        W35516   9.090  13.989   9.921 -0.0400 -0.2536  0.0213
20386W        W35517   9.630   5.876   1.146  0.1237  0.1666  0.1925
20387W        W35518  15.354   8.518   0.457 -0.1510  0.1595  0.1756
20388W        W35519  10.230  16.769  12.091  0.1664  0.0974 -0.0610
20389W        W35520   7.616   0.283   1.970  0.2768 -0.3053 -0.0121
20390W        W35521   1.793   1.135   4.912  0.0650 -0.0711 -0.1767
20391W        W35522   3.220   8.710  15.510  0.1646 -0.0559 -0.0006
20392W        W35523   9.471   2.041   4.358 -0.2479 -0.1299  0.1289
20393W        W35524   8.165  14.490   3.937  0.3037  0.3344 -0.2496
20394W        W35525  17.961   8.511   4.919  0.1456  0.2994  0.1177
20395W        W35526  13.341  14.686  14.264 -0.2728 -0.0289 -0.0462
20396W        W35527   8.246   2.593  11.824 -0.0689  0.0853  0.1874
20397W        W35528   7.170   9.612   3.535 -0.0220 -0.2455 -0.1398
20398W        W35529  18.096  17.209   3.457  0.0818 -0.1574 -0.0993
20399W        W35530  18.048  15.937   0.187 -0.3915 -0.2815 -0.3777
20400W        W35531  14.965   9.820  12.655  0.1323 -0.4882 -0.4246
20401W        W35532   3.101   7.287   0.149 -0.4609  0.0771  0.1064
20402W        W35533  16.883  18.527   2.055  0.0918 -0.1114  0.4303
20403W        W35534  13.031  14.707   3.052  0.0117 -0.1708  0.1404
20404W        W35535  11.598   2.634  12.617  0.3143 -0.0955 -0.0888
20405W        W35536  16.519   7.240  11.895  0.2015 -0.1801 -0.4589
20406W        W35537   4.344   4.867  14.780 -0.0471 -0.4059  0.0854
20407W        W35538  13.093   2.653  15.374 -0.0463 -0.0618 -0.0916
20408W        W35539  18.707  18.414   2.271 -0.1811  0.1682 -0.3157
20409W        W35540   6.369  10.262  14.119  0.0375  0.3010 -0.0489
20410W        W35541  15.004  10.693  12.766  0.2349  0.4193  0.0468
20411W        W35542   8.147   9.798   3.672  0.4963 -0.1205  0.2293
20412W        W35543   4.311   5.275   3.256 -0.0705 -0.2210 -0.0286
20413W        W35544   4.994  17.027   3.064 -0.1469  0.1518 -0.0644
20414W        W35545  18.508   2.997  14.204 -0.1364 -0.2609  0.2151
20415W        W35546  17.538  14.012  15.794 -0.1454 -0.1608 -0.1540
20416W        W35547  17.724   9.756  14.525  0.0959  0.2001  0.1341
20417W        W35548   3.214   0.025  13.976 -0.3414 -0.4004 -0.1819
20418W        W35549  11.297   9.864  10.313  0.1490 -0.0379  0.0856
20419W        W35550   3.210  17.139   2.993  0.2872 -0.0053 -0.0272
20420W        W35551   5.572  17.309   1.863 -0.0521 -0.0181 -0.0406
20421W        W35552  10.930  16.702   4.159 -0.0200 -0.1190  0.1151
20422W        W35553   9.867   5.532  11.045  0.0418  0.3226  0.1607
20423W        W35554  12.474  18.479  13.964  0.1933  0.2081 -0.1846
20424W        W35555  11.360   1.700   2.035 -0.0531 -0.0345  0.2464
20425W        W35556  18.574  18.220   4.277  0.1121 -0.0788 -0.2108
20426W        W35557  11.117  18.576   5.657  0.0717 -0.0006  0.0009
20427W        W35558  10.043  16.255   4.172  0.0326 -0.1851  0.0130
20428W        W35559  11.867   6.774  13.229  0.3160 -0.2295  0.2874
20429W        W35560  18.624   4.369  10.278  0.2181 -0.0807  0.1629
20430W        W35561   1.359   7.221  13.074 -0.1135  0.0723  0.1965
20431W        W35562   2.300   6.696  10.826  0.1958 -0.0434  0.0576
20432W        W35563  16.357  17.928  14.350  0.2078  0.0784  0.0416
20433W        W35564  13.964  16.417   1.370  0.0941 -0.0326 -0.0945
20434W        W35565   7.150  12.843  11.861  0.1994 -0.1871 -0.2450
20435W        W35566   9.369  10.819  10.504  0.0274 -0.0362 -0.1766
20436W        W35567  10.726  15.644   1.029 -0.0455 -0.0653 -0.0447
20437W        W35568  18.016  16.635  15.589  0.2211 -0.2899 -0.1790
20438W        W35569   2.272  17.944  10.416 -0.1247  0.1431 -0.0101
20439W        W35570  14.718   8.139   1.706  0.2078  0.1690  0.1836
20440W        W35571   5.873  11.561  14.999  0.0607  0.0855 -0.0522
20441W        W35572   1.100   5.197  10.806  0.1046 -0.0009 -0.5725
20442W        W35573   8.791   0.949  12.018 -0.0018 -0.3051 -0.1670
20443W        W35574   9.965  17.999   3.401 -0.0190  0.0911 -0.3022
20444W        W35575   6.535  16.830   0.575  0.0696  0.4141  0.0900
20445W        W35576   2.423   0.242   5.720  0.1225  0.0452 -0.4678
20446W        W35577   1.200  17.319  15.758  0.0769 -0.0623  0.0459
20447W        W35578   3.497  13.953   3.761  0.3354  0.1803  0.2631
20448W        W35579  16.019   8.747   2.584  0.0156 -0.1891  0.1954
20449W        W35580   8.550  11.870  12.646  0.0043  0.3057  0.2405
20450W        W35581  10.433  17.848  12.424  0.1143 -0.0299 -0.2888
20451W        W35582  10.359   1.899  15.514  0.3003 -0.0560 -0.0993
20452W        W35583  12.630  12.711  15.015  0.0660  0.2978 -0.1949
20453W        W35584   6.618   3.218   5.646 -0.1082 -0.2054  0.3114
20454W        W35585   2.912  13.210   0.588 -0.0470 -0.5218 -0.0814
20455W        W35586   8.513  17.123  11.530 -0.1762  0.0477 -0.2046
20456W        W35587   0.178  14.290   4.083 -0.1286  0.3641  0.0646
20457W        W35588  12.055   1.380  14.292  0.0945  0.3300  0.0259
20458W        W35589   3.969  12.724   2.367 -0.0151 -0.1484 -0.0649
20459W        W35590   8.276  13.946   1.946  0.1581 -0.1165 -0.0907
20460W        W35591   4.136  11.187   4.146 -0.0362  0.0266  0.0586
20461W        W35592  10.976   4.692  14.815  0.0575 -0.0444  0.1090
20462W        W35593  15.493   5.665   1.808 -0.1401 -0.1342  0.0007
20463W        W35594   1.177   4.113  15.335  0.2434  0.3638  0.2177
20464W        W35595   6.101   9.848  13.978 -0.1527 -0.0220 -0.1763
20465W        W35596   3.339   6.180  14.423 -0.1387  0.0278 -0.0846
20466W        W35597   7.408  14.927  15.080 -0.2484 -0.0215  0.1960
20467W        W35598   5.173  18.634   5.168  0.4028 -0.1116 -0.1678
20468W        W35599  13.257  17.662  12.257  0.1094 -0.1612  0.1309
20469W        W35600   4.697   0.053   2.847 -0.0104 -0.0102 -0.0764
20470W        W35601  13.471   1.975   1.020 -0.0136 -0.0563  0.1471
20471W        W35602   2.356  12.057   2.191 -0.3162 -0.1236  0.0564
20472W        W35603  17.850  17.151   6.161 -0.1765 -0.1751 -0.1009
20473W        W35604   6.097   7.798  14.376  0.0113  0.0460  0.2321
20474W        W35605  17.594   6.585   0.292  0.0195 -0.1852 -0.1249
20475W        W35606   1.519   2.846   0.850  0.1453 -0.1820 -0.1047
20476W        W35607  14.433   0.251  10.713  0.2417 -0.2395  0.2616
20477W        W35608  13.643  17.386  12.230 -0.0701 -0.1912 -0.2257
20478W        W35609  18.715   1.749  12.195  0.2874 -0.3063 -0.1641
20479W        W35610   1.151   7.493   2.510  0.3110 -0.1345 -0.1586
20480W        W35611  15.987   5.691  10.628  0.3308  0.2888 -0.1713
20481W        W35612   8.951  10.169  12.724  0.3914 -0.4220 -0.1032
20482W        W35613   3.868   4.900  11.049  0.3391 -0.4078  0.1884
20483W        W35614   2.558   1.118   1.069  0.4743 -0.1232 -0.1702
20484W        W35615   9.084   1.703  11.261 -0.2474 -0.1864  0.3084
20485W        W35616   1.937   1.383  13.099  0.1401 -0.2620  0.1078
20486W        W35617  16.961   2.729  12.322  0.4326  0.2058 -0.2555
20487W        W35618   2.622   8.204   3.402 -0.2209 -0.4230  0.1331
20488W        W35619   8.587   8.207  15.405 -0.1167 -0.0025 -0.2099
20489W        W35620  15.780   8.943  11.238 -0.2301  0.3304  0.0086
20490W        W35621   2.798   8.750  13.328 -0.0150  0.2788  0.2299
20491W        W35622  18.320   0.877  14.470  0.0458 -0.1736 -0.4541
20492W        W35623   2.514  10.931  12.625 -0.2571 -0.0967  0.2998
20493W        W35624   6.577  13.658   2.909  0.4574 -0.2163 -0.2877
20494W        W35625  18.490   2.613  15.029 -0.0238 -0.0307  0.5061
20495W        W35626   9.622   8.870  12.452 -0.4066  0.0959 -0.0404
20496W        W35627   0.241   2.641   3.836 -0.1389 -0.0971  0.0945
20497W        W35628  17.762  10.266   3.530 -0.2793  0.1564 -0.0543
20498W        W35629   0.307  15.987   1.375  0.1101  0.1180  0.1754
20499W        W35630  11.989  11.768   2.484 -0.1455 -0.1575 -0.0485
20500W        W35631  14.871   4.041  15.307 -0.0390  0.2301 -0.0928
20501W        W35632  13.672   5.753   2.136 -0.0830 -0.1985 -0.1225
20502W        W35633  10.074   3.731   2.904 -0.0286  0.1475 -0.2245
20503W        W35634   4.617   4.627   2.677 -0.1462 -0.0462 -0.2479
20504W        W35635   5.581  18.600   1.901 -0.3352 -0.2050  0.0602
20505W        W35636  18.621   2.647   3.433 -0.0840 -0.0691  0.1270
20506W        W35637  13.045   8.368  15.765  0.2085  0.0155 -0.0820
20507W        W35638  14.751   4.044  14.215 -0.2208  0.0489 -0.0931
20508W        W35639   0.111  11.653  11.488  0.1988 -0.1151 -0.2252
20509W        W35640   1.141   1.673  11.856 -0.0963 -0.4808  0.0238
20510W        W35641  13.727   9.062   3.631 -0.2279 -0.0135 -0.3564
20511W        W35642   2.018  12.234  10.921  0.0981 -0.1399  0.1476
20512W        W35643   2.580  14.159  10.920  0.1743  0.0569  0.3351
20513W        W35644  15.295   5.170   4.820  0.1223  0.0088 -0.3037
20514W        W35645   5.145  10.903  14.659 -0.3411  0.1495  0.3395
20515W        W35646  16.862   6.324   0.702  0.0115 -0.0883  0.1664
20516W        W35647   9.783   1.588   2.282  0.5710 -0.1340 -0.1589
20517W        W35648  11.498  12.853  13.112  0.2228 -0.2137  0.2337
20518W        W35649   2.122   4.368   9.774  0.0956 -0.3319 -0.0287
20519W        W35650  10.611  11.745  15.350 -0.1199 -0.0911  0.0208
20520W        W35651  16.931  16.501  15.193  0.3294 -0.1236 -0.3685
20521W        W35652  15.056   5.844  14.679 -0.3289 -0.1007 -0.1225
20522W        W35653  12.751  11.077   1.900  0.1107  0.0299  0.1742
20523W        W35654  11.251  15.038  15.349 -0.1417  0.0332 -0.0645
20524W        W35655  17.101  14.603  11.140 -0.0227  0.0472 -0.1100
20525W        W35656  14.930  14.848   3.775 -0.1170 -0.2931 -0.3572
20526W        W35657   8.198   3.064  10.784  0.0219 -0.1953 -0.1842
20527W        W35658  13.359  17.669  14.359 -0.0500  0.2933 -0.0691
20528W        W35659  14.441  10.178   2.354  0.2236  0.1286  0.0559
20529W        W35660   4.272   1.497  15.741  0.0475 -0.0681 -0.0660
20530W        W35661   9.418   1.879   3.179 -0.2334 -0.1928  0.3062
20531W        W35662   4.492  10.398  13.811  0.1635 -0.1572  0.2412
20532W        W35663   5.355  14.669   4.855  0.1669  0.0748  0.0684
20533W        W35664  12.583   8.460  10.209  0.0188 -0.2680 -0.0499
20534W        W35665  17.111   2.894  11.442 -0.1657  0.0017  0.3146
20535W        W35666  14.293   0.459  12.968  0.1383 -0.2683 -0.0347
20536W        W35667  13.056   1.219   2.265  0.0268  0.0642 -0.1759
20537W        W35668  13.328   1.819  14.449  0.3303  0.1545  0.0270
20538W        W35669  18.698  12.006  13.501  0.0860  0.0955 -0.1668
20539W        W35670  15.651  17.797   4.822  0.3446  0.2583  0.0804
20540W        W35671   7.223  18.012  11.326  0.0632  0.2279  0.2601
20541W        W35672   3.364  13.301  15.121  0.2112 -0.3746  0.0791
20542W        W35673  17.688   6.291   1.671  0.2645 -0.1484 -0.1816
20543W        W35674  14.043  13.765  13.031  0.1416 -0.2140  0.2709
20544W        W35675  12.702   1.948   2.497  0.2510 -0.0294 -0.1611
20545W        W35676  14.346  11.836   0.809  0.0468 -0.2120  0.0202
20546W        W35677  15.463   1.551  14.405  0.2034 -0.2134  0.0756
20547W        W35678  16.460   3.680  14.810  0.1030 -0.0467 -0.2545
20548W        W35679   8.365  16.605   4.171 -0.1114  0.0689  0.2434
20549W        W35680   4.274   5.807   2.804 -0.2159  0.1022  0.0883
20550W        W35681  16.017   7.962   0.848  0.1483 -0.1268  0.0570
20551W        W35682  15.900   5.854   2.014  0.2351  0.1399 -0.1765
20552W        W35683   8.930   6.160   0.412  0.2278  0.1396 -0.1476
20553W        W35684  15.751   9.457  15.496  0.2423  0.0706  0.1663
20554W        W35685   7.979   3.885  13.240  0.0963 -0.0609  0.1481
20555W        W35686  11.822  17.360   4.047  0.1388 -0.1007 -0.2774
20556W        W35687   2.759   9.062   3.861  0.0608  0.0751  0.1762
20557W        W35688  13.920   0.398   5.143 -0.4380 -0.4307  0.1111
20558W        W35689  15.974   9.293   2.306 -0.1469  0.0098 -0.2112
20559W        W35690   6.434  16.508  11.508 -0.1876 -0.0390  0.1216
20560W        W35691  14.357   1.230   5.311 -0.3381 -0.2695 -0.0532
20561W        W35692   4.462   5.508  11.562 -0.4924  0.1148  0.2801
20562W        W35693  12.661   6.288  12.462  0.1742  0.2947 -0.0563
20563W        W35694  11.331  14.705  14.564 -0.2074 -0.0092  0.0455
20564W        W35695   5.270   5.679  12.440 -0.1142 -0.0226 -0.2632
20565W        W35696   9.518  15.834   1.022 -0.2634  0.1882 -0.1607
20566W        W35697   8.069   3.741   5.138 -0.0937  0.0822 -0.1083
20567W        W35698   5.310   8.517   5.920 -0.1286 -0.2356  0.1613
20568W        W35699  17.427   2.562   0.420  0.0673 -0.0520 -0.1405
20569W        W35700   0.279  14.831   2.439 -0.1736  0.2013  0.2480
20570W        W35701  15.645   6.435   0.796  0.0091 -0.2764  0.2597
20571W        W35702  10.715  18.364  12.425  0.0061 -0.3938  0.1347
20572W        W35703   0.482  18.540   0.283 -0.1740  0.3909  0.0601
20573W        W35704   9.635  18.665  10.236  0.1068  0.1582 -0.2173
20574W        W35705   6.255  11.227   5.351  0.3002  0.2726 -0.0016
20575W        W35706  15.360   1.906  12.419  0.0192  0.1628  0.0519
20576W        W35707   5.788  16.466   4.469  0.2296 -0.0264  0.0985
20577W        W35708   3.807   3.620  11.960 -0.3984 -0.2277 -0.1389
20578W        W35709   1.836  17.566   1.605 -0.0974 -0.2260 -0.0499
20579W        W35710   8.945   5.013  11.645 -0.2755 -0.0738 -0.1673
20580W        W35711  15.377   9.265  12.578  0.0186  0.0341  0.3159
20581W        W35712  17.801  13.090  15.710 -0.1115 -0.3655 -0.3598
20582W        W35713   7.309  14.442   4.669  0.2852 -0.3103 -0.2883
20583W        W35714  13.918   2.488   6.327  0.3317  0.1734  0.0116
20584W        W35715   2.519  17.749   1.379 -0.0924  0.2225 -0.0075
20585W        W35716   8.476   0.046   2.565  0.0832  0.0443  0.2816
20586W        W35717  13.018   3.726  14.188 -0.0968 -0.1357  0.3389
20587W        W35718   5.771  13.111  12.482  0.0875  0.1956 -0.0704
20588W        W35719   3.100  17.902   5.251  0.2221 -0.0175  0.4341
20589W        W35720  12.391   9.044  14.154  0.3061  0.1133 -0.0375
20590W        W35721   2.247  12.420  13.706 -0.3503 -0.1536 -0.2199
20591W        W35722  15.045   2.710   3.463 -0.0222 -0.2833 -0.1518
20592W        W35723   2.421   2.638   1.416  0.1529  0.0331 -0.2233
20593W        W35724  11.543   5.224   3.933  0.0102  0.4006  0.1789
20594W        W35725   2.791   1.315  14.787 -0.0059 -0.2195 -0.3196
20595W        W35726   7.254   3.554   4.211 -0.0189 -0.0691 -0.0014
20596W        W35727   8.778  11.910  10.148 -0.0283  0.0975 -0.2808
20597W        W35728   1.856   7.957  11.374  0.2643  0.3485  0.1233
20598W        W35729   2.410  17.501  15.780  0.3063 -0.0827  0.3326
20599W        W35730  18.571  14.141   5.363 -0.1093 -0.3750  0.1729
20600W        W35731   7.214   2.458  15.119 -0.1535  0.0848  0.2221
20601W        W35732  17.536  13.695   0.614  0.0867  0.1509 -0.0012
20602W        W35733  12.369   3.221   1.914 -0.0020 -0.0246  0.0844
20603W        W35734  17.074  15.286  12.909 -0.2867  0.0243  0.0772
20604W        W35735   2.842  11.993  13.296 -0.2324  0.0527 -0.1844
20605W        W35736  13.214   3.961   0.530  0.2199  0.1311  0.0772
20606W        W35737   2.049  15.497   0.929  0.1655 -0.2105  0.3015
20607W        W35738   5.355   5.099   0.508 -0.2253  0.0390  0.0826
20608W        W35739  10.751   2.055  10.792  0.5315 -0.1708 -0.0108
20609W        W35740   6.889  17.404  14.653 -0.0750 -0.1233  0.0774
20610W        W35741   0.395  18.173   2.496 -0.2167  0.0190 -0.2570
20611W        W35742  16.229   9.315   1.698 -0.0495  0.2996  0.1892
20612W        W35743   9.547  13.831   2.524 -0.2005 -0.4644  0.0149
20613W        W35744   6.198   8.831   4.208 -0.2674 -0.2154 -0.0329
20614W        W35745  13.869   7.902   9.964 -0.2784  0.2102  0.1510
20615W        W35746   6.772  12.712   2.557  0.2223  0.1391  0.0467
20616W        W35747  11.278  10.919   0.180 -0.2940 -0.0149  0.0867
20617W        W35748   1.917   7.235   3.458 -0.0391  0.2606 -0.0925
20618W        W35749  13.073   3.136  15.380  0.0953  0.0307  0.1095
20619W        W35750   5.345  11.299   4.775  0.1371 -0.0169 -0.6096
20620W        W35751  17.689   2.438  13.008 -0.2431  0.0504 -0.0903
20621W        W35752  14.635  16.157   4.323 -0.3076  0.1288 -0.2450
20622W        W35753   2.890  15.287   1.329  0.3285 -0.2849  0.1819
20623W        W35754   2.412   7.970   1.007 -0.1528  0.1447 -0.0032
20624W        W35755   5.395  13.001  15.030  0.2450 -0.0719 -0.0337
20625W        W35756  10.927  11.157   5.463  0.1043 -0.2592 -0.0199
20626W        W35757   2.728  12.160   0.613 -0.0498  0.1448  0.1556
20627W        W35758  12.048  13.964   0.235 -0.0021 -0.0627 -0.0694
20628W        W35759   7.114   5.749  11.635 -0.4764  0.3176  0.1045
20629W        W35760   2.725   1.853   3.276  0.0007 -0.0929  0.0731
20630W        W35761  17.803   5.131   1.306 -0.0392  0.4020  0.0776
20631W        W35762   2.334  13.283  13.168  0.1005  0.0369  0.0834
20632W        W35763   8.269   0.234   1.742  0.3060  0.0433  0.4156
20633W        W35764  13.322   7.923   2.726 -0.1749 -0.0927 -0.2730
20634W        W35765  14.020   0.751   0.448 -0.1146  0.1798 -0.1545
20635W        W35766  16.232  17.469   3.072 -0.2413  0.3340 -0.2424
20636W        W35767  17.382  18.694   4.211 -0.1483 -0.1388 -0.1314
20637W        W35768   9.096   4.240  14.980 -0.0060  0.0302 -0.0430
20638W        W35769   3.706  10.634   5.444 -0.0399 -0.0578  0.0550
20639W        W35770  11.488   6.988   2.548  0.1850  0.1134 -0.0174
20640W        W35771  11.086   9.409  10.117 -0.1211 -0.0995  0.0458
20641W        W35772   9.337  10.703  13.925 -0.2321 -0.4357  0.1894
20642W        W35773  12.793   1.203   1.162 -0.0316  0.2483  0.1918
20643W        W35774   9.082   5.095   3.812 -0.2959 -0.2916 -0.2101
20644W        W35775  10.467   0.327   4.510 -0.0627 -0.1972 -0.0150
20645W        W35776   3.452  16.145   0.945 -0.3403  0.0518 -0.0840
20646W        W35777   1.671  10.961  14.175 -0.0203 -0.4086  0.0648
20647W        W35778  12.043   9.243   2.371 -0.0047 -0.0994  0.1161
20648W        W35779   5.036  10.440  13.852  0.1758 -0.0156 -0.2044
20649W        W35780  10.510   5.787  15.569  0.0428 -0.3126  0.0294
20650W        W35781   3.641  14.161  15.589  0.2797 -0.0697 -0.2610
20651W        W35782  13.846   4.820  13.959  0.1068  0.0305  0.2491
20652W        W35783   0.676  16.459   0.854  0.2106 -0.1604 -0.2480
20653W        W35784   8.638   9.499   2.753 -0.3198 -0.1522  0.1425
20654W        W35785   6.440   8.581  14.227  0.1083 -0.0860 -0.0758
20655W        W35786  14.266   2.928   0.896  0.3425  0.1000  0.2672
20656W        W35787  17.668  14.722  14.125  0.1823  0.0958 -0.2444
20657W        W35788   2.894   8.151   3.825  0.2792 -0.0317 -0.0894
20658W        W35789  11.624  11.781   3.670 -0.1957 -0.0455 -0.1547
20659W        W35790  12.100  13.661  12.301 -0.1163 -0.0001  0.0325
20660W        W35791   8.197   0.471   1.322 -0.1143  0.2508  0.1859
20661W        W35792   9.219   2.721   0.098 -0.1584 -0.2399  0.3885
20662W        W35793  13.773   4.028   4.339  0.1021  0.2778 -0.0134
20663W        W35794   2.345  14.946   3.471  0.0779  0.1185 -0.1111
20664W        W35795   7.255   6.376   2.288 -0.2654 -0.2355  0.3630
20665W        W35796   7.013  18.143  12.859 -0.1598  0.0732 -0.1486
20666W        W35797  15.622   5.217   5.231 -0.3492 -0.3299 -0.2828
20667W        W35798  18.033   8.722   5.352 -0.2137 -0.0711  0.1654
20668W        W35799  16.496  15.887   2.326 -0.0968 -0.3235  0.0876
20669W        W35800   4.587   6.680   0.576 -0.1327  0.1253  0.1736
20670W        W35801  18.248   5.308  12.118  0.0103 -0.1398 -0.0951
20671W        W35802   3.332  10.219  12.130 -0.1060  0.1248  0.1649
20672W        W35803  15.010  15.370  14.699 -0.1800  0.0633  0.1119
20673W        W35804  11.109   9.580   1.314  0.1424  0.1134  0.1619
20674W        W35805   5.377  12.270   0.817  0.3004 -0.0361  0.2412
20675W        W35806   6.611   8.996  13.982 -0.0185  0.0977 -0.0682
20676W        W35807  12.543   0.328   2.334 -0.1512 -0.1069 -0.2225
20677W        W35808  17.292  15.305   3.194 -0.1128  0.1965 -0.2121
20678W        W35809  15.667  14.403  11.990 -0.0124 -0.1514 -0.2855
20679W        W35810  15.363  16.417   0.312  0.0995 -0.0841 -0.1529
20680W        W35811  12.274   7.960  15.023  0.0481  0.0172  0.1292
20681W        W35812  10.648   9.782   1.557  0.1991  0.0466 -0.0788
20682W        W35813   0.294   0.701   3.101 -0.0968  0.0822 -0.0672
20683W        W35814   6.201   7.572  10.838 -0.1518 -0.1831  0.0163
20684W        W35815   0.645   9.687  10.982 -0.1635  0.0918  0.1237
20685W        W35816  12.093   7.168  14.583 -0.0249 -0.0541  0.1470
20686W        W35817  15.674  13.367  10.364  0.1067 -0.3956 -0.0500
20687W        W35818  16.491  11.280   2.783  0.4290  0.1068 -0.1146
20688W        W35819  18.373   5.416  12.636  0.0622 -0.0744 -0.2003
20689W        W35820  18.237   9.997  12.485 -0.2638  0.0681  0.0241
20690W        W35821   3.658   2.102   3.648 -0.1416  0.0925  0.2807
20691W        W35822   4.703   2.317  13.644 -0.2000 -0.0731 -0.2079
20692W        W35823  13.315   1.512  13.552  0.1104  0.1159  0.1517
20693W        W35824  11.375   4.802   1.231 -0.1973 -0.1926 -0.2461
20694W        W35825  16.382  12.192  14.262 -0.0856 -0.1906  0.3956
20695W        W35826   7.265  10.110  11.920 -0.1869  0.2186 -0.0742
20696W        W35827  13.248  12.175  11.023  0.1245 -0.1999  0.1890
20697W        W35828   1.042   7.861   1.624 -0.0993 -0.1382 -0.0894
20698W        W35829   8.403  15.965   3.462  0.1221 -0.1212  0.0144
20699W        W35830   9.999  10.286  10.672  0.1156 -0.1227  0.0521
20700W        W35831   3.945   3.421   2.837 -0.0866  0.2692  0.0977
20701W        W35832   2.824  13.472  15.056  0.2027 -0.1770  0.3386
20702W        W35833   7.491   3.818   3.861 -0.1345 -0.1319 -0.0155
20703W        W35834   2.931   6.422  10.950  0.1122  0.2522  0.1314
20704W        W35835   6.134   2.934   4.470 -0.3718  0.0326 -0.0344
20705W        W35836  13.869   7.402   3.593  0.2282 -0.1955  0.5843
20706W        W35837   4.661   5.899   4.787  0.0173  0.0561 -0.0644
20707W        W35838   1.738  16.578   2.833 -0.1339 -0.0655  0.3218
20708W        W35839  11.683  18.393  12.172 -0.0452 -0.0755 -0.1823
20709W        W35840  15.598   3.363   1.209 -0.1810  0.0919  0.2407
20710W        W35841  17.977  12.381   0.239  0.0365 -0.1304 -0.3053
20711W        W35842   6.800  15.037   3.785  0.4176 -0.1341 -0.0352
20712W        W35843   0.001   1.171   4.637  0.0912 -0.2502  0.1746
20713W        W35844  17.820   1.120  14.808 -0.0909  0.0234 -0.2343
20714W        W35845   4.772  12.101   1.377 -0.3679 -0.4646 -0.2505
20715W        W35846  18.603  18.314  12.185  0.4673  0.0444 -0.0648
20716W        W35847   2.632   9.573  11.835 -0.1310 -0.3715  0.1799
20717W        W35848   1.956   3.281   3.429  0.1578 -0.0598 -0.0527
20718W        W35849  15.043   7.441  14.589 -0.0370  0.1444  0.1371
20719W        W35850   7.906   7.637  12.062  0.2558 -0.1508 -0.1387
20720W        W35851  17.529   7.813   5.399 -0.1023 -0.2439 -0.1329
20721W        W35852   6.144   3.182  12.407 -0.1762  0.0202  0.1530
20722W        W35853   9.520  15.157  11.082 -0.1310  0.0030 -0.1469
20723W        W35854  10.123   4.224   2.112 -0.0858 -0.1248  0.2981
20724W        W35855  12.097   2.446   4.909  0.0805 -0.2151  0.0319
20725W        W35856   6.387  18.169   0.283 -0.2016 -0.0817  0.0265
20726W        W35857  11.520  16.056  14.944 -0.2938 -0.1632 -0.0363
20727W        W35858   3.448  11.288   5.168  0.1410  0.0832 -0.1982
20728W        W35859   4.404   3.064  11.550 -0.0035  0.1831  0.2238
20729W        W35860  15.871   3.560  12.690  0.0156  0.1535 -0.2753
20730W        W35861   8.662  11.202  14.415 -0.1724 -0.0151  0.0765
20731W        W35862  18.502  11.049   1.375  0.6556 -0.1171 -0.1584
20732W        W35863   7.088   0.382  12.984 -0.1028  0.0333  0.2241
20733W        W35864   7.728   2.047  14.337  0.0757 -0.2436 -0.2740
20734W        W35865  12.674  12.581   1.059  0.1444  0.0205 -0.1868
20735W        W35866  17.701  15.247   2.664 -0.0048 -0.1932  0.3813
20736W        W35867   4.710   3.967   0.486 -0.1456 -0.0022  0.0895
20737W        W35868   5.265   3.298   5.727  0.2714 -0.0437  0.0845
20738W        W35869   6.719  13.025  12.100  0.0414  0.0475 -0.0261
20739W        W35870  15.735  11.831  15.443  0.0249  0.1420 -0.0426
20740W        W35871  11.081  14.566   1.686  0.2035  0.1317 -0.0627
20741W        W35872  14.202   5.630  10.558  0.1861  0.0853  0.1366
20742W        W35873  14.383   2.942   0.348  0.1231 -0.0284  0.0620
20743W        W35874   5.973   1.516   1.353 -0.1054 -0.0223  0.3143
20744W        W35875  12.961   8.697   5.065 -0.0959  0.1160 -0.0694
20745W        W35876   9.379  18.154  13.644  0.1562 -0.1697 -0.2199
20746W        W35877  14.996  14.949   3.244 -0.0063 -0.1744 -0.1032
20747W        W35878  14.517  12.927   5.069 -0.1086 -0.3205 -0.0677
20748W        W35879   7.149   4.488  10.204  0.1421 -0.0210 -0.1289
20749W        W35880   4.998  13.530   2.341  0.2149  0.0635  0.0154
20750W        W35881  13.887   8.077   1.912 -0.5493  0.0680 -0.2541
20751W        W35882   8.716  13.070  11.348 -0.3468  0.0677  0.0396
20752W        W35883   7.610   5.175   1.800 -0.1716 -0.0628 -0.1622
20753W        W35884   6.929  12.527  13.821  0.0872  0.2838 -0.1425
20754W        W35885   9.039   7.008   4.273 -0.0759  0.1044  0.1098
20755W        W35886  10.329   3.204  15.717 -0.1199  0.0397 -0.1250
20756W        W35887  17.729  11.330   2.076  0.1157 -0.0574 -0.0187
20757W        W35888   8.114  17.924   0.154  0.1227  0.1548 -0.1687
20758W        W35889   6.730   7.139   2.362  0.0322  0.2022  0.0426
20759W        W35890   5.033   1.077   1.702  0.0370  0.0873  0.2022
20760W        W35891  16.634  13.083   6.021 -0.0012  0.1972 -0.1342
20761W        W35892   9.233   6.010   1.848  0.3050  0.0034 -0.0264
20762W        W35893   1.942   0.118  11.724 -0.1013 -0.1709 -0.3780
20763W        W35894   1.797  18.494   0.767 -0.1108  0.2851  0.1210
20764W        W35895   9.571   8.417  15.652  0.2926 -0.1903  0.0877
20765W        W35896  12.419  12.321  14.271  0.3539 -0.0269  0.0403
20766W        W35897   1.056  13.871   3.090  0.3492 -0.1661  0.2866
20767W        W35898   7.015  15.539   2.579 -0.2148 -0.4264  0.1907
20768W        W35899  14.162   7.051   4.459 -0.0152  0.0400 -0.0219
20769W        W35900   7.646   0.910   5.456 -0.1470 -0.1138 -0.1271
20770W        W35901   9.560  10.353   1.629 -0.1526 -0.0336  0.0444
20771W        W35902  18.612  16.697  10.817  0.2964  0.0909 -0.3555
20772W        W35903  12.292  13.586   2.824  0.1715  0.0973 -0.1202
20773W        W35904  13.931   7.903   2.924 -0.3141  0.1307  0.1824
20774W        W35905   0.452   4.986  12.480 -0.0456  0.4246  0.0005
20775W        W35906  10.826   7.606  12.271 -0.0799 -0.1357 -0.1833
20776W        W35907  18.339   7.926  11.743  0.1102 -0.0838 -0.1712
20777W        W35908  12.367  11.195  13.482  0.1796  0.0434  0.0426
20778W        W35909  17.516   7.281  14.577  0.2061 -0.3667  0.1058
20779W        W35910  10.239  16.612  15.076 -0.3623  0.4763  0.3142
20780W        W35911  15.990  17.886   1.391 -0.0796 -0.1451  0.0876
20781W        W35912  14.184   7.342  11.343 -0.1314  0.0828  0.0759
20782W        W35913   4.116   2.678   5.468  0.1097  0.1264  0.4147
20783W        W35914  17.410   0.322  14.407  0.0308  0.3183  0.0227
20784W        W35915   1.569   1.799  12.012 -0.3534 -0.1262  0.0255
20785W        W35916   3.145   6.033  12.993 -0.1932 -0.1207 -0.0691
20786W        W35917   6.905   1.854  10.426  0.3306  0.0845  0.2874
20787W        W35918   6.784   0.476   5.757 -0.1040 -0.3483 -0.2411
20788W        W35919  14.078   6.508   6.271 -0.1411  0.0940  0.3306
20789W        W35920   5.387   9.843  15.564 -0.0938  0.1255 -0.1564
20790W        W35921   1.445   7.578  12.345  0.1302 -0.0823  0.0319
20791W        W35922  10.888   1.942  15.511  0.0235  0.1572 -0.0075
20792W        W35923   4.950   3.461   0.874 -0.0428  0.0744  0.0223
20793W        W35924   0.451   7.639   1.747  0.2969  0.1163  0.4995
20794W        W35925   5.197   0.804   1.073  0.0650  0.3908 -0.2196
20795W        W35926   8.107  14.312   2.290  0.1370 -0.2732  0.4457
20796W        W35927   6.627   2.907  12.447 -0.1783 -0.0285  0.0559
20797W        W35928   2.384  15.261  10.753  0.1633 -0.0536  0.0568
20798W        W35929  10.279  15.874   4.435 -0.0754 -0.0801  0.3301
20799W        W35930   5.175   3.861  12.806 -0.2577  0.2721  0.1158
20800W        W35931  18.289  14.716  13.326 -0.0598  0.0172  0.0982
20801W        W35932   2.184   8.843   0.631  0.1745 -0.1485  0.0072
20802W        W35933  11.580  17.784  12.560  0.0850 -0.2303 -0.0686
20803W        W35934  15.319  17.844  14.137  0.3135  0.0605  0.0990
20804W        W35935  14.851  11.706   4.717 -0.1944 -0.1956 -0.1292
20805W        W35936   1.952  17.647  13.299  0.2146  0.0008 -0.1445
20806W        W35937  15.827   9.008  12.549 -0.2507 -0.1394  0.2595
20807W        W35938   8.825   4.060   3.574  0.4367 -0.1264 -0.1423
20808W        W35939  14.698   2.868   1.556 -0.2739  0.2599  0.5675
20809W        W35940   3.390   5.749  14.693 -0.1765  0.0923  0.1459
20810W        W35941  17.987   6.389   4.680  0.0908 -0.7017  0.0757
20811W        W35942   8.976   9.196  15.469  0.1263 -0.1659 -0.1315
20812W        W35943  11.432  18.471  10.649 -0.0805  0.1961 -0.2393
20813W        W35944   4.996   1.866  15.024 -0.0226 -0.1861  0.1625
20814W        W35945   2.105   1.581  12.660 -0.1251 -0.0999 -0.3353
20815W        W35946  14.903   2.643   0.990 -0.1475 -0.1735  0.1112
20816W        W35947   2.682   4.490  15.651 -0.1159 -0.4240  0.1697
20817W        W35948  10.938   5.595  11.531  0.3663  0.1327  0.0719
20818W        W35949   7.747  10.769  12.337 -0.0910 -0.2582  0.3442
20819W        W35950   8.361   7.911  12.178  0.1945  0.3346  0.0516
20820W        W35951   4.348  15.912   5.299 -0.2013  0.1383 -0.1067
20821W        W35952  13.970   8.303  12.682  0.2165  0.1949 -0.2733
20822W        W35953   1.425  10.350  10.902  0.0522  0.1083 -0.0388
20823W        W35954  10.829   6.743   3.776  0.1641  0.2588 -0.1059
20824W        W35955  14.717  18.508   5.233 -0.0086 -0.0996  0.1474
20825W        W35956   2.426   0.629   1.806 -0.1278  0.0404  0.2105
20826W        W35957   2.749   7.116   3.823 -0.3185 -0.4837 -0.2028
20827W        W35958   1.317   8.272  14.638 -0.0663  0.0175  0.2537
20828W        W35959  16.309   1.703   1.659  0.0216 -0.0967  0.2507
20829W        W35960   6.039  10.806   3.473 -0.0867  0.1375  0.0209
20830W        W35961  11.250   1.023  15.327  0.2240 -0.3523 -0.0718
20831W        W35962   8.022   4.785  11.393 -0.0517 -0.2101 -0.2318
20832W        W35963   2.789  18.150   2.171 -0.0837 -0.2658 -0.1134
20833W        W35964   3.129  16.341  14.387  0.1688  0.0168 -0.0310
20834W        W35965  16.591  12.986  12.910  0.3106 -0.3480  0.0816
20835W        W35966  18.416   7.826   1.137 -0.5402  0.0017  0.0236
20836W        W35967   9.537  14.767  12.687  0.2072  0.0103  0.1959
20837W        W35968  14.972   9.808  15.462  0.0788  0.1442  0.1628
20838W        W35969  13.406   3.468  11.575  0.1673 -0.0157 -0.2156
20839W        W35970   5.179  14.399  11.215  0.0443  0.0408 -0.2318
20840W        W35971   0.288   6.405   0.961  0.0937 -0.1258  0.0058
20841W        W35972  14.411   8.754   2.574 -0.0843 -0.1388  0.0884
20842W        W35973  14.389   1.509  15.586  0.1867 -0.2268 -0.0525
20843W        W35974   3.048   7.630  11.199  0.1373  0.0797 -0.0214
20844W        W35975  16.038   6.377  13.606 -0.0415 -0.1225  0.1997
20845W        W35976   9.234   3.558  14.921 -0.1882  0.0378 -0.1131
20846W        W35977   2.211   1.820  13.327  0.3036  0.1295  0.1886
20847W        W35978   7.054  15.510  13.017 -0.1361  0.2738 -0.0663
20848W        W35979   8.017  17.704   3.873  0.1149  0.0581  0.0350
20849W        W35980  13.421  13.572  15.630  0.1199  0.3560 -0.1024
20850W        W35981  17.961  18.546  14.941  0.1575 -0.2894 -0.0186
20851W        W35982  11.759   5.311  15.410  0.1890  0.0950  0.0626
20852W        W35983   8.706  12.855  10.088 -0.0391  0.2540  0.2601
20853W        W35984   8.287   6.138  14.452  0.0604  0.4610 -0.1276
20854W        W35985   8.799   7.858   1.407 -0.0411  0.1206 -0.1789
20855W        W35986  16.139  13.204  15.056 -0.3431  0.0249 -0.0048
20856W        W35987  16.291  16.448  14.116  0.0759  0.0574 -0.0814
20857W        W35988  11.560  17.171  11.497 -0.1299 -0.1700 -0.0160
20858W        W35989   9.148   9.652  15.290 -0.2519 -0.2137  0.3405
20859W        W35990  10.878   4.297  12.511 -0.0101  0.4064 -0.2822
20860W        W35991  12.400   2.859   4.110  0.0684 -0.0019  0.3857
20861W        W35992   5.878  11.019   0.352 -0.5050 -0.0357  0.1224
20862W        W35993  12.977  14.809  12.724  0.5341 -0.0062 -0.2410
20863W        W35994   4.587   1.712   0.696  0.1090  0.0079  0.0089
20864W        W35995  16.717   2.441   4.097 -0.0702 -0.2488 -0.0708
20865W        W35996  12.044   9.797   2.387  0.2466  0.1366  0.0616
20866W        W35997   5.148   3.692   0.321  0.1465  0.2586  0.0928
20867W        W35998  10.489   2.129  13.133  0.1926 -0.3680  0.0249
20868W        W35999  13.209   0.263  10.802  0.4096 -0.0979  0.0595
20869W        W36000   6.381   1.258   5.408 -0.3783  0.1715  0.2438
20870W        W36001   5.101   2.617   2.523  0.0059 -0.0499 -0.0462
20871W        W36002  11.453   5.249   3.367  0.1485  0.1273 -0.2951
20872W        W36003   5.001   5.458  13.377 -0.2637  0.1002  0.0279
20873W        W36004  10.658   0.265  13.763  0.1035 -0.1227 -0.0812
20874W        W36005   8.605  17.487  12.308  0.1819  0.0398  0.2514
20875W        W36006   4.995   5.015  11.685 -0.1189  0.0198  0.1635
20876W        W36007   2.117  18.140   5.243 -0.0477 -0.3498 -0.1730
20877W        W36008   7.100  11.672  11.580  0.1413 -0.1588 -0.3473
20878W        W36009  12.526  17.129   2.323  0.1436  0.2038  0.1182
20879W        W36010   7.192  15.135   5.365 -0.1374 -0.0245 -0.5320
20880W        W36011   2.898   1.725   6.359 -0.1554  0.0015  0.2466
20881W        W36012   5.259  14.281  14.347  0.0635 -0.3747  0.3210
20882W        W36013   2.831   1.657   5.288 -0.0750  0.3075  0.0101
20883W        W36014  17.529  13.557   3.028  0.3593  0.1772  0.0504
20884W        W36015  12.391   3.786   3.077  0.1452 -0.4867 -0.1021
20885W        W36016  14.137  15.773   1.336 -0.5491 -0.0018  0.0666
20886W        W36017  10.201   2.635   1.318 -0.1620  0.1375 -0.1637
20887W        W36018  12.838   5.044   2.420  0.1647 -0.1195 -0.1772
20888W        W36019   4.508  15.312   5.992  0.4307  0.0887  0.2935
20889W        W36020  18.041   3.026  14.529 -0.0346  0.0887 -0.0714
20890W        W36021   8.670   4.878   4.947 -0.1940  0.1410  0.0858
20891W        W36022  12.627  18.632   3.003 -0.2220 -0.2017  0.0752
20892W        W36023  17.519  13.990   3.258 -0.0379  0.2047  0.1231
20893W        W36024   0.303   1.267  12.894 -0.0412 -0.1402  0.1748
20894W        W36025  18.237  16.597  13.120 -0.1301  0.1186 -0.2037
20895W        W36026  14.096  10.869   1.158  0.2422  0.0092  0.2855
20896W        W36027  11.993   0.275   0.392 -0.1752 -0.1217  0.1176
20897W        W36028  10.279  13.240  14.925  0.0147  0.2141  0.0332
20898W        W36029  11.736  11.679   1.591  0.2496  0.0639  0.1223
20899W        W36030  17.217   4.121   0.913  0.1868  0.0581  0.0449
20900W        W36031  13.022   2.364   2.537 -0.0659 -0.1312  0.4508
20901W        W36032  16.600  12.345   2.584 -0.1049  0.0985 -0.3275
20902W        W36033   9.167  12.835  14.706  0.0754 -0.0119 -0.1531
20903W        W36034   6.729   8.904  12.392  0.0145  0.0544 -0.0383
20904W        W36035   3.526   7.520  11.250  0.1743  0.1712  0.0109
20905W        W36036  13.064   2.642   4.028  0.2775  0.0117 -0.3083
20906W        W36037   0.719  14.126  15.269 -0.0688  0.2124  0.2694
20907W        W36038   2.089  10.639  14.463  0.2838 -0.4403 -0.0918
20908W        W36039  14.932  14.967  12.446 -0.0698 -0.0609 -0.0685
20909W        W36040   1.002  17.573  11.057 -0.0779 -0.1598 -0.3574
20910W        W36041   2.135   1.408   1.277 -0.2124 -0.0886  0.1630
20911W        W36042   5.441   4.686  10.693 -0.2440  0.2733  0.0557
20912W        W36043  11.886  10.180   0.163 -0.0454 -0.1455  0.0028
20913W        W36044   9.713   7.411   3.079 -0.1080  0.0637 -0.1237
20914W        W36045  16.430  18.017  10.791  0.0737 -0.3470 -0.1449
20915W        W36046  18.088   0.332   4.295 -0.3170 -0.0616  0.1930
20916W        W36047   1.450  11.960  11.676  0.0165 -0.3164 -0.3318
20917W        W36048   7.888   6.443  13.639 -0.2649  0.1829  0.0882
20918W        W36049   2.903   3.026   4.335  0.0073  0.0685  0.0014
20919W        W36050  14.536  13.721   0.610 -0.0001  0.1948  0.0723
20920W        W36051  14.938  11.783  14.094  0.2771  0.2344  0.1198
20921W        W36052   2.485   5.036   1.543 -0.2095 -0.0186  0.0110
20922W        W36053  13.207   7.929   3.225 -0.0049 -0.2167 -0.0824
20923W        W36054   4.377   9.539  14.756  0.2774 -0.0156  0.3818
20924W        W36055  15.161   8.295   2.568  0.0623 -0.1220 -0.2872
20925W        W36056   1.487   8.404   2.090 -0.0883  0.0787  0.2380
20926W        W36057  11.267  15.538  14.607  0.1101 -0.2035  0.1166
20927W        W36058  14.617  11.238   5.564  0.0303 -0.1722  0.1501
20928W        W36059   0.107  10.186  10.554  0.0522 -0.1645  0.1348
20929W        W36060  15.557   2.499  12.859  0.3548  0.1797 -0.2885
20930W        W36061   9.649  14.042  14.335  0.0239 -0.2103 -0.1393
20931W        W36062   7.485  18.668  14.419 -0.0111  0.0600  0.2470
20932W        W36063  12.898   4.146   4.624 -0.0096 -0.4246  0.2233
20933W        W36064  14.299   1.305  12.328 -0.0663 -0.3606 -0.6648
20934W        W36065  12.333  18.225  14.676  0.1055 -0.1199  0.0712
20935W        W36066  10.815   9.224  15.438 -0.0881 -0.1502  0.4710
20936W        W36067   4.315  15.932   3.929 -0.0415 -0.0325 -0.4739
20937W        W36068   3.250   1.730  13.033  0.4423  0.0699 -0.0468
20938W        W36069  11.272   9.011  12.593 -0.1684  0.4594 -0.2722
20939W        W36070   4.746  17.378  14.591  0.1037  0.3404 -0.1967
20940W        W36071   2.095   3.781  12.577  0.0244  0.2515 -0.2065
20941W        W36072   7.215   8.591  15.682 -0.0731  0.2851  0.1178
20942W        W36073  10.384  14.214   1.713  0.3556  0.1690 -0.1792
20943W        W36074  16.339  15.056   0.287  0.1999 -0.1075  0.0125
20944W        W36075   1.216   4.609   1.867 -0.0935  0.1592 -0.3358
20945W        W36076   1.760   6.695   0.432 -0.1158  0.1760  0.1116
20946W        W36077   4.086   9.578   1.198 -0.1528 -0.1173 -0.1099
20947W        W36078   8.889  14.282   5.681  0.0128  0.2140  0.1387
20948W        W36079   9.659  17.987   1.508 -0.0928  0.1059  0.0800
20949W        W36080   9.257   1.121  13.099 -0.1346  0.0358 -0.0075
20950W        W36081  16.570  16.328   3.537  0.2579 -0.1016 -0.1640
20951W        W36082   0.639  15.910   0.910  0.0841  0.0827 -0.1258
20952W        W36083  16.087  16.205   3.294  0.1677  0.1596  0.0719
20953W        W36084  13.455   9.787  12.185 -0.2004  0.3673 -0.0212
20954W        W36085   7.140  17.933   4.438 -0.0902  0.1195 -0.0812
20955W        W36086   4.063   3.896   4.041  0.1538 -0.0652 -0.0294
20956W        W36087  15.264  12.113   1.221  0.0367  0.0899 -0.1499
20957W        W36088   9.429  10.191  11.849  0.2395  0.0738 -0.0176
20958W        W36089   4.775   7.783   1.796 -0.0041  0.2709  0.1624
20959W        W36090   5.176  17.562  15.070  0.2305 -0.0008  0.0703
20960W        W36091  10.954   7.197  11.653  0.0945  0.2024 -0.1034
20961W        W36092  14.069   3.371  12.782  0.1189 -0.3057  0.2942
20962W        W36093   7.145   0.852   5.623  0.0134  0.2165 -0.1935
20963W        W36094  12.607   6.370  10.505 -0.2508  0.4382  0.1517
20964W        W36095   6.812   8.900  12.934 -0.1264  0.1038 -0.2891
20965W        W36096   0.115   8.525  15.384  0.2552 -0.0558 -0.2490
20966W        W36097   0.262  14.297   2.107  0.0512  0.1234  0.0908
20967W        W36098  14.084  13.478   3.542  0.2659  0.1408  0.0629
20968W        W36099   2.677  11.537  15.614  0.0225  0.2819 -0.0397
20969W        W36100   8.836   2.409  15.704  0.0940 -0.1391 -0.0512
20970W        W36101   8.193   3.972  10.779  0.3932  0.0836  0.1302
20971W        W36102   8.099   0.444  14.901  0.0176 -0.1028 -0.3297
20972W        W36103   6.136   3.525   2.710  0.0405 -0.0890 -0.0805
20973W        W36104  10.591   0.734   6.493  0.3168 -0.0894 -0.1712
20974W        W36105   5.489  12.325  12.273 -0.2577 -0.0798  0.2483
20975W        W36106   9.098   3.268  11.825 -0.2263  0.2224  0.3872
20976W        W36107   5.833   2.812   3.133 -0.0261 -0.0582  0.1657
20977W        W36108  16.669   9.169   1.224  0.2157 -0.0351 -0.1229
20978W        W36109  17.543   3.293   3.262 -0.0021 -0.0528 -0.1630
20979W        W36110   8.507  11.720  12.039  0.2129 -0.2693 -0.1031
20980W        W36111  14.901   3.625  14.647 -0.0930 -0.2836  0.0411
20981W        W36112   9.418   6.354   1.040 -0.0951 -0.1079  0.3220
20982W        W36113   4.948  15.336   1.022  0.2585 -0.0703  0.0425
20983W        W36114  17.855  16.381  12.771  0.0615  0.1796  0.0985
20984W        W36115   4.888  13.018   5.961  0.0111 -0.1384  0.0377
20985W        W36116  10.096   2.318   4.009 -0.1437  0.2677  0.3535
20986W        W36117   9.568   2.008   5.223 -0.2027  0.0719 -0.1364
20987W        W36118   0.456   1.989  11.756  0.1345  0.1313 -0.2366
20988W        W36119  17.261   2.465  15.153 -0.1845 -0.0462  0.1488
20989W        W36120   2.985   4.483   0.395  0.1088  0.1414 -0.0141
20990W        W36121  18.346  15.846  15.322  0.0663 -0.0935  0.3195
20991W        W36122   5.459  13.933  15.670 -0.1473 -0.1082 -0.2178
20992W        W36123  15.684  10.198  11.413 -0.1813 -0.0664 -0.0797
20993W        W36124   0.750  14.355  14.318  0.2032  0.0527 -0.3269
20994W        W36125   7.060   7.351  11.554  0.1896  0.4049 -0.1508
20995W        W36126  10.979  12.137  11.363 -0.2009  0.2449  0.0626
20996W        W36127  10.430  11.745   4.418  0.0442 -0.3014 -0.1614
20997W        W36128   8.441  17.317  13.360 -0.4960 -0.2964  0.0527
20998W        W36129  12.474   2.053   4.043  0.1160 -0.0145  0.1142
20999W        W36130   9.009   5.671  12.218 -0.1032  0.3261  0.1585
21000W        W36131   8.679   9.474  14.543  0.0044 -0.0401  0.0455
21001W        W36132  11.483   1.705   4.240  0.1636  0.0906  0.0322
21002W        W36133  12.460  14.839  10.927  0.2832  0.0321  0.0496
21003W        W36134   6.225  14.772   4.828 -0.0948  0.0522  0.2163
21004W        W36135   8.993  18.415   0.216  0.0506 -0.1812  0.1385
21005W        W36136  12.878  11.730   2.477 -0.2827 -0.2426 -0.0018
21006W        W36137  13.234  11.095   9.719 -0.2018 -0.0041 -0.4590
21007W        W36138   3.194  10.711   5.728 -0.2425  0.1056  0.2307
21008W        W36139   6.300   4.735  11.901 -0.1365 -0.1510  0.1853
21009W        W36140  17.090  16.318  13.344  0.0555 -0.2192 -0.3698
21010W        W36141   6.588   5.196   4.334  0.4541 -0.0446 -0.1554
21011W        W36142  10.377   2.358   4.457  0.1588  0.2796  0.1680
21012W        W36143   2.557   2.741  15.013  0.1718 -0.1089 -0.0295
21013W        W36144  15.423  15.015   3.771 -0.0439  0.1061  0.2039
21014W        W36145  12.649   3.367   4.103 -0.2048  0.0570 -0.2081
21015W        W36146  11.194   7.332   0.456  0.0487  0.1955  0.0401
21016W        W36147   1.351   0.577   3.554 -0.2469 -0.0746  0.1731
21017W        W36148   9.551  10.343  13.084 -0.0661 -0.1364 -0.2139
21018W        W36149   2.787   4.076   1.681  0.4397  0.0610  0.1334
21019W        W36150   0.228   4.936   4.210  0.1269  0.2848 -0.4769
21020W        W36151  10.995   0.870  12.948 -0.1105 -0.0901 -0.2885
21021W        W36152   8.760  10.911   0.274 -0.0016 -0.3307 -0.0244
21022W        W36153  16.434   0.890  14.639 -0.1881  0.0058 -0.2215
21023W        W36154   3.182  15.375  13.977 -0.2140 -0.0007  0.2350
21024W        W36155  12.562   0.947   4.746 -0.1862 -0.4084 -0.4209
21025W        W36156  13.374   9.678   4.142  0.3250 -0.0156 -0.1003
21026W        W36157   7.680   8.910  12.287  0.2282 -0.3223  0.3074
21027W        W36158   2.531   1.920   4.103 -0.0901  0.0411 -0.1045
21028W        W36159  15.598  11.353   2.196 -0.1550  0.1072  0.1978
21029W        W36160   2.905   2.581   1.509 -0.1150 -0.0559 -0.0614
21030W        W36161  13.160   1.114   3.387  0.0645  0.0777 -0.3531
21031W        W36162  10.697   1.551  15.683 -0.0350 -0.0343 -0.2973
21032W        W36163  12.903   0.761   0.858  0.0573  0.0784  0.3182
21033W        W36164  16.458   3.333   3.261  0.1712 -0.0490  0.0171
21034W        W36165  13.067  12.542  15.713 -0.0879  0.1929  0.1471
21035W        W36166   6.961   3.684  12.431 -0.0433  0.3401 -0.1758
21036W        W36167  17.228  12.230  13.835  0.0571  0.2017  0.1768
21037W        W36168  13.258  10.185   5.269 -0.0992  0.2460  0.0436
21038W        W36169   2.294   2.792  13.356  0.0826  0.0347 -0.0564
21039W        W36170  13.293   3.396  13.238 -0.0719 -0.4567  0.1465
21040W        W36171  16.531   1.899  11.102  0.2883 -0.2173 -0.0393
21041W        W36172  11.213  14.675  11.087 -0.1547 -0.0021 -0.0574
21042W        W36173   3.814   6.376  15.424 -0.0569 -0.1697  0.0303
21043W        W36174   4.249  12.752  12.550 -0.0354  0.1886 -0.0464
21044W        W36175   2.381   1.909  14.546  0.1549  0.0341  0.0492
21045W        W36176   9.061  14.484  12.606  0.1307  0.0573 -0.4745
21046W        W36177   1.682  17.645  15.039  0.1373 -0.1469 -0.2534
21047W        W36178   7.936   2.777   0.785 -0.2603  0.4118 -0.1483
21048W        W36179  10.425   0.069   3.797  0.0356  0.2813  0.4137
21049W        W36180   7.999  17.428   2.358 -0.2101 -0.2984 -0.0504
21050W        W36181  16.282   6.793   3.517  0.1044  0.0965 -0.4649
21051W        W36182  10.242  17.821   3.052  0.2025  0.0778 -0.0991
21052W        W36183   9.236   2.785  11.091  0.2571  0.1053 -0.0365
21053W        W36184   3.756  12.391  12.737  0.0396 -0.2436 -0.0771
21054W        W36185   5.467  16.662  14.461 -0.2394  0.1371  0.0365
21055W        W36186  14.540   4.791   4.591  0.1355 -0.0916 -0.0732
21056W        W36187   4.453   2.966   4.042 -0.1803  0.0815 -0.0089
21057W        W36188  15.044   0.035   4.231  0.1274 -0.2076  0.0216
21058W        W36189  18.598   5.948  11.836 -0.0952 -0.2812  0.0275
21059W        W36190  10.651  14.769   1.597  0.1863  0.3990 -0.1979
21060W        W36191  10.076   5.995  13.705  0.3105  0.0590  0.0788
21061W        W36192   8.618   6.606   2.715  0.1684 -0.2155 -0.2438
21062W        W36193   4.413  15.784   5.814 -0.1435  0.1712  0.0169
21063W        W36194  15.959   8.461   2.172 -0.1329  0.1528  0.2733
21064W        W36195   1.802  11.827   1.084 -0.1272  0.1561 -0.0106
21065W        W36196   8.428   4.085  12.075 -0.3862  0.1604 -0.2913
21066W        W36197  10.425  18.000   3.627 -0.2725  0.1827  0.0490
21067W        W36198   8.179   1.598   3.836 -0.0908  0.2271  0.1115
21068W        W36199  16.708  15.980   5.704 -0.0776 -0.2877  0.0708
21069W        W36200   5.436   0.115   4.751  0.2316  0.0809  0.0469
21070W        W36201   7.384  12.249   1.879  0.0278  0.1607  0.0300
21071W        W36202   0.582   4.683   4.544  0.1303 -0.2206 -0.1213
21072W        W36203   0.132  14.549   4.493  0.3104  0.0118  0.0652
21073W        W36204  11.354   7.924   3.459 -0.1583 -0.1262 -0.0111
21074W        W36205   6.948  13.281   0.593  0.3372  0.1457 -0.0126
21075W        W36206   1.033   7.115  13.802  0.2126 -0.0981  0.2276
21076W        W36207   3.496  10.633   4.603  0.1390 -0.1570 -0.0596
21077W        W36208   2.687  14.528  11.301 -0.0326 -0.2049 -0.1883
21078W        W36209  11.065  14.779   0.646  0.0810 -0.2496  0.1783
21079W        W36210   5.102  18.068   5.058  0.0816 -0.0373  0.0381
21080W        W36211   7.192  15.626   5.242 -0.0685  0.0191  0.2050
21081W        W36212   2.059   4.597   4.847  0.2487 -0.0025 -0.2777
21082W        W36213   0.970   3.978   3.063 -0.0003 -0.0889  0.0326
21083W        W36214  12.184   3.412   2.396  0.2864  0.1345 -0.2379
21084W        W36215  12.068  10.161  11.120 -0.2551  0.5073 -0.0182
21085W        W36216   8.232   5.509   0.837  0.2169 -0.1659  0.1374
21086W        W36217   4.074  10.329  11.600  0.0543  0.1800 -0.2222
21087W        W36218   5.015  16.416  12.005 -0.3761 -0.0333 -0.0402
21088W        W36219   4.099  12.033  11.292  0.1597 -0.1702 -0.1101
21089W        W36220   4.103   0.346  12.534  0.0670  0.0325  0.3810
21090W        W36221  18.576   5.653   9.641  0.1834 -0.3379 -0.1372
21091W        W36222   2.761  10.659   6.218  0.1368 -0.0683  0.1003
21092W        W36223   1.651  17.090  14.350  0.1406  0.2109 -0.3596
21093W        W36224  14.661   5.597  12.996 -0.0304  0.1611  0.0713
21094W        W36225   8.478   0.702  13.553 -0.0070  0.0418  0.0932
21095W        W36226  13.697   3.885   4.935  0.3106 -0.0667  0.3751
21096W        W36227   2.305  14.093  12.437  0.0852 -0.1576  0.2308
21097W        W36228   2.232  15.966   4.962  0.1822  0.1366  0.2260
21098W        W36229   7.647  14.765   3.993  0.0230  0.3323 -0.1559
21099W        W36230  15.697  18.708   5.753 -0.0878  0.3362 -0.0289
21100W        W36231  17.317  18.473   1.698  0.3835 -0.3577 -0.2248
21101W        W36232   3.440  13.127   5.278  0.2313  0.3005 -0.0759
21102W        W36233  15.094  11.009   3.113 -0.3034  0.0384  0.1188
21103W        W36234  13.213   5.404   3.237 -0.2845  0.2945  0.2651
21104W        W36235  18.316   0.682  13.018 -0.1553  0.1473 -0.5924
21105W        W36236  13.903  14.740  11.143  0.1249  0.4712 -0.0087
21106W        W36237  17.591   3.231  10.756 -0.0313 -0.1645  0.3279
21107W        W36238   9.754  18.666  14.380 -0.1527  0.1525  0.2190
21108W        W36239  11.650  16.291   2.911 -0.1814 -0.0072  0.0383
21109W        W36240   7.587   0.658   4.860  0.1091  0.0132  0.0800
21110W        W36241   2.592   7.936   2.055  0.1341 -0.0782  0.1846
21111W        W36242  14.021  17.320  12.806  0.3015 -0.2143  0.0108
21112W        W36243   4.658   6.676  13.012 -0.0287 -0.2881  0.0549
21113W        W36244  15.304   1.617  14.871  0.1951 -0.0814 -0.0992
21114W        W36245  10.168   5.199   2.253 -0.0113  0.2580 -0.0280
21115W        W36246  16.129  15.007   1.773  0.4336  0.1130  0.1594
21116W        W36247  12.854  18.462  10.828 -0.0669  0.1005  0.1259
21117W        W36248   6.353   5.128   3.410  0.1457 -0.1855 -0.0557
21118W        W36249   7.067  12.940   4.891  0.4209  0.1608  0.0460
21119W        W36250   6.906  12.546   1.179  0.0170 -0.0816  0.2099
21120W        W36251   0.138   8.861   3.710 -0.0498 -0.0197  0.2507
21121W        W36252   5.279   6.208   4.509 -0.4196  0.4829  0.0901
21122W        W36253   7.293   5.830   2.409  0.1263  0.0724  0.0936
21123W        W36254  14.676   7.976   2.596 -0.3686  0.0627 -0.1213
21124W        W36255   9.525  11.307  13.482 -0.2164 -0.1573 -0.3225
21125W        W36256   4.666  17.334  12.130  0.0635  0.0851  0.0042
21126W        W36257   4.800  11.992  14.276 -0.1150 -0.1566  0.2217
21127W        W36258   3.356   2.837   4.405  0.0952 -0.1679  0.1154
21128W        W36259   6.622  18.008  13.335  0.3089  0.0465  0.0657
21129W        W36260  15.152  18.014   0.027 -0.0345 -0.1272  0.1919
21130W        W36261  13.304  16.316  10.452  0.0202 -0.1622  0.1850
21131W        W36262   3.795   8.308   2.945 -0.1661 -0.0762 -0.0604
21132W        W36263  18.547   2.901  13.325  0.0288  0.0898 -0.2522
21133W        W36264   7.286  13.286  10.858 -0.2097 -0.0160 -0.0457
21134W        W36265   9.068  17.901   0.045 -0.1234 -0.1723 -0.1313
21135W        W36266   9.394   4.324   1.703  0.2775  0.1966  0.0964
21136W        W36267  13.530  11.649  13.762  0.0166 -0.0088 -0.0221
21137W        W36268   2.734  13.533   4.980  0.0182  0.2726  0.0659
21138W        W36269  14.500   9.630  11.061 -0.1628  0.1990  0.2805
21139W        W36270   1.800  10.315  13.031 -0.0583 -0.4631 -0.2308
21140W        W36271   9.758   9.942  13.820  0.3862  0.2183 -0.1583
21141W        W36272   1.367  11.187  14.570  0.2923 -0.2955  0.0464
21142W        W36273   4.075   7.623  12.614 -0.0114  0.1107 -0.1987
21143W        W36274   3.849   0.028  11.816 -0.0382 -0.1904  0.1766
21144W        W36275   0.714  16.487  14.592 -0.1230 -0.2726  0.2671
21145W        W36276   0.170  10.781   3.092 -0.5867 -0.5187  0.1614
21146W        W36277  14.788   2.693  14.153  0.2462  0.1044  0.1732
21147W        W36278  11.125   5.803  10.601 -0.0877  0.2974 -0.0695
21148W        W36279  15.497  14.874   2.733 -0.0014 -0.4106 -0.4765
21149W        W36280  11.760   4.362  14.908  0.0358  0.0416  0.0447
21150W        W36281  17.856  17.408   2.575 -0.0814 -0.1377 -0.1700
21151W        W36282  14.061   9.716  15.091 -0.1040  0.0408  0.2081
21152W        W36283   4.417   4.996   3.900  0.0580 -0.0587 -0.0930
21153W        W36284   9.510  16.536  15.368  0.0808 -0.0417  0.0389
21154W        W36285  18.282  11.308  13.913  0.2455  0.3604  0.1912
21155W        W36286  15.145   8.639  15.499 -0.2363 -0.0638 -0.3936
21156W        W36287   2.499   2.651  10.993  0.1444  0.0639  0.1954
21157W        W36288   0.955  11.387  10.680  0.0234  0.2126  0.3585
21158W        W36289  14.970  17.096  11.959  0.1820 -0.1448 -0.1679
21159W        W36290  11.935   0.676  12.548 -0.0152 -0.1184  0.0535
21160W        W36291   8.165   8.412  15.204 -0.0256  0.1760  0.2790
21161W        W36292   8.881   1.888   1.505 -0.2240  0.0439 -0.0503
21162W        W36293   3.992  14.934  11.440 -0.1409 -0.1611  0.0385
21163W        W36294  15.599   8.818   4.778 -0.1588  0.3051 -0.3305
21164W        W36295  14.502  11.424   3.252 -0.1151 -0.0365 -0.1676
21165W        W36296  17.533   0.829  12.896 -0.1190 -0.2495  0.0452
21166W        W36297   3.160   9.485   1.395 -0.3307 -0.0963 -0.1397
21167W        W36298  10.772  16.583   4.617 -0.0810  0.2834  0.2136
21168W        W36299  18.346   9.714   0.493  0.0411 -0.0397 -0.0731
21169W        W36300  13.839  14.939   2.050  0.2567 -0.0592  0.0866
21170W        W36301   1.641  11.904  13.276 -0.0925  0.1961 -0.1056
21171W        W36302  12.078  18.717  12.820  0.2087 -0.1638  0.1691
21172W        W36303   9.173   7.739  13.169  0.2262 -0.2236  0.1299
21173W        W36304  12.705   5.561  12.726 -0.0531  0.1109  0.0681
21174W        W36305   7.788  15.762   1.951  0.0158 -0.0196 -0.0728
21175W        W36306   6.464   1.895  10.156 -0.3255 -0.1913  0.1608
21176W        W36307   8.571  15.584  14.267 -0.0717 -0.0823 -0.2475
21177W        W36308   0.295   5.323  12.963  0.2604  0.0561 -0.2634
21178W        W36309   5.805  11.291   3.587  0.1647 -0.3217 -0.1083
21179W        W36310  11.363  11.135  13.897 -0.1319  0.0815  0.0161
21180W        W36311  14.185  12.486  12.633 -0.1852 -0.0018  0.0158
21181W        W36312  16.133  12.709  14.929 -0.0351 -0.2775 -0.0782
21182W        W36313  11.657   4.382  13.869 -0.1364  0.1387 -0.0798
21183W        W36314   7.105  12.095   3.551 -0.1379 -0.0810 -0.1098
21184W        W36315  16.543   1.626   4.017  0.4867  0.0280  0.4333
21185W        W36316  18.037   8.960   0.163  0.3182 -0.1735  0.1130
21186W        W36317   2.059  15.667  12.156  0.1506 -0.0414 -0.2843
21187W        W36318  11.274   8.385   5.055  0.2471 -0.2081 -0.1360
21188W        W36319   7.494   6.188  13.573 -0.2988 -0.0647 -0.2811
21189W        W36320  11.614  17.824   0.003 -0.2995  0.0125 -0.3595
21190W        W36321  11.579   9.439  10.463 -0.3535 -0.1459 -0.1961
21191W        W36322   0.361  13.095   2.374  0.0413  0.0902 -0.2292
21192W        W36323   9.181  16.780   1.586 -0.1447  0.0428 -0.1438
21193W        W36324  14.104   0.497   1.329 -0.1024  0.2635 -0.3810
21194W        W36325   7.006  13.778  15.419 -0.1838 -0.1334  0.2622
21195W        W36326  12.547   2.371  14.203  0.6506 -0.0781  0.1092
21196W        W36327  14.561  11.859   4.155  0.0162 -0.2037 -0.3764
21197W        W36328   5.611   2.264  14.768  0.3391 -0.0784  0.4920
21198W        W36329  17.269   3.586   2.676 -0.0663 -0.0094  0.0001
21199W        W36330   5.607   0.745   0.016 -0.2721  0.0059  0.0223
21200W        W36331  18.347  16.639   1.327 -0.0080 -0.2636 -0.0030
21201W        W36332   5.287   0.926  11.940 -0.2536  0.0707  0.1454
21202W        W36333  10.291  15.994   1.721 -0.2396 -0.0045  0.1962
21203W        W36334  16.410  13.025  14.599  0.3360 -0.0708  0.2770
21204W        W36335  10.452   2.409  14.669 -0.0076  0.0431  0.1257
21205W        W36336  13.593  12.702   4.920 -0.1742 -0.6181 -0.2565
21206W        W36337  14.364   8.914   3.024 -0.0505  0.0744 -0.2543
21207W        W36338  10.536  16.398   1.567  0.0916 -0.1288  0.1617
21208W        W36339  17.458   8.687  14.773 -0.0763 -0.0725 -0.2419
21209W        W36340  13.133   0.671  15.241  0.2290  0.0732 -0.2937
21210W        W36341   1.149  13.633   5.772 -0.0180  0.1687  0.0586
21211W        W36342  12.059   1.433  11.401  0.2923  0.0012  0.1675
21212W        W36343  15.350   0.907  14.779  0.2633 -0.1486  0.0878
21213W        W36344  13.700  13.184   5.281 -0.4043 -0.3267  0.1332
21214W        W36345   0.297   5.796  12.835  0.0167 -0.0250  0.0105
21215W        W36346  18.433   1.978   4.439  0.1220  0.1071  0.2500
21216W        W36347   6.936   7.702   2.065  0.0042  0.0886  0.1551
21217W        W36348  14.889   6.619  15.298  0.0750 -0.0577 -0.4093
21218W        W36349   7.079  13.573   5.052  0.1417 -0.2188 -0.2218
21219W        W36350  12.698  10.660  14.752 -0.2032  0.0544  0.0331
21220W        W36351  10.429  16.728   5.672 -0.3148  0.0315 -0.4290
21221W        W36352  14.084  17.998  10.807 -0.1465 -0.1202 -0.2380
21222W        W36353  17.415   3.645   3.642  0.1860 -0.0480 -0.1009
21223W        W36354  15.389   4.669   2.631 -0.0615  0.0466  0.1001
21224W        W36355   2.311  10.779  12.103  0.1548  0.1957 -0.0675
21225W        W36356  16.489   6.511   0.907 -0.1654  0.0739  0.1241
21226W        W36357  18.603  14.844   2.821 -0.0761  0.1839  0.0490
21227W        W36358   1.992   1.636   6.331 -0.0578 -0.0728 -0.0714
21228W        W36359   0.035  13.763   5.120  0.0983 -0.2968  0.1694
21229W        W36360  12.456   8.738   4.053  0.1000 -0.2340  0.3637
21230W        W36361   2.024   0.810   2.762  0.1474 -0.1181 -0.2367
21231W        W36362   8.807  11.344  14.935 -0.2748 -0.0656 -0.1918
21232W        W36363  12.776  15.058  15.155  0.0198  0.0630 -0.3181
21233W        W36364  11.900   2.689  13.051 -0.0510  0.1313  0.0260
21234W        W36365   0.784   9.570   5.927  0.0495  0.0400 -0.1878
21235W        W36366  10.829   9.038   4.578  0.1972 -0.2538 -0.0586
21236W        W36367   8.465   0.478  15.336 -0.2325 -0.1178 -0.1452
21237W        W36368   0.247  13.091  10.736  0.0899  0.0461 -0.3126
21238W        W36369   8.448  17.556   5.226  0.0112  0.1963  0.0069
21239W        W36370  11.892  14.015  15.514 -0.0793 -0.0958 -0.2537
21240W        W36371   0.831  14.434   5.402 -0.0825  0.0399 -0.1586
21241W        W36372  17.092  16.408   1.093 -0.4591  0.3286 -0.0182
21242W        W36373  15.425   6.078  15.694 -0.0550 -0.5492 -0.3533
21243W        W36374   5.678   4.457   5.736 -0.1325  0.0363 -0.2865
21244W        W36375  13.477  17.248  10.463 -0.0441 -0.0020 -0.2067
21245W        W36376  10.358   8.963   0.330  0.0994 -0.1742  0.1424
21246W        W36377  11.764  16.524   0.491 -0.0001 -0.2149 -0.0322
21247W        W36378   4.638  17.258   0.996 -0.2209  0.1779  0.2816
21248W        W36379  17.992  10.856   0.338 -0.3231  0.0406 -0.0460
21249W        W36380  10.928   2.281   3.297 -0.1481 -0.1966 -0.2399
21250W        W36381   7.535   0.487  13.605 -0.0088  0.2625 -0.2122
21251W        W36382   4.321   1.198  12.021 -0.0790 -0.1134 -0.0847
21252W        W36383  14.880  14.411   4.063 -0.2951 -0.0991  0.0384
21253W        W36384  10.238  11.741  14.747 -0.3383  0.4204 -0.2070
21254W        W36385  13.446   3.834   3.156 -0.0704 -0.0341  0.2619
21255W        W36386   4.643   7.993   5.517 -0.0472  0.2497  0.0675
21256W        W36387   3.157  14.383   3.621  0.0289  0.1702 -0.1434
21257W        W36388   9.479   9.010   4.523  0.0892  0.0760  0.1877
21258W        W36389  18.578   1.628  12.720 -0.3515 -0.0953  0.0570
21259W        W36390   7.333   0.063  14.932  0.0827  0.2638 -0.1201
21260W        W36391  12.164   8.625   9.740 -0.1067 -0.1049 -0.1907
21261W        W36392   9.941   3.257   4.883  0.0168  0.0636 -0.0782
21262W        W36393  11.311   6.135   2.853 -0.1146 -0.0385 -0.1293
21263W        W36394  18.621  10.080   0.700 -0.0095  0.2966 -0.4392
21264W        W36395   6.136  16.563   3.882 -0.0218  0.0193 -0.2455
21265W        W36396   1.554   1.960   1.968 -0.2685 -0.1875  0.1456
21266W        W36397   0.194  17.771   0.511  0.2227 -0.4076 -0.1227
21267W        W36398  13.451   9.525  14.837 -0.1287 -0.4260  0.2428
21268W        W36399   3.309  10.921  15.037 -0.0010 -0.2688  0.3817
21269W        W36400  14.639  12.346  12.519 -0.0694 -0.1251 -0.2951
21270W        W36401  17.199   4.268  11.637 -0.1115 -0.2387  0.4169
21271W        W36402  18.252  15.304   1.036 -0.2316 -0.0189 -0.3637
21272W        W36403  13.214  15.211  11.431  0.1197 -0.1530 -0.0520
21273W        W36404  15.864   9.003  14.338  0.1976 -0.1489  0.0263
21274W        W36405  13.169   7.503  12.146  0.0618  0.2094 -0.0642
21275W        W36406  10.563   1.908  11.246 -0.0863  0.1752  0.1524
21276W        W36407   5.544   9.059  13.478  0.1144 -0.4628  0.3925
21277W        W36408  13.368  17.999   9.071  0.3075  0.1379 -0.1617
21278W        W36409   9.082   5.779  13.884  0.0614  0.0286  0.0752
21279W        W36410  16.291   4.360   1.496 -0.0291  0.2772 -0.3108
21280W        W36411  17.431   7.828  13.429 -0.1072  0.0762  0.2568
21281W        W36412   4.864   9.951  12.632 -0.1193  0.1373 -0.0812
21282W        W36413   8.237  16.619  13.526 -0.0049  0.1540 -0.1958
21283W        W36414   5.934   7.297   2.885 -0.3326  0.1222 -0.3739
21284W        W36415   5.554   8.656  11.688  0.2219 -0.0928  0.1872
21285W        W36416  16.535   5.790  13.300  0.3419  0.0460 -0.1206
21286W        W36417  14.447  16.331  14.409  0.3671 -0.0552 -0.0443
21287W        W36418  16.748   3.093  15.573 -0.0649  0.0682  0.1216
21288W        W36419   9.327   8.656  14.064 -0.2491  0.0920  0.0251
21289W        W36420  16.449   1.521   1.194  0.1265  0.2543  0.0215
21290W        W36421  15.389   9.320  13.344  0.0558  0.3811 -0.3466
21291W        W36422   8.676  11.686   0.906 -0.0335 -0.1976 -0.0004
21292W        W36423   4.217   9.987   2.618 -0.2256  0.1364  0.1826
21293W        W36424   1.813   9.290   2.006  0.3177 -0.3827 -0.2523
21294W        W36425  12.350  13.919  11.820 -0.0067 -0.0246  0.0984
21295W        W36426   1.019  11.228   0.078 -0.2662  0.0769  0.0680
21296W        W36427  17.379   9.726   1.109  0.1740  0.2423 -0.0314
21297W        W36428  18.334   8.198   5.023  0.0844 -0.0040 -0.0909
21298W        W36429  18.374   5.501  15.332 -0.1359 -0.2338 -0.3125
21299W        W36430   9.021   5.773   2.654 -0.0626 -0.0306  0.2364
21300W        W36431   0.105   8.764   0.965 -0.1373  0.1658  0.1651
21301W        W36432   1.885  16.559   5.380 -0.1871  0.0211 -0.0660
21302W        W36433   6.258   9.514  15.320 -0.1600  0.0860 -0.3167
21303W        W36434   1.914   1.229   4.204 -0.2783  0.1872 -0.0187
21304W        W36435  12.361  18.638  11.144  0.1532  0.0631  0.3956
21305W        W36436   5.288  12.055   3.922  0.2211  0.0392  0.6091
21306W        W36437   0.859  17.200  12.161  0.0709 -0.1570  0.0777
21307W        W36438  17.601  17.100  13.207  0.0964 -0.0141  0.2225
21308W        W36439  14.423  11.973   0.304  0.2198  0.0641 -0.1637
21309W        W36440   6.040  17.037  15.054 -0.0178  0.0083  0.2685
21310W        W36441  16.189  13.765   3.459 -0.3190  0.1071 -0.3791
21311W        W36442  14.470  11.422   4.864  0.3287  0.0899  0.2375
21312W        W36443  17.937   9.493  12.394 -0.4903  0.2617  0.1786
21313W        W36444  16.946   4.511   3.869 -0.1004  0.0729  0.1770
21314W        W36445   0.091   2.020  13.149  0.1838 -0.1471  0.0491
21315W        W36446   4.573   8.918   5.306 -0.0274 -0.2218  0.3473
21316W        W36447   6.598   2.325   0.683 -0.3516 -0.0148 -0.0713
21317W        W36448   2.673   8.993   2.517  0.0998  0.1074  0.1449
21318W        W36449  12.898   3.265  12.277  0.1550 -0.3958  0.0243
21319W        W36450  14.832   0.955  15.611  0.1213  0.0524 -0.0186
21320W        W36451  17.678  13.608   1.422 -0.0961 -0.2961 -0.2667
21321W        W36452   7.715  11.912  15.241 -0.1698 -0.0286 -0.2090
21322W        W36453  14.428   9.206   1.337  0.0651 -0.0210 -0.0608
21323W        W36454   7.243  11.007   4.095  0.3244 -0.0391 -0.2006
21324W        W36455  17.083  14.731  10.064  0.1602  0.3111  0.0612
21325W        W36456   2.984  12.744  15.614 -0.0642 -0.0820 -0.1228
21326W        W36457   4.772  17.469   1.519  0.1394  0.1189 -0.2077
21327W        W36458   9.265   6.903  15.151 -0.1646 -0.1667  0.1050
21328W        W36459   4.559   9.716  10.704 -0.0323 -0.0628  0.0035
21329W        W36460  12.674   2.468  14.707 -0.0018  0.1799 -0.0593
21330W        W36461  16.187   9.320   2.870 -0.1839 -0.1160 -0.0109
21331W        W36462  18.441   2.180   1.839 -0.1177 -0.1529 -0.2624
21332W        W36463   9.734   8.941  15.381  0.0965  0.0657 -0.0511
21333W        W36464  10.545   9.464  11.850  0.0498  0.0501  0.2688
21334W        W36465  10.689  14.008   4.350  0.4415 -0.5664  0.3051
21335W        W36466  17.026  13.598   5.140 -0.2085  0.1185 -0.3631
21336W        W36467  15.029  15.981   2.312 -0.2817  0.1619 -0.0421
21337W        W36468  12.976   7.012   2.203  0.1891  0.1462  0.2304
21338W        W36469  16.492   9.581   2.580 -0.0058 -0.2192 -0.2867
21339W        W36470  10.529   3.626   3.801 -0.2251  0.0201  0.3432
21340W        W36471   6.077  18.512   2.589  0.0655 -0.0367 -0.0467
21341W        W36472   4.200   8.071  13.460  0.2189  0.2104  0.1151
21342W        W36473   5.696  17.578   5.383 -0.0230 -0.2660 -0.3119
21343W        W36474   3.168   7.686   2.640 -0.0542 -0.1560  0.0169
21344W        W36475   5.064   1.675   0.833 -0.1487  0.1078  0.0117
21345W        W36476  12.136   6.754   1.992  0.2869  0.2275  0.0749
21346W        W36477   2.479   5.905   1.149 -0.0312 -0.0801 -0.0449
21347W        W36478  12.879   0.807   5.097 -0.0537  0.0016 -0.1890
21348W        W36479   5.503   5.840   2.535  0.2234 -0.3139  0.3628
21349W        W36480   5.696   3.589   5.497 -0.0519 -0.1670  0.0237
21350W        W36481  16.115   9.803   1.715  0.3921 -0.0817 -0.3910
21351W        W36482   2.581  18.320  12.281  0.3740  0.0390  0.1812
21352W        W36483   8.659   3.480   3.939  0.4441 -0.1585 -0.0139
21353W        W36484   9.232  10.798   0.243 -0.1220  0.0692  0.2475
21354W        W36485  16.817  16.123  12.982  0.2739  0.0437  0.0905
21355W        W36486  17.324   0.222   0.878  0.2542  0.0543  0.2435
21356W        W36487  10.151  16.408  13.558 -0.1906 -0.0912 -0.1523
21357W        W36488  15.505  17.824   1.770 -0.0134  0.2238  0.0480
21358W        W36489  13.014   6.526   0.877 -0.2622 -0.3316 -0.5140
21359W        W36490  10.976  10.702  10.722  0.0487  0.0863 -0.2241
21360W        W36491   9.376   5.347  13.593 -0.1965 -0.1922 -0.1111
21361W        W36492   9.634   7.973  10.869 -0.3532  0.1193  0.5021
21362W        W36493  17.917   0.948  15.240 -0.0341 -0.3752 -0.1659
21363W        W36494   2.776   3.526   1.467 -0.0259 -0.1511  0.0373
21364W        W36495  15.196   3.212  10.386  0.0194 -0.2211 -0.2719
21365W        W36496   4.910  11.486  14.116 -0.0950  0.2242 -0.0850
21366W        W36497  12.524   6.261   3.020 -0.0595  0.0733 -0.0387
21367W        W36498  12.915   3.880   2.095 -0.2917  0.1136 -0.1994
21368W        W36499  11.495  15.613  11.984 -0.2745  0.1516  0.0979
21369W        W36500   8.539   4.203   2.037  0.1256  0.1026  0.1168
21370W        W36501   4.949   2.867   1.536 -0.0799  0.1246 -0.3499
21371W        W36502  12.324  16.815  14.053 -0.0402  0.1660 -0.3109
21372W        W36503  13.686  14.892   0.597 -0.1550  0.0120  0.0569
21373W        W36504  15.100  11.731   1.929 -0.0056 -0.0020 -0.0923
21374W        W36505   5.651   6.962   4.071  0.1326  0.0733 -0.2599
21375W        W36506   3.817   7.276  13.530  0.1691 -0.0356 -0.2646
21376W        W36507  14.292  17.855  14.610  0.1139 -0.1087 -0.0732
21377W        W36508  17.113   5.100   1.508 -0.1004  0.0009 -0.0526
21378W        W36509  16.376   5.242   2.033  0.1066  0.0831 -0.0354
21379W        W36510   6.056  12.930   1.641  0.1226  0.1750  0.1916
21380W        W36511   5.553   4.855   4.887 -0.0972  0.3255  0.0631
21381W        W36512   5.216  10.867  13.628 -0.0324  0.1008  0.2677
21382W        W36513   4.059   3.047  13.943  0.0857 -0.0157  0.2112
21383W        W36514  17.910  13.961   4.911  0.1806  0.1578 -0.0481
21384W        W36515  13.741   3.478  12.279 -0.1994 -0.0341 -0.0138
21385W        W36516   2.735  14.509  14.244  0.0813 -0.0497 -0.3331
21386W        W36517  13.106   8.042   4.985 -0.0013  0.0861  0.4743
21387W        W36518   6.726  11.128   1.341  0.0218  0.1393  0.1274
21388W        W36519   6.777  10.505  14.349  0.4023 -0.0183  0.0333
21389W        W36520   6.353  13.467  14.190 -0.0761  0.2696  0.1345
21390W        W36521  10.113  15.473   5.023  0.2796 -0.0404 -0.0188
21391W        W36522   2.172   0.227  13.131 -0.0452  0.1728 -0.1876
21392W        W36523   2.258   1.463   4.999 -0.1904  0.1381 -0.2878
21393W        W36524  14.552  15.230   2.496  0.2007  0.0074  0.1452
21394W        W36525   6.575  15.514   2.334 -0.0027 -0.1041  0.0235
21395W        W36526   6.309  15.753   5.586 -0.2116  0.0947  0.0901
21396W        W36527  15.625  11.598  11.309  0.0877 -0.1333  0.0105
21397W        W36528   8.066   8.737  13.440  0.0095 -0.0236  0.2169
21398W        W36529  17.475  12.883  11.402 -0.4469  0.1111 -0.2587
21399W        W36530   1.356   0.008  11.941  0.1713  0.0700 -0.3832
21400W        W36531   9.299   5.240   0.240 -0.1445 -0.0029 -0.1710
21401W        W36532   8.690   7.022  10.923 -0.0537  0.0579  0.1505
21402W        W36533  15.846   6.789   3.292 -0.3634 -0.3667 -0.0118
21403W        W36534   5.939   2.497   1.684  0.0477 -0.0761 -0.2790
21404W        W36535   8.663  15.138   0.679  0.0562 -0.0937 -0.0124
21405W        W36536   6.101   1.498  14.960  0.3443 -0.0240 -0.0054
21406W        W36537   1.101   6.836  11.221 -0.1993  0.0314  0.0159
21407W        W36538  16.229  17.012   5.246  0.2034  0.1416  0.0639
21408W        W36539  14.096  12.876  10.803 -0.4209  0.0050  0.0141
21409W        W36540   5.831  12.194   3.060 -0.3612 -0.1181  0.0163
21410W        W36541  14.304  12.481  11.064  0.3024  0.0685  0.0757
21411W        W36542   2.504  13.064   5.643  0.0937 -0.0192  0.2233
21412W        W36543  13.613  17.202   1.165 -0.2378  0.1989  0.1015
21413W        W36544   3.973   5.115   0.411  0.1987 -0.1302  0.0267
21414W        W36545  13.653   5.718  12.686  0.2158  0.2117  0.4164
21415W        W36546  13.239   3.862   4.200  0.4717 -0.0810 -0.0145
21416W        W36547   0.277   0.904   1.307  0.0099 -0.2055  0.0656
21417W        W36548  12.502   1.987  14.633  0.0388  0.1404 -0.0990
21418W        W36549   7.701   2.643  15.783  0.1179 -0.1061  0.1661
21419W        W36550  14.764   3.119   1.046  0.0800 -0.1160 -0.2846
21420W        W36551  13.163  14.134   5.582 -0.0040 -0.1444  0.1999
21421W        W36552  14.153   6.990  14.457  0.0262  0.2978 -0.2834
21422W        W36553  10.328   5.780   2.645 -0.1225  0.2288 -0.0918
21423W        W36554   6.536  15.957   9.780 -0.0117 -0.1331 -0.2149
21424W        W36555   2.157  11.825  13.232  0.0534  0.2473  0.1123
21425W        W36556  14.986   3.678  15.750  0.1958 -0.0804  0.2419
21426W        W36557   5.455   6.950   2.049 -0.2222 -0.2499 -0.0199
21427W        W36558  15.208   6.180  13.840 -0.0893  0.2392 -0.0316
21428W        W36559  13.003   9.180   3.840  0.1756 -0.1296 -0.2131
21429W        W36560  15.595  14.237  15.575  0.0981 -0.2149 -0.1311
21430W        W36561   2.612   1.559   0.896  0.2918  0.0547  0.0307
21431W        W36562   2.288  17.293  13.587 -0.2681 -0.2800 -0.1817
21432W        W36563   7.063  16.594  13.081  0.0917 -0.0263  0.3610
21433W        W36564   5.097   3.708  11.489  0.0460 -0.0813 -0.1197
21434W        W36565  10.008   0.999  15.713 -0.0362 -0.2267 -0.0392
21435W        W36566   8.144   5.484  12.596 -0.0919 -0.2910 -0.1060
21436W        W36567  15.587   9.751   0.999  0.2565  0.3250 -0.1068
21437W        W36568  15.823  15.413   3.949  0.1533 -0.4344 -0.1834
21438W        W36569  14.168  18.373  13.282 -0.0334  0.1958  0.1125
21439W        W36570   9.625  11.346   0.349  0.3401  0.0912 -0.1261
21440W        W36571   7.422   2.140   5.765  0.1448  0.2086 -0.2428
21441W        W36572  12.823   6.771  10.415 -0.0931  0.0961 -0.2921
21442W        W36573   4.441   3.481  12.363 -0.1286  0.2818 -0.1329
21443W        W36574  10.110   4.201   4.715 -0.3258  0.0466 -0.0522
21444W        W36575  13.886  18.034   1.132 -0.0768  0.1573  0.0380
21445W        W36576  13.988  17.665   3.659  0.1091  0.1179  0.1411
21446W        W36577  16.050  14.262   3.636  0.0869 -0.1504  0.0366
21447W        W36578  13.747  11.938   0.506 -0.2212  0.0656 -0.2234
21448W        W36579   9.951   2.118  15.387  0.2252 -0.0297  0.2245
21449W        W36580  17.853  18.495   0.494  0.0418  0.0063 -0.2355
21450W        W36581   1.236  16.636  10.664  0.1167 -0.4198 -0.0038
21451W        W36582   8.224   0.455  11.507 -0.1948  0.0161  0.0048
21452W        W36583   2.593   5.914   4.359  0.0638  0.0958 -0.0835
21453W        W36584   1.167   4.888   3.231 -0.1902 -0.1344  0.3881
21454W        W36585   7.317   7.823   3.424  0.1228 -0.1077 -0.2161
21455W        W36586   3.933  17.591   5.027  0.2802 -0.1475 -0.1392
21456W        W36587  17.938   8.967  12.560 -0.0391 -0.2442  0.4092
21457W        W36588  16.267   2.960   2.798  0.4047  0.0236 -0.2784
21458W        W36589   3.717   3.374  10.674  0.0326  0.1785 -0.0506
21459W        W36590  18.164   3.545  12.485 -0.1004 -0.1729  0.2437
21460W        W36591   4.685   0.994   3.381  0.2675 -0.0956 -0.2797
21461W        W36592  13.070   2.250  14.482 -0.1124  0.1774  0.1494
21462W        W36593   7.922   1.606   4.303  0.1783  0.5900 -0.1510
21463W        W36594   5.936   4.209  11.654 -0.1535  0.1427  0.1493
21464W        W36595   2.656  14.165   3.608  0.0287 -0.0518 -0.2813
21465W        W36596  12.803  15.755  14.347  0.2372  0.0422  0.1893
21466W        W36597  14.026   6.672   4.040 -0.1476 -0.0107 -0.1523
21467W        W36598   5.456  11.156   0.622 -0.0685  0.0099  0.2314
21468W        W36599   8.063  17.573   4.440 -0.2638 -0.0284 -0.4882
21469W        W36600   1.149   9.541   4.100  0.1409  0.2333  0.1216
21470W        W36601  16.810   5.459  12.298  0.0786  0.2563 -0.1126
21471W        W36602  15.588   0.073   1.433 -0.1243  0.1303  0.0772
21472W        W36603   8.733   5.144  12.441 -0.0190  0.3225  0.2625
21473W        W36604  16.329   2.262  11.400 -0.2316  0.0947 -0.0308
21474W        W36605  17.019   9.786  10.850  0.1598  0.3820  0.1180
21475W        W36606  10.533  16.942  11.107  0.1718  0.0313  0.1942
21476W        W36607   0.103   4.850  10.208  0.0640  0.2387 -0.1286
21477W        W36608  18.071  14.945  12.444 -0.0534 -0.2828 -0.2374
21478W        W36609   5.458  13.940  13.655  0.2447 -0.4219  0.2137
21479W        W36610  14.958   0.302   9.492 -0.2478  0.0029 -0.0614
21480W        W36611  18.718  15.609   2.146 -0.3599 -0.0832 -0.0975
21481W        W36612  13.229   1.474  14.803  0.2341 -0.1245  0.0054
21482W        W36613  11.630   6.455  13.637  0.2036  0.1321 -0.1575
21483W        W36614   8.145   8.540  12.022 -0.4131  0.4323 -0.0451
21484W        W36615   3.304   8.297   2.026 -0.0840 -0.0155  0.1999
21485W        W36616  16.539   9.568   4.370 -0.1346  0.3213 -0.2410
21486W        W36617  18.592  14.447   2.413  0.3208 -0.1847 -0.3496
21487W        W36618   0.830  10.992   5.510 -0.2307  0.0088  0.1356
21488W        W36619   2.383   3.407   2.627  0.0447 -0.0997  0.0124
21489W        W36620   3.423  11.056  15.581 -0.0233  0.0804 -0.1053
21490W        W36621  10.324  12.479  12.405 -0.5241 -0.3781  0.0766
21491W        W36622  11.052   8.076   4.684  0.0540  0.1885  0.0395
21492W        W36623  18.402   5.659  10.961  0.0354  0.3005  0.1451
21493W        W36624   3.838   6.504  10.449  0.2068 -0.0249  0.3934
21494W        W36625  16.326   3.857   1.239 -0.3491 -0.1070  0.0417
21495W        W36626  18.439  15.986  13.885 -0.3035  0.2210 -0.0883
21496W        W36627  15.182  12.515  14.784  0.0853  0.2566  0.3065
21497W        W36628   3.988  15.918  12.860  0.1909 -0.1846 -0.1552
21498W        W36629   0.865   5.056  12.750 -0.2943  0.0447  0.1708
21499W        W36630  12.963  16.077   4.917  0.2609  0.0160 -0.0595
21500W        W36631   9.805   4.857  13.316 -0.3123  0.4093 -0.3527
21501W        W36632   3.164   5.616  15.111  0.0409  0.1178  0.0585
21502W        W36633   3.063   7.973   2.296  0.0931  0.2351 -0.1039
21503W        W36634  16.486  12.366  12.355  0.2840 -0.1970  0.0853
21504W        W36635  12.166  12.279  11.612 -0.0120  0.0671 -0.1157
21505W        W36636  17.581  13.697   5.284 -0.3211 -0.1252  0.1780
21506W        W36637  14.809   8.723   3.307  0.2030 -0.0854  0.2628
21507W        W36638   9.937   4.169   2.617 -0.1339 -0.0947 -0.0136
21508W        W36639  14.797  10.953  11.360  0.2272  0.0065 -0.0135
21509W        W36640   8.427   7.956  13.671  0.1753 -0.1310 -0.0702
21510W        W36641  15.685   5.660  13.199  0.0515  0.2269  0.2691
21511W        W36642  18.053  10.690  11.747  0.0202  0.1130 -0.1511
21512W        W36643  18.485  11.937   1.383  0.1621 -0.0983 -0.0171
21513W        W36644   7.974  12.597  11.261  0.3331 -0.2340  0.1608
21514W        W36645   0.191   5.431  12.391  0.1779  0.1173  0.3002
21515W        W36646   5.312  14.965  12.000  0.0545 -0.2155 -0.0652
21516W        W36647  16.582  15.171   0.918  0.2031 -0.0824  0.1313
21517W        W36648   4.186  11.707   2.070  0.3237 -0.0554 -0.3207
21518W        W36649  12.010   1.101   2.565  0.1137  0.0996 -0.1176
21519W        W36650  16.838  13.320   1.930  0.2536 -0.1236  0.0297
21520W        W36651  11.737   7.465  11.214 -0.3529 -0.2797  0.1841
21521W        W36652   7.661   1.505  14.319 -0.2971 -0.2331 -0.1822
21522W        W36653   9.219  17.058  14.454 -0.1610 -0.1029  0.3354
21523W        W36654   7.748   1.788   3.823 -0.3034 -0.3458  0.2030
21524W        W36655  17.347  12.333   3.020  0.0905 -0.0075  0.0750
21525W        W36656   7.968  13.726  13.889  0.1809 -0.0294  0.0060
21526W        W36657  12.552  11.789  10.238  0.1376  0.0742  0.0298
21527W        W36658  14.546   6.677  13.558 -0.1853 -0.0326 -0.3145
21528W        W36659   7.368   5.632   1.176  0.5796  0.0026 -0.1501
21529W        W36660   6.870   5.768   3.620  0.1846  0.2536  0.0958
21530W        W36661  18.503   0.325  10.883 -0.3062  0.2685 -0.4780
21531W        W36662  16.436   2.351  13.898  0.2372  0.2194 -0.0619
21532W        W36663  16.830   3.237  12.514  0.0140  0.0761 -0.0220
21533W        W36664   1.480   1.494   4.376  0.1483  0.0443  0.2011
21534W        W36665   1.230  17.864   0.229 -0.0070 -0.1641 -0.3611
21535W        W36666  18.391   7.232   4.905  0.0714  0.0154  0.2377
21536W        W36667  18.466   6.279   4.833 -0.0221 -0.0128 -0.0413
21537W        W36668   0.812   9.140   5.668 -0.2785  0.0432  0.1170
21538W        W36669  12.498   9.261  11.280  0.2409 -0.1315  0.1669
21539W        W36670   2.282  11.679   1.150  0.3144  0.5685  0.1043
21540W        W36671  17.077  10.821  14.803  0.2224  0.3726  0.1873
21541W        W36672  11.063   3.744   2.179 -0.1589 -0.0441  0.3364
21542W        W36673   4.741  16.708  13.849  0.1061 -0.7092  0.1280
21543W        W36674   2.035   9.162  12.620 -0.1235 -0.3728  0.1845
21544W        W36675   9.252  12.577  13.309 -0.2779  0.0542 -0.0839
21545W        W36676  15.606  10.573   2.126  0.0688  0.0712  0.1158
21546W        W36677  10.255   5.282  13.655  0.1647 -0.2425  0.0998
21547W        W36678  13.294   0.278   4.419 -0.0514  0.0668 -0.0295
21548W        W36679  14.729   4.734  13.617 -0.1049 -0.1458 -0.0549
21549W        W36680   3.435   5.403   0.159 -0.3752 -0.0933 -0.0238
21550W        W36681  12.032  11.399  10.662  0.3016  0.1923 -0.0128
21551W        W36682   2.831  17.783  11.242 -0.0822  0.3016 -0.1534
21552W        W36683   9.916  14.274   2.635 -0.5781 -0.3987 -0.0271
21553W        W36684   8.385  16.948  14.083  0.0057 -0.3042  0.3484
21554W        W36685  12.971  10.985  14.522  0.1074  0.0423  0.1862
21555W        W36686  15.664   9.665   2.691  0.3085  0.4295 -0.0848
21556W        W36687  15.425  17.830  12.012  0.1891  0.0241  0.2238
21557W        W36688   7.372  16.871  13.741  0.0900 -0.0960  0.1944
21558W        W36689  17.542  13.005   6.178  0.0899  0.0986  0.0655
21559W        W36690   5.624   7.319   3.705  0.3654  0.1233  0.0745
21560W        W36691   1.869   4.436   2.548 -0.3288 -0.2051  0.1648
21561W        W36692   6.386  15.771  12.039 -0.1660  0.0199  0.1191
21562W        W36693  15.150   9.655  12.074  0.0572 -0.0278 -0.0371
21563W        W36694  16.777  18.546  11.652  0.1106 -0.0128  0.4887
21564W        W36695  17.617   7.923   2.310  0.0825  0.1803  0.1095
21565W        W36696   2.899  16.365  15.357  0.0565  0.0651 -0.0145
21566W        W36697   0.482   1.260   0.234  0.2185  0.0700 -0.1824
21567W        W36698  17.891  12.062  13.013  0.2707  0.2410 -0.0031
21568W        W36699   5.669   6.043  14.365 -0.1245 -0.1937 -0.0193
21569W        W36700  15.872   6.629  15.270 -0.0490  0.0800  0.1230
21570W        W36701   9.669   9.655   0.618 -0.0259 -0.4169 -0.1602
21571W        W36702   6.524   9.713  14.868 -0.1436  0.2425 -0.0396
21572W        W36703  14.812   5.268   4.905  0.1127 -0.1275 -0.2954
21573W        W36704   4.435  13.202  12.334 -0.1922 -0.2708 -0.4245
21574W        W36705   1.799  13.334  12.119  0.3201 -0.0226  0.0195
21575W        W36706   6.656  11.841  14.581 -0.1108 -0.1727 -0.0080
21576W        W36707   7.699   3.809  14.991  0.1502 -0.3860 -0.0594
21577W        W36708   0.150   4.677   0.927 -0.1841  0.1480 -0.3622
21578W        W36709   9.227   0.239  12.391 -0.1825 -0.0823  0.0261
21579W        W36710   0.891   0.383   4.940 -0.1067  0.0202  0.0907
21580W        W36711   9.893  15.791   2.705  0.0695 -0.0738 -0.0993
21581W        W36712  11.468   8.202   2.823  0.0699  0.0453  0.2520
21582W        W36713   1.696   4.076  13.978 -0.1875  0.0464 -0.2966
21583W        W36714  13.627  16.111  13.905 -0.0386 -0.3877  0.0507
21584W        W36715   7.421  16.597   0.747  0.2109  0.1956  0.2720
21585W        W36716  10.432  10.350   1.349 -0.2723 -0.0160  0.0378
21586W        W36717  11.165   8.803  15.569 -0.1441 -0.3196 -0.4318
21587W        W36718  13.565  12.498  12.050  0.0646 -0.1613  0.1101
21588W        W36719   3.016  11.009   2.844 -0.7451  0.2309  0.0370
21589W        W36720  11.410   5.551  12.337  0.0118 -0.0041 -0.1759
21590W        W36721   1.217   5.943   5.431 -0.1175  0.1184  0.0108
21591W        W36722  12.971  11.254   0.616 -0.1573  0.2031  0.0657
21592W        W36723  16.051  14.202  14.771 -0.0288  0.1565  0.3199
21593W        W36724  17.522  15.655   3.482  0.3383  0.1222 -0.1990
21594W        W36725   7.027  16.382   2.484  0.1627 -0.0658 -0.2233
21595W        W36726  12.957  17.376   0.060 -0.1694  0.2930 -0.0293
21596W        W36727  18.137  14.480   0.489 -0.0727 -0.2257 -0.1021
21597W        W36728   9.530   4.969  12.492  0.1775 -0.0139  0.2529
21598W        W36729  14.615   9.291  11.386  0.3892 -0.1019 -0.3167
21599W        W36730   9.924   4.883  10.662  0.3246 -0.1168  0.1949
21600W        W36731   4.034  14.229   4.910 -0.0231  0.0614  0.1965
21601W        W36732   6.914  15.675   4.785 -0.0778 -0.2464  0.2691
21602W        W36733  10.329  14.080   4.764 -0.2007 -0.0168 -0.0502
21603W        W36734   7.717  11.761  12.800  0.0716 -0.3885 -0.0600
21604W        W36735  11.878   9.565   1.930  0.1011 -0.0183 -0.3006
21605W        W36736  16.155   0.311  12.701  0.0127 -0.1892  0.1165
21606W        W36737   4.026   1.539  13.412  0.2291  0.1057  0.0130
21607W        W36738  10.260   3.805  11.452 -0.0590 -0.1122  0.3346
21608W        W36739  13.974   9.579  15.608 -0.1452  0.1725  0.1171
21609W        W36740   6.382   7.340  12.889  0.0059  0.0491 -0.2388
21610W        W36741   8.603   1.295  14.073 -0.0891 -0.1068  0.1299
21611W        W36742   6.172  12.065   1.299  0.0875  0.3572  0.4047
21612W        W36743   6.297  11.628  15.801 -0.0348 -0.0672  0.1600
21613W        W36744  18.081   7.948  13.517 -0.2864 -0.0708  0.1313
21614W        W36745  10.241  17.866   1.566  0.1856  0.0162  0.1908
21615W        W36746  14.732   6.590   5.556  0.3600  0.2824  0.1864
21616W        W36747   9.939   1.649   1.397  0.2906  0.1279 -0.1537
21617W        W36748  10.356  13.820  13.601  0.0470 -0.2910 -0.0020
21618W        W36749  13.840  15.670  10.963 -0.1240  0.0233 -0.2768
21619W        W36750   2.690  14.232   2.529  0.0170 -0.1431 -0.2195
21620W        W36751  12.635  15.892  14.826  0.0611  0.0115  0.1584
21621W        W36752  13.060  17.664   4.293 -0.1917 -0.1641 -0.1169
21622W        W36753  12.653  17.049  13.747 -0.0148 -0.1331  0.0594
21623W        W36754   0.847   3.338  12.698 -0.0283  0.3354  0.2086
21624W        W36755   3.015   1.214   1.045 -0.2590 -0.0434 -0.1756
21625W        W36756  11.988   5.382   2.277  0.0493  0.0652 -0.1324
21626W        W36757  15.848  10.167   3.257 -0.3638 -0.0126  0.1074
21627W        W36758  14.792  10.010   4.216 -0.2514  0.1802 -0.1236
21628W        W36759   0.125   7.634   4.387  0.1617 -0.0375  0.2191
21629W        W36760   8.467   1.473  13.261  0.4013  0.4208  0.0475
21630W        W36761  15.549   1.032  10.853 -0.0180  0.2268 -0.0642
21631W        W36762  11.934   8.484   0.492 -0.2108  0.0826  0.2427
21632W        W36763  14.811   1.640  14.884 -0.1801 -0.0733  0.3993
21633W        W36764  16.224   0.164   3.544 -0.1251  0.0253 -0.1284
21634W        W36765  11.064   2.266   0.556 -0.1887  0.0012 -0.1181
21635W        W36766  14.228   0.703   4.246 -0.0123  0.3203  0.0026
21636W        W36767   6.579  15.026  12.387  0.3384 -0.0256  0.1578
21637W        W36768  11.825   4.086  12.113  0.1609 -0.0623 -0.0698
21638W        W36769   9.332  12.967   3.406  0.0020 -0.1871  0.4447
21639W        W36770  17.349  17.664   4.273  0.0226 -0.2164  0.2151
21640W        W36771  12.394   0.695   2.687  0.2166 -0.1707  0.2478
21641W        W36772   8.114   5.403   4.572 -0.2654 -0.1129 -0.3189
21642W        W36773   2.257  15.128   3.925 -0.1268 -0.2128 -0.1816
21643W        W36774  13.541  14.448   0.973 -0.0779  0.0886  0.0874
21644W        W36775   6.866   7.287   1.315  0.0867 -0.0205  0.2374
21645W        W36776   6.183   5.775  11.485  0.1364  0.0277 -0.1809
21646W        W36777   0.477  17.201   2.726  0.0474 -0.4007  0.2661
21647W        W36778   2.507   1.438   3.116  0.0545 -0.4008 -0.0708
21648W        W36779   2.377  10.037   0.108  0.1310  0.2136  0.1673
21649W        W36780  15.977   1.213   0.461 -0.1011 -0.0226  0.4331
21650W        W36781   2.810  17.339  10.978 -0.0661 -0.1245 -0.0702
21651W        W36782   9.772   1.348   1.827 -0.3065 -0.1535 -0.3111
21652W        W36783  10.123   5.013   0.706  0.1135 -0.2302  0.1132
21653W        W36784  14.841  16.717   5.096 -0.0773  0.0068  0.0175
21654W        W36785  12.957  12.945  10.806 -0.0420  0.1185 -0.0705
21655W        W36786   3.370   1.910   2.805  0.2520 -0.3131  0.3351
21656W        W36787   7.916   6.592   4.000  0.0146  0.1985  0.1044
21657W        W36788   9.949   8.672  13.858 -0.2518 -0.0038 -0.1388
21658W        W36789   0.243   2.944   2.897  0.2583  0.0383  0.0311
21659W        W36790   2.972   8.668  13.896 -0.3164  0.0721  0.1247
21660W        W36791  15.937  14.028   9.914 -0.1355 -0.2345  0.3032
21661W        W36792   3.011   5.146  15.007 -0.0794 -0.0784 -0.2033
21662W        W36793  18.716   3.670  11.537  0.0082  0.1774 -0.1131
21663W        W36794   0.632  18.362   3.672  0.1620 -0.1327 -0.1372
21664W        W36795   8.703   0.144  12.713 -0.1663 -0.0484 -0.4467
21665W        W36796   4.400  18.631   1.035 -0.1090 -0.0461 -0.2948
21666W        W36797  11.541  13.027  12.592 -0.5567 -0.1358 -0.3784
21667W        W36798  11.163   6.434   0.671  0.0749  0.3981 -0.0312
21668W        W36799   6.544  12.022  14.155  0.1472 -0.1323 -0.2186
21669W        W36800   2.771  17.091  15.690  0.0479  0.0217 -0.1564
21670W        W36801   4.370  14.932  15.352  0.0772  0.2480 -0.1201
21671W        W36802   7.407  17.973  15.149 -0.0217  0.0455 -0.0169
21672W        W36803   5.355   3.044   2.269  0.0601 -0.0856  0.1391
21673W        W36804  18.403  17.852   3.078  0.1211 -0.0009 -0.2891
21674W        W36805  14.343   0.573   1.843  0.0153  0.1449  0.1985
21675W        W36806   9.396   7.754  11.279  0.0137  0.1437 -0.0249
21676W        W36807  14.916  10.624  13.304 -0.0354 -0.1034 -0.0735
21677W        W36808   1.907   1.622   0.049  0.0550 -0.0108 -0.1121
21678W        W36809  10.666  17.183   1.936 -0.1171  0.0850  0.0281
21679W        W36810   4.879  17.129   4.831  0.0549  0.0882  0.2146
21680W        W36811  12.947   8.057   1.598  0.1179 -0.4639  0.0969
21681W        W36812  12.152   7.366  11.043  0.3232  0.0655  0.1505
21682W        W36813   1.893   0.586  12.835  0.3769  0.1350  0.0033
21683W        W36814  12.915  13.708   1.669 -0.0812  0.0854  0.1454
21684W        W36815   2.080  13.547   3.039  0.1192 -0.0122  0.1565
21685W        W36816  16.476  16.463  14.826 -0.0407 -0.1130  0.3179
21686W        W36817   3.201   9.802  10.182 -0.0033  0.1147  0.3861
21687W        W36818   6.862   7.194   0.586  0.1064 -0.1029  0.2092
21688W        W36819  12.821  14.719   4.298  0.1362  0.2234  0.1002
21689W        W36820   1.640  11.420  15.228 -0.1205  0.3267 -0.1723
21690W        W36821  14.723   8.726   5.228  0.1259 -0.1153 -0.0348
21691W        W36822   8.282   1.601   3.319 -0.0705 -0.0617 -0.1461
21692W        W36823  17.311  17.356  11.711  0.1299 -0.0479 -0.0136
21693W        W36824  12.777  11.728   1.371  0.1043  0.0773  0.1810
21694W        W36825   1.359   0.884  15.682 -0.0333 -0.3066 -0.1679
21695W        W36826  11.864   2.133  11.083 -0.0990 -0.3779  0.0750
21696W        W36827   9.069  14.880  11.367 -0.1492 -0.0007 -0.1180
21697W        W36828   5.892  12.471   1.328 -0.0582  0.2871 -0.1840
21698W        W36829  16.210   9.517   4.720  0.0532 -0.2855 -0.3967
21699W        W36830  11.285  18.138   4.027 -0.0707 -0.2395 -0.1311
21700W        W36831   1.727   7.973   0.265  0.1368  0.3305  0.1016
21701W        W36832  16.932  14.917  11.616 -0.2875 -0.1141 -0.0224
21702W        W36833  16.936  12.803   3.775 -0.1036 -0.0407  0.0012
21703W        W36834  16.376  10.639   2.059  0.0296 -0.2008  0.1339
21704W        W36835   4.591   0.722  12.831  0.2075 -0.2009  0.2134
21705W        W36836  10.969   5.684   2.423  0.1001  0.3248 -0.5064
21706W        W36837   5.417  13.897   9.952 -0.1467 -0.3547 -0.0630
21707W        W36838   4.186   0.948   5.868 -0.0959  0.2400  0.1577
21708W        W36839   9.491  16.218  14.931 -0.0191  0.0006 -0.2971
21709W        W36840   1.638  18.080   3.705  0.0024 -0.2838  0.2224
21710W        W36841   4.519  15.539   3.721  0.1810  0.0033  0.0028
21711W        W36842   5.269   7.789  14.818 -0.0632  0.0076 -0.0690
21712W        W36843   9.773  18.667  11.939  0.4117  0.2602 -0.0117
21713W        W36844   4.181  11.745   0.815 -0.0850 -0.0937 -0.2546
21714W        W36845  17.997  12.475   6.131  0.2327  0.0284 -0.2341
21715W        W36846   4.977   1.746   1.545  0.1105  0.0602 -0.0259
21716W        W36847   4.970  11.824   5.406 -0.0313 -0.4919 -0.0189
21717W        W36848   7.411  12.498   3.684  0.2135  0.1815 -0.3530
21718W        W36849  16.934   6.632   2.805 -0.1309  0.1292  0.0064
21719W        W36850   1.457   7.108   4.708  0.0809 -0.2321 -0.1164
21720W        W36851  13.097   6.811   3.526 -0.1028 -0.2488  0.2099
21721W        W36852  15.019   5.937   2.895  0.2839 -0.2535 -0.0331
21722W        W36853  14.895  11.266   3.540 -0.3299  0.1319 -0.0487
21723W        W36854  14.711  16.981  12.974  0.2628 -0.0915  0.1624
21724W        W36855  16.032   2.634  11.407  0.0821 -0.1517 -0.0417
21725W        W36856  11.879   5.833  12.246  0.1418  0.0027  0.0187
21726W        W36857   4.913  10.811  11.533 -0.0141 -0.4179 -0.0873
21727W        W36858  17.164  18.007   2.882 -0.1042 -0.1571  0.1456
21728W        W36859   0.540  15.490  15.043 -0.2346  0.2008 -0.0976
21729W        W36860   6.658   1.866   2.758 -0.1243 -0.0878 -0.0921
21730W        W36861  14.521   5.416   2.595 -0.2440 -0.3210 -0.2015
21731W        W36862   0.789   3.478  15.064  0.0297 -0.0363 -0.3079
21732W        W36863   1.145  13.538  12.232  0.0947  0.0189 -0.0719
21733W        W36864   2.194  12.188   4.118 -0.0872  0.0833 -0.0726
21734W        W36865  11.227  10.856  14.344  0.1624 -0.1472  0.0669
21735W        W36866   7.399  14.948  12.159 -0.0959  0.0054  0.0137
21736W        W36867  14.694  17.970  15.473 -0.1024 -0.1003  0.2273
21737W        W36868  12.031   7.218   0.271 -0.3027 -0.0950  0.1337
21738W        W36869  17.327   6.856   0.701  0.0356  0.0327 -0.2064
21739W        W36870  13.147  12.527   0.410 -0.1467 -0.2019 -0.3364
21740W        W36871  18.234  17.045   2.666  0.1130 -0.2450 -0.0279
21741W        W36872   1.441   1.672   2.889 -0.1312 -0.2011  0.1872
21742W        W36873   1.377   3.518   1.081 -0.1650  0.1223 -0.0810
21743W        W36874   9.463  15.468   1.924 -0.2756 -0.0814  0.1749
21744W        W36875   4.431  11.291   1.662  0.0679 -0.0167  0.0502
21745W        W36876   0.683  12.340   1.599 -0.4267 -0.1370  0.1576
21746W        W36877  14.430  12.344  13.521 -0.0939 -0.0337 -0.0341
21747W        W36878   3.932  11.178   0.458 -0.2024  0.1469  0.0772
21748W        W36879   4.233   9.749  13.311 -0.0831 -0.1013  0.0052
21749W        W36880   3.766  10.404  15.628  0.1506 -0.2497  0.0303
21750W        W36881   7.382   3.520  11.161 -0.2711 -0.1045  0.3367
21751W        W36882  14.153  14.924   0.932 -0.0541  0.1495  0.1099
21752W        W36883  16.268  10.212   2.326  0.1702  0.2379 -0.0821
21753W        W36884  14.663   5.287   3.654 -0.1962  0.1225  0.1206
21754W        W36885   0.896   0.718   2.832 -0.0644  0.0598 -0.0263
21755W        W36886   7.423  14.225   5.109 -0.1518  0.0103 -0.0581
21756W        W36887   8.290   3.747   1.150  0.1273  0.1076  0.2752
21757W        W36888   2.303   0.694  13.139 -0.5559 -0.2533 -0.1886
21758W        W36889  16.507  16.387   4.074 -0.3250  0.0444 -0.2261
21759W        W36890  12.387   3.146  13.587  0.3726 -0.0506 -0.0265
21760W        W36891  12.994  17.335  14.060  0.0694  0.1654  0.0864
21761W        W36892  12.387   6.823  13.333 -0.0925 -0.1460 -0.2182
21762W        W36893  17.720   3.327  15.281 -0.0127  0.2355 -0.0505
21763W        W36894  10.677  16.287   2.970  0.0171  0.2240  0.1324
21764W        W36895   6.170  13.506   2.699  0.0398 -0.0057  0.0720
21765W        W36896   2.777   8.629  12.423  0.1885 -0.4023 -0.0386
21766W        W36897   0.673  13.993   5.839  0.1261 -0.0670 -0.0818
21767W        W36898   9.636   5.706  10.615  0.4142  0.1000 -0.1752
21768W        W36899   9.696  10.838   1.214  0.2094  0.3640  0.1468
21769W        W36900  10.049   2.704   4.810 -0.6480  0.2574 -0.0503
21770W        W36901   4.334   8.286  14.322 -0.0021 -0.1497  0.4342
21771W        W36902   7.693  11.359  13.270 -0.1575  0.2246  0.2050
21772W        W36903   8.224   7.725  14.555  0.2912  0.0428  0.1233
21773W        W36904   8.022   0.860  14.623  0.2672 -0.1847 -0.0809
21774W        W36905   9.499   7.719  10.399  0.1663 -0.1005  0.2788
21775W        W36906  16.170  12.803   1.121 -0.1061  0.1050  0.2200
21776W        W36907   1.353  14.207   0.446  0.0872  0.1143  0.4049
21777W        W36908   7.324  13.405   3.347  0.0147 -0.0594  0.0554
21778W        W36909   8.297  13.708   3.087  0.1847 -0.0443  0.3409
21779W        W36910  13.170   2.000   3.558 -0.2811  0.2066  0.3742
21780W        W36911  14.894  10.846   1.740 -0.0892  0.0089  0.0031
21781W        W36912  16.107   5.395   0.276 -0.2991  0.4025 -0.1425
21782W        W36913   6.991   6.454  13.937 -0.3228  0.1717 -0.1880
21783W        W36914   2.395   4.560   2.579 -0.0400  0.0797 -0.1760
21784W        W36915   0.016  11.841  13.998  0.2864 -0.0590  0.4469
21785W        W36916  12.235   4.266  14.621  0.1624  0.0402 -0.2032
21786W        W36917   3.989   9.473  15.719  0.0803 -0.0828 -0.1334
21787W        W36918   6.998  12.519  14.749 -0.2193 -0.2275  0.2470
21788W        W36919   1.397   5.146  12.123 -0.0793 -0.0529 -0.0890
21789W        W36920  18.679  18.549   5.641  0.0859 -0.3548 -0.2406
21790W        W36921   7.218  15.350   3.024 -0.2685 -0.0566 -0.1422
21791W        W36922  15.933  13.427  14.088 -0.0711 -0.0380  0.0325
21792W        W36923   2.347   4.735  11.613  0.3299 -0.4303 -0.1465
21793W        W36924  16.880   1.577  10.954 -0.0416  0.0207 -0.1631
21794W        W36925  17.093   4.612  11.316 -0.1082 -0.4027  0.0984
21795W        W36926  12.894   7.563   4.168  0.2944  0.3385  0.0644
21796W        W36927  11.742   6.157   1.308 -0.1431  0.2523  0.0001
21797W        W36928  11.495   0.479   0.643  0.1493 -0.0012  0.0695
21798W        W36929  15.540   9.804  11.165 -0.3451 -0.0427 -0.2879
21799W        W36930   2.410  17.517  12.963 -0.0314 -0.0264 -0.1613
21800W        W36931  15.910  15.875   4.145 -0.2210  0.0203  0.0759
21801W        W36932   8.313   1.102  11.878  0.4069  0.1689  0.0750
21802W        W36933   6.687  11.781  15.485 -0.0422 -0.0629 -0.2315
21803W        W36934  16.299  12.074   1.844  0.2113  0.0902  0.0555
21804W        W36935  15.064  10.520   0.377 -0.0775 -0.0299 -0.1616
21805W        W36936   8.606  15.995  15.043  0.0280  0.0002  0.1044
21806W        W36937  17.390  11.406   2.505 -0.0533  0.0429 -0.0123
21807W        W36938   2.772  13.338   1.838 -0.1864  0.0033  0.1216
21808W        W36939   0.740  15.642  13.512 -0.1538 -0.1462 -0.1635
21809W        W36940  14.233   5.586   0.260 -0.4991 -0.0928  0.0979
21810W        W36941   5.057   3.992  14.439  0.2264 -0.1189  0.0230
21811W        W36942   8.826  14.991  15.075  0.0447 -0.0573  0.0244
21812W        W36943   7.687   4.123   6.319 -0.2359 -0.2921  0.2222
21813W        W36944  18.137   4.566  10.568 -0.4282  0.4383  0.1176
21814W        W36945  10.628   4.216   4.580 -0.2557 -0.1965 -0.0555
21815W        W36946   9.159  17.209  12.266 -0.0935  0.0897  0.1732
21816W        W36947  16.843  10.301  13.451 -0.1630 -0.0979 -0.1272
21817W        W36948  12.307   1.554   1.754 -0.2971 -0.1474 -0.4488
21818W        W36949  11.574   8.632  15.783 -0.0546 -0.0124  0.0631
21819W        W36950  10.937  16.144   1.191  0.0555  0.3764  0.2427
21820W        W36951  13.513  12.413  15.463  0.1644 -0.4014  0.5193
21821W        W36952   5.565   5.944  12.794  0.2764 -0.1442  0.0967
21822W        W36953   0.457   0.591  13.423 -0.0414  0.1179  0.1195
21823W        W36954  12.284  18.634  10.662  0.0040 -0.2179  0.0342
21824W        W36955   5.560   4.853   2.920 -0.1202  0.3287  0.0321
21825W        W36956   3.809   8.438  11.623 -0.0203 -0.0594  0.4242
21826W        W36957  14.958  18.126  11.909  0.1469 -0.0689  0.0147
21827W        W36958  16.217   1.822   2.158 -0.1961  0.0838  0.2169
21828W        W36959   2.230  13.614  12.517 -0.1434  0.1227  0.0907
21829W        W36960   3.824  14.792   2.325 -0.0664 -0.0663 -0.0722
21830W        W36961   2.313   3.100  15.337 -0.2730  0.0295 -0.1922
21831W        W36962  11.684   6.558   0.560 -0.0266  0.1045 -0.0910
21832W        W36963   3.632   8.179   1.028 -0.0476  0.1664  0.1266
21833W        W36964  12.619  10.805   0.495 -0.1999  0.2286 -0.0230
21834W        W36965  18.643  12.202  12.664  0.1205 -0.2300  0.2054
21835W        W36966  14.366  17.199  11.166 -0.2781 -0.1147  0.0673
21836W        W36967  18.360  18.601  14.594 -0.2092  0.2843 -0.1965
21837W        W36968   4.985   1.386  12.758  0.1297  0.2803  0.3002
21838W        W36969   6.696  11.089   4.572 -0.1889  0.0361 -0.2084
21839W        W36970  11.360  18.700  10.150  0.2448  0.1590 -0.2316
21840W        W36971   4.332   3.533   1.059  0.0068 -0.0338 -0.0049
21841W        W36972   6.114  16.587   6.050  0.2250 -0.1498 -0.2726
21842W        W36973   5.942   6.164   0.422 -0.3059  0.2626 -0.0263
21843W        W36974  12.613   4.025  11.823 -0.0318  0.1623  0.1042
21844W        W36975  15.659  13.092   4.069 -0.0945  0.2225  0.2830
21845W        W36976   8.191   9.386   1.321 -0.1737 -0.1312 -0.5126
21846W        W36977   1.011  14.427   5.898  0.0782 -0.2794  0.1390
21847W        W36978   2.968  15.332   0.482 -0.2857  0.2943  0.0082
21848W        W36979   6.689  12.809  10.447 -0.0624 -0.1272  0.4262
21849W        W36980  10.014  10.554   0.456 -0.0212 -0.2322 -0.1328
21850W        W36981   5.539  12.829   0.057 -0.0136 -0.1348 -0.1023
21851W        W36982  17.910  12.618   5.430  0.1865  0.0559 -0.3265
21852W        W36983   6.628   5.510  14.011 -0.0249  0.0891 -0.1838
21853W        W36984  11.753   1.507   4.938 -0.2325 -0.2903  0.0775
21854W        W36985   0.979   1.074  11.261 -0.0063  0.1628  0.0663
21855W        W36986   8.585   0.952  11.103  0.0997  0.1502 -0.1285
21856W        W36987  13.212  11.484  15.389 -0.0653  0.0023  0.1160
21857W        W36988  11.495  10.660   0.661  0.3387  0.0742 -0.0112
21858W        W36989   1.959  17.369  14.058 -0.0380  0.0943  0.1202
21859W        W36990   1.569   3.569   3.988  0.0489  0.0302 -0.1629
21860W        W36991   0.446  14.766   1.966  0.0544  0.1529  0.2249
21861W        W36992   3.058   1.533   2.952 -0.1894 -0.1199  0.0924
21862W        W36993  10.307  13.781  14.883 -0.0096  0.0943  0.1026
21863W        W36994   6.063   8.916   0.651  0.1816  0.2986  0.1373
21864W        W36995  12.093   8.714  15.110 -0.2732  0.0318  0.0471
21865W        W36996   6.383  10.847  15.513  0.3109 -0.1325  0.2615
21866W        W36997  12.544   9.009  15.749 -0.1263  0.2101 -0.0159
21867W        W36998  14.777   4.172  12.243 -0.0192 -0.0877 -0.0396
21868W        W36999  10.570  16.150  10.483  0.5189 -0.3285  0.2778
21869W        W37000   1.609  12.634   4.938  0.0528  0.1133 -0.5308
21870W        W37001  15.897  15.779   0.892  0.1754  0.0993  0.1336
21871W        W37002  11.943  12.898  12.859 -0.1004 -0.1619 -0.1446
21872W        W37003   2.663   0.445   2.176 -0.0473 -0.3128 -0.0098
21873W        W37004  14.894   4.492   3.574 -0.0846 -0.1029 -0.0958
21874W        W37005  12.331  12.766  14.065 -0.1727 -0.0068  0.2158
21875W        W37006  18.385  13.529   1.585  0.1389 -0.0762 -0.1308
21876W        W37007  13.971  11.383  14.957 -0.1233 -0.0340 -0.0188
21877W        W37008   3.858   7.985  14.471 -0.2889  0.0996 -0.0855
21878W        W37009   5.950   7.108  15.146 -0.2462  0.2258  0.0604
21879W        W37010   6.747   4.529  10.478  0.2147  0.3109 -0.2628
21880W        W37011   9.685  13.806  15.716 -0.0215 -0.0318  0.1612
21881W        W37012   2.818  14.917  12.392 -0.1671 -0.1568  0.0791
21882W        W37013   8.940  10.968  12.606 -0.2372 -0.0324 -0.1336
21883W        W37014   5.002   0.356  13.867 -0.1740  0.1656  0.0102
21884W        W37015  14.634  10.254  15.582 -0.2242  0.1441 -0.1390
21885W        W37016  11.264  15.352  12.362  0.3445 -0.1292  0.0318
21886W        W37017  17.212  17.175  14.119  0.4197  0.0070  0.2224
21887W        W37018  12.801   5.014  10.283 -0.2200 -0.2315 -0.1326
21888W        W37019   6.328   1.147   4.354  0.2030  0.0221  0.1533
21889W        W37020   0.513  13.092  11.676 -0.0781 -0.2257 -0.0628
21890W        W37021   8.587  12.320   2.822 -0.0841  0.0017  0.0139
21891W        W37022   4.273  11.242  14.848  0.0615 -0.0824  0.2874
21892W        W37023  17.713  13.633  12.549 -0.1218  0.1711  0.4123
21893W        W37024  14.512  14.799   0.052 -0.2142  0.1697  0.1095
21894W        W37025   8.397   8.226   2.138 -0.1942 -0.0008 -0.1144
21895W        W37026  10.614  14.038   0.409 -0.0853 -0.0187  0.0260
21896W        W37027   4.151  10.944   1.307 -0.1636 -0.0905 -0.1245
21897W        W37028  10.634  13.292  12.905 -0.1133  0.0098  0.2250
21898W        W37029   7.389   1.932  10.626  0.3145 -0.1964 -0.3005
21899W        W37030   4.885  12.809  14.271 -0.0906 -0.0628  0.0828
21900W        W37031  18.099   4.375   4.444 -0.1536  0.0131 -0.0290
21901W        W37032  14.727  13.838  10.446  0.0948  0.0485 -0.0675
21902W        W37033   9.331   1.200   4.286  0.1696 -0.1818  0.2598
21903W        W37034   3.331   9.009   2.436 -0.0265 -0.3311 -0.0161
21904W        W37035   9.417  14.948  13.217 -0.1420  0.1250  0.0289
21905W        W37036  10.988  10.870   3.268  0.1535 -0.0043  0.0612
21906W        W37037  17.172  18.480   5.727  0.0081  0.2841  0.0920
21907W        W37038   4.330   4.161   1.276 -0.1104  0.0360  0.1188
21908W        W37039  13.793   6.134  15.028 -0.3268 -0.0802 -0.1106
21909W        W37040   0.393   4.054  14.902  0.0258 -0.0595  0.0168
21910W        W37041  15.242   6.310   4.672  0.0380  0.0081 -0.1764
21911W        W37042   5.320   0.833   0.575 -0.2386 -0.2347  0.1121
21912W        W37043   9.293   6.291  13.883  0.0784 -0.0472  0.1535
21913W        W37044   3.717  17.328  12.553 -0.0594  0.1441 -0.2413
21914W        W37045   5.250  18.207   0.649  0.3328  0.2746  0.2136
21915W        W37046   1.839  14.943   3.762  0.0790 -0.0653 -0.0750
21916W        W37047   4.575   3.926  10.668 -0.2071  0.2959 -0.1907
21917W        W37048   3.033  18.158  10.941 -0.2094 -0.2653  0.0176
21918W        W37049   7.492  12.309  12.848  0.1682 -0.0050  0.0745
21919W        W37050   7.321   3.950  11.478  0.3245 -0.0866 -0.0269
21920W        W37051   8.508   1.344   5.196  0.0712 -0.0328 -0.1270
21921W        W37052   9.915   1.596  12.803 -0.0198 -0.1200 -0.1616
21922W        W37053  13.817   2.686  12.741  0.0854 -0.1324  0.2135
21923W        W37054   5.552  11.113  15.311 -0.0591  0.0731  0.0113
21924W        W37055  16.478  18.054  13.184 -0.1957  0.1558 -0.1895
21925W        W37056   4.477   8.883   4.274  0.2488 -0.4726  0.2072
21926W        W37057  11.919   5.373   0.072  0.1690 -0.0870 -0.4798
21927W        W37058  15.990  10.535   2.464  0.2198 -0.3668  0.3571
21928W        W37059  14.209   3.686  10.403  0.0942  0.1828  0.4013
21929W        W37060   6.019  15.512  15.192 -0.3963 -0.1080  0.2220
21930W        W37061   8.338  11.696  13.757  0.1793  0.0623  0.1119
21931W        W37062   1.841  11.124   5.679  0.3129  0.0892  0.2074
21932W        W37063  16.896   2.240   2.791  0.3871 -0.0531  0.0244
21933W        W37064  16.098   7.187   5.250 -0.2911  0.1982 -0.1108
21934W        W37065   3.259  18.233   3.852 -0.0918  0.2894 -0.2083
21935W        W37066  10.739   4.977  12.975 -0.1643  0.2113 -0.1865
21936W        W37067  13.862  17.419   5.320 -0.1638  0.2444 -0.1206
21937W        W37068   5.338   4.938  15.781  0.1935  0.0133 -0.0305
21938W        W37069   1.885  10.187  12.488 -0.5580  0.1643 -0.2239
21939W        W37070  14.997  14.892   4.335  0.0640 -0.0581 -0.0071
21940W        W37071  16.006   5.424  12.747 -0.0921  0.0111  0.0525
21941W        W37072   4.931   8.376  15.472  0.2706 -0.1650 -0.4225
21942W        W37073   4.478  13.831  10.010  0.1398 -0.1535 -0.1347
21943W        W37074   4.481   3.699   3.489  0.0011  0.1623  0.0123
21944W        W37075  13.419   2.332   3.306  0.0662 -0.1612  0.2029
21945W        W37076  11.003  16.927  15.163  0.0569 -0.5405  0.0580
21946W        W37077   9.601   3.848  14.586 -0.0917 -0.0452 -0.1228
21947W        W37078  14.246   1.575   6.338 -0.0166  0.4377  0.4199
21948W        W37079  12.723  14.732  13.721 -0.1620 -0.2375  0.1532
21949W        W37080  16.099   3.294   0.325  0.1473  0.1215  0.0150
21950W        W37081   9.216   2.277   0.270  0.2594  0.1366 -0.2701
21951W        W37082   0.035   6.011   0.190 -0.1433  0.1863  0.0072
21952W        W37083   5.966   4.293  12.911 -0.1388 -0.4303  0.0580
21953W        W37084  18.609  13.193   5.057  0.3628  0.0119  0.0635
21954W        W37085  13.784  10.071   4.832 -0.2321 -0.1150 -0.2949
21955W        W37086  10.442  13.536  11.608 -0.0320 -0.0276  0.0716
21956W        W37087  17.164  10.155   2.662 -0.1223  0.0566  0.1849
21957W        W37088   7.904   4.545   3.185  0.2138 -0.0583 -0.0922
21958W        W37089  16.446  15.545  14.843 -0.0838  0.1765  0.1708
21959W        W37090  16.176  11.481  12.854 -0.0591  0.1990 -0.0282
21960W        W37091   1.221  18.366  14.240  0.2510  0.0143 -0.1849
21961W        W37092   5.034   6.238  10.375  0.2094  0.0951 -0.1204
21962W        W37093  17.558   3.919  13.349  0.1696 -0.6779  0.1868
21963W        W37094  14.222   5.479  11.080 -0.2234 -0.1181 -0.0866
21964W        W37095   5.383   7.245   0.055  0.0595  0.0005  0.0612
21965W        W37096  11.267   2.121  15.103  0.3768  0.5038  0.1129
21966W        W37097  10.525  12.961  14.112  0.1904  0.0849  0.2065
21967W        W37098  13.787  13.721   3.873  0.0734  0.2801  0.4337
21968W        W37099   9.060   5.291  10.767  0.2407 -0.1150 -0.0991
21969W        W37100  14.305  16.776  12.134 -0.0685  0.0257 -0.2596
21970W        W37101  11.655   1.213   4.200 -0.0597 -0.2310 -0.2325
21971W        W37102   2.262   5.027  12.681  0.2257  0.0210 -0.2320
21972W        W37103  13.064   8.454   0.831 -0.0290 -0.0429  0.2472
21973W        W37104  17.570  18.263  14.032  0.0822 -0.0831  0.0766
21974W        W37105  17.928  13.989  11.229  0.2958 -0.1673  0.2201
21975W        W37106   5.990   0.409  14.774 -0.0051 -0.0659  0.2817
21976W        W37107  15.383   9.357   2.386 -0.0321 -0.2314 -0.0141
21977W        W37108   5.484   8.250  10.660  0.1535 -0.4154  0.1101
21978W        W37109   9.776  16.330  13.233 -0.2008  0.0274  0.1245
21979W        W37110   8.359  11.256  13.961  0.1226  0.0115  0.0771
21980W        W37111   5.921   8.016  13.841  0.2797 -0.0835  0.0706
21981W        W37112   5.343  10.353  12.815  0.0201 -0.1198 -0.0381
21982W        W37113  12.582   8.550  15.431  0.3735  0.1810  0.0877
21983W        W37114   1.820   7.627  11.717  0.1963  0.1359 -0.0152
21984W        W37115  15.914   5.246   2.756 -0.0036  0.1327  0.0714
21985W        W37116   6.150  16.286  13.103 -0.0147 -0.2145  0.0337
21986W        W37117   6.829  11.859   9.782 -0.3353  0.3523  0.0662
21987W        W37118   4.104   5.225   1.043  0.0479  0.1687  0.1509
21988W        W37119   4.947  16.162   2.852  0.2189  0.0900 -0.0600
21989W        W37120   0.963  12.382  12.942 -0.0322 -0.2963 -0.2774
21990W        W37121  11.433   1.400  15.030 -0.1221 -0.3249 -0.1545
21991W        W37122   5.166   7.539   2.817  0.1019 -0.2336  0.2388
21992W        W37123  10.152   3.948  12.845  0.0176  0.1708 -0.1872
21993W        W37124   7.730   6.061  15.322 -0.0808 -0.0662 -0.2128
21994W        W37125   0.777   4.710  10.736 -0.0080 -0.0496  0.1088
21995W        W37126   3.202  12.168   3.432  0.2852 -0.1335 -0.1627
21996W        W37127   7.154  14.754   5.088 -0.3469  0.2013 -0.2217
21997W        W37128  17.297   9.740  11.242 -0.2489 -0.3035  0.1955
21998W        W37129   0.106  16.583  15.012 -0.0551  0.0924 -0.2918
21999W        W37130   2.097   0.687   1.212  0.2967 -0.2681  0.0853
22000W        W37131  14.097  13.500   0.597  0.1048 -0.2174  0.1229
22001W        W37132   2.298   5.114  11.000  0.1415  0.0033  0.1369
22002W        W37133   5.583  17.030  11.313  0.1443 -0.1406 -0.0309
22003W        W37134  12.471   4.619   3.528 -0.0955 -0.1762  0.4024
22004W        W37135   1.238  13.188   3.626 -0.2588  0.2341  0.0543
22005W        W37136   0.119   9.724   0.464  0.0014 -0.1400  0.1319
22006W        W37137   5.482   7.992   5.227  0.2710 -0.2050  0.1601
22007W        W37138   6.816   8.497   1.629  0.0497 -0.3136  0.1126
22008W        W37139   8.569   2.773   4.516  0.1879 -0.1535 -0.2779
22009W        W37140   8.906   0.871   0.643  0.3156 -0.3438  0.1389
22010W        W37141   8.205  11.881  10.202 -0.0650 -0.3707 -0.1494
22011W        W37142   8.876  10.076  11.528  0.2498 -0.0507 -0.1918
22012W        W37143   8.074  14.230  13.904  0.2763  0.0445 -0.3090
22013W        W37144  10.900   6.241   0.086 -0.2256 -0.2991  0.0035
22014W        W37145   1.372   0.986   4.541  0.0302 -0.2146  0.0950
22015W        W37146  12.188  14.650   3.791 -0.0934  0.1762 -0.4928
22016W        W37147  13.693   6.081   5.270 -0.0641  0.0830  0.2198
22017W        W37148  12.801  14.586  13.158 -0.1758 -0.0400  0.1430
22018W        W37149   9.028  16.439   3.777 -0.1108 -0.0927  0.0237
22019W        W37150   2.659  14.811   5.008  0.1460 -0.2570  0.0377
22020W        W37151   4.268  12.156  11.809  0.0524  0.3762 -0.2821
22021W        W37152   0.112   6.754   4.386  0.1588  0.1228  0.1425
22022W        W37153   4.083  16.911  14.197 -0.1546  0.1013  0.1141
22023W        W37154  14.705  16.318   0.925  0.0731 -0.0146 -0.0494
22024W        W37155  11.641  13.449   3.452 -0.1399  0.1461  0.2204
22025W        W37156  16.223  12.574  13.790 -0.1464 -0.1956 -0.0060
22026W        W37157  14.670  12.636  11.825 -0.0413 -0.2244  0.0337
22027W        W37158   8.556   2.252   5.335  0.3248 -0.0893 -0.4790
22028W        W37159   5.870  13.824  14.622  0.2355  0.0791 -0.2007
22029W        W37160   7.486  16.330  14.861 -0.0315 -0.2178 -0.0946
22030W        W37161  10.796   3.521  12.191  0.2408  0.2112 -0.0323
22031W        W37162   9.635   1.149  12.798 -0.1217 -0.0298  0.1277
22032W        W37163   5.293   7.742  15.716 -0.0244 -0.2128  0.1197
22033W        W37164  13.427  10.772  11.436  0.1657 -0.0469 -0.3026
22034W        W37165   8.074   1.867   2.530  0.1227 -0.0545  0.4287
22035W        W37166  15.545   6.425   3.108 -0.1867  0.0268  0.2381
22036W        W37167   0.493   6.547  15.628 -0.0516  0.0510  0.0283
22037W        W37168  15.028  10.414   3.894  0.2790 -0.0265 -0.1247
22038W        W37169  15.617  15.771   5.163 -0.1070 -0.1713 -0.2470
22039W        W37170   1.713   1.232   0.468  0.1315 -0.1586 -0.0105
22040W        W37171  16.775   9.098   4.122  0.0099 -0.1015 -0.1172
22041W        W37172  11.252   4.219   5.419 -0.2688  0.0316 -0.0367
22042W        W37173   4.648   4.105   4.742  0.1301  0.2304  0.0718
22043W        W37174   7.492  10.389   0.518  0.1790 -0.4004  0.1388
22044W        W37175  11.745  15.032   4.554  0.1458 -0.3186 -0.0917
22045W        W37176   3.639   0.757  14.209 -0.4391  0.0377  0.1250
22046W        W37177   9.639   1.177  11.837 -0.2971 -0.0329 -0.0060
22047W        W37178   6.854   5.582   1.227 -0.1672 -0.1555  0.0301
22048W        W37179  18.012   9.145  14.254 -0.1067  0.1144  0.0167
22049W        W37180   9.097   6.312  12.857  0.1808  0.3149 -0.0282
22050W        W37181   1.114   3.083   0.831 -0.1049 -0.2002 -0.0198
22051W        W37182  17.169   3.709  14.424  0.2421 -0.1025 -0.1102
22052W        W37183  13.253   9.650  13.052 -0.2209 -0.0062 -0.0614
22053W        W37184   4.613   1.279   0.357  0.0100 -0.1347 -0.2879
22054W        W37185   6.719   4.146  12.255 -0.4555 -0.1266  0.0349
22055W        W37186   2.554  11.155   0.179  0.1807  0.0067 -0.1338
22056W        W37187   8.386   0.836   2.642 -0.3475 -0.2975 -0.1652
22057W        W37188   2.512   6.542   1.427 -0.1653 -0.0412 -0.1195
22058W        W37189  12.251   6.759   1.181 -0.0546  0.0591  0.3222
22059W        W37190   7.658   6.507  11.665 -0.0906 -0.2713  0.4589
22060W        W37191  15.697   4.831   3.447 -0.0314 -0.1642  0.2691
22061W        W37192   0.787   8.813   2.698 -0.1857  0.0182  0.0711
22062W        W37193   9.293   8.406  12.510  0.0074 -0.2246  0.2941
22063W        W37194   9.048   6.556  11.618  0.1160 -0.0765  0.0218
22064W        W37195   5.380  12.570  11.766  0.0338  0.3197 -0.0801
22065W        W37196  12.878   8.588  12.912  0.0137  0.1200 -0.1563
22066W        W37197   6.944   8.836  13.475 -0.2753 -0.0204  0.0038
22067W        W37198   2.530   7.639   0.634  0.3595 -0.2209 -0.1423
22068W        W37199  14.258   5.453   4.842  0.0891 -0.0394  0.0304
22069W        W37200   6.611  13.416   9.676  0.2762  0.1200 -0.1890
22070W        W37201   7.732   6.641  15.065  0.1404  0.0317 -0.1869
22071W        W37202   8.594   9.216   5.489 -0.0587 -0.1602 -0.0951
22072W        W37203  11.453  13.433   0.354 -0.2551 -0.1350  0.2382
22073W        W37204   9.537   7.363   1.162 -0.0893 -0.1620 -0.0340
22074W        W37205   5.222  10.315   0.154 -0.1172 -0.2858 -0.0706
22075W        W37206   2.078  17.950  12.899 -0.0001  0.0449  0.0993
22076W        W37207  13.669   4.767  15.653  0.1371  0.3427  0.0325
22077W        W37208   5.480  12.753   1.028 -0.0969 -0.0133  0.2895
22078W        W37209  18.390  13.375  11.451 -0.1908 -0.0139  0.0654
22079W        W37210   6.704   0.881   4.458  0.0522  0.1368 -0.0606
22080W        W37211   6.140   2.469   2.930  0.0933  0.0501  0.0204
22081W        W37212   8.980   2.858   0.495 -0.1696  0.0141 -0.0147
22082W        W37213   2.959  17.685  14.103  0.3845  0.3293 -0.1851
22083W        W37214   1.441  13.198   5.496  0.1925  0.2904 -0.1968
22084W        W37215   5.378   2.509   4.949 -0.4856 -0.1440 -0.0626
22085W        W37216  11.650   6.105   2.440  0.2734  0.1910 -0.2409
22086W        W37217   3.799  16.008  15.438 -0.1051 -0.2244 -0.1454
22087W        W37218   0.272   3.287  14.973 -0.1447  0.0912 -0.1166
22088W        W37219  16.275  10.879  14.311  0.2106 -0.1422  0.1333
22089W        W37220  10.326  10.653  14.801  0.1447 -0.0675  0.2774
22090W        W37221   3.448   1.866   4.713 -0.1585  0.0506  0.2322
22091W        W37222  13.028  13.428  15.262 -0.1185 -0.2449  0.0452
22092W        W37223  10.768   7.368  10.005 -0.0754  0.0590  0.0118
22093W        W37224  15.875   0.209   3.092 -0.0489 -0.1797  0.3185
22094W        W37225  11.786  16.844  11.822 -0.1897  0.1874 -0.0516
22095W        W37226  10.932  15.993   3.933 -0.1086 -0.1642 -0.2813
22096W        W37227   3.675   4.193   2.077  0.2122 -0.0268 -0.2192
22097W        W37228  16.177  15.595  11.676  0.0421 -0.1702  0.4696
22098W        W37229   6.462  16.702   1.087  0.1216 -0.0354  0.2055
22099W        W37230  11.397  15.493  15.211  0.2821  0.1390 -0.1342
22100W        W37231   9.968  13.285  13.332  0.2937  0.2753 -0.2886
22101W        W37232   2.721  15.028  11.109  0.0408  0.1363 -0.0930
22102W        W37233   3.218   5.260   4.527 -0.0078  0.1133  0.1646
22103W        W37234  12.371  17.003  12.493  0.0292 -0.0385 -0.0275
22104W        W37235  14.345  15.663  15.525 -0.0595  0.0013  0.0303
22105W        W37236   5.698  10.193   2.271 -0.0499 -0.0802  0.0335
22106W        W37237  18.442  16.658  13.677  0.0912 -0.3288 -0.3246
22107W        W37238   5.641  11.396   1.890 -0.0024  0.1662  0.2775
22108W        W37239   7.545   4.543  14.842  0.2864  0.0976  0.2885
22109W        W37240  13.140  18.570  15.004  0.4939  0.0584 -0.0658
22110W        W37241  18.445  17.730  12.264  0.0959  0.0617 -0.0713
22111W        W37242  11.366   9.587  12.322 -0.0682  0.1802 -0.1140
22112W        W37243   1.568   5.347  13.402 -0.0103  0.0262 -0.1405
22113W        W37244   5.863   6.295  11.749  0.1256 -0.1221 -0.2490
22114W        W37245  12.243   8.132   1.874 -0.0198 -0.4637  0.3926
22115W        W37246   0.954  18.718  14.051 -0.1039  0.0473 -0.0520
22116W        W37247  15.477   6.295  15.206 -0.0417 -0.2761  0.0443
22117W        W37248   3.191   9.000   4.706 -0.0229  0.0142  0.1786
22118W        W37249   2.641  15.258   5.479  0.2000  0.4040 -0.3464
22119W        W37250  14.312  10.070   4.122  0.0698  0.3670 -0.1199
22120W        W37251   2.200   7.143   4.973 -0.0154 -0.0961 -0.1924
22121W        W37252  14.926   4.145   4.525 -0.1350 -0.2770 -0.1537
22122W        W37253  16.657   4.087  13.110  0.3109  0.0626  0.1850
22123W        W37254  15.688  15.964  15.444 -0.0493 -0.4073  0.2255
22124W        W37255  11.413  10.964   9.986 -0.0511 -0.7346  0.0105
22125W        W37256   3.292   4.232  10.671 -0.2831 -0.1022 -0.0136
22126W        W37257   3.644  18.662  14.314  0.2751  0.1032  0.1115
22127W        W37258  18.066   7.512   5.461 -0.1384  0.1146  0.0656
22128W        W37259   8.051  13.370  10.116 -0.1413  0.1265  0.1052
22129W        W37260   6.312   4.716   4.377 -0.3041 -0.2544  0.0619
22130W        W37261   1.787   0.385   2.478  0.2649 -0.0148 -0.0368
22131W        W37262  18.531   6.459   2.757 -0.0928 -0.0417 -0.1326
22132W        W37263   4.987   0.968   4.235  0.0037 -0.0287  0.0014
22133W        W37264   2.667   3.964   1.246 -0.2035  0.0487  0.1964
22134W        W37265   3.815  16.815  15.024  0.2458 -0.0062 -0.2382
22135W        W37266   7.670  13.414  12.941 -0.1962 -0.1117  0.0971
22136W        W37267   8.124  13.620  11.114 -0.1236  0.1330 -0.0256
22137W        W37268   7.462  18.495   3.770  0.0031  0.1777  0.1070
22138W        W37269  13.759   4.842  12.367 -0.0527  0.1524  0.1576
22139W        W37270  14.919  18.439  15.179  0.0308  0.0980  0.0846
22140W        W37271  13.521  16.296   1.620 -0.0813 -0.3289  0.1471
22141W        W37272   2.617  15.199  12.772 -0.2418 -0.0556  0.3079
22142W        W37273   3.697   1.857  14.388  0.0358 -0.1990  0.3337
22143W        W37274   8.834   2.513  11.014  0.3326  0.0305  0.1979
22144W        W37275   1.119  12.163  11.324  0.0730 -0.0497  0.0851
22145W        W37276  15.621   6.320  11.700 -0.1193  0.3408 -0.1764
22146W        W37277   9.105  14.978  12.654 -0.2211 -0.3449 -0.2413
22147W        W37278  15.746   2.418   0.480  0.1257  0.0556 -0.1502
22148W        W37279   3.104  10.765   4.266 -0.0773  0.0519 -0.2626
22149W        W37280   6.014   1.756   2.390 -0.2836 -0.3559 -0.1706
22150W        W37281  13.008   5.494  10.361 -0.0522  0.0432  0.1064
22151W        W37282   9.975  12.480  15.278  0.4258  0.2423  0.1221
22152W        W37283  15.761  12.825   0.812 -0.0910  0.2839 -0.5833
22153W        W37284  11.396   9.980  13.093  0.4036  0.0863 -0.0568
22154W        W37285   1.335   7.964  11.805 -0.3113  0.0864  0.1142
22155W        W37286   0.699   9.334   3.457  0.0333 -0.1357 -0.0801
22156W        W37287   6.434   1.282  14.599  0.3267 -0.1969 -0.0557
22157W        W37288   0.388   1.553  12.500 -0.2511 -0.3879 -0.0240
22158W        W37289   7.565   8.663  10.311  0.0086  0.2510  0.1758
22159W        W37290  17.032  14.347   3.556 -0.0643  0.0826  0.2498
22160W        W37291   5.277  17.805  11.812  0.0473 -0.0694 -0.3614
22161W        W37292   5.345  10.714   2.908  0.0833 -0.1009 -0.0546
22162W        W37293   4.866  11.546   1.463 -0.3192  0.0470  0.0953
22163W        W37294   8.054   7.375   3.351  0.3365  0.1706  0.4974
22164W        W37295   9.684   0.412  12.208  0.0770  0.2053 -0.2842
22165W        W37296   1.006  10.174  14.971 -0.3223  0.0831 -0.2422
22166W        W37297  16.803  17.042  12.715  0.1934  0.2392 -0.0684
22167W        W37298   7.548   4.918  14.390  0.2137  0.0490  0.4709
22168W        W37299   4.509   1.821   0.174 -0.0217 -0.0014 -0.1160
22169W        W37300   1.738   1.590   5.137 -0.1151 -0.2150 -0.2216
22170W        W37301  15.880  15.617  14.174  0.1842 -0.0075 -0.1526
22171W        W37302  10.448   6.401   3.872 -0.0640  0.1301  0.0798
22172W        W37303  11.968  11.215  13.109 -0.1672  0.3618  0.2027
22173W        W37304  12.823   7.147   2.629  0.5973 -0.0210 -0.1979
22174W        W37305   6.730  13.921   1.530  0.2264  0.0260 -0.2830
22175W        W37306   3.738   9.306   5.698 -0.2489 -0.0512 -0.0816
22176W        W37307  14.211  12.119  15.542  0.3094  0.1400 -0.4768
22177W        W37308  16.180   2.650  10.898 -0.0761  0.2045  0.1519
22178W        W37309  12.907   2.320   4.736  0.1399 -0.0936  0.0772
22179W        W37310   7.444   0.480   5.380  0.1332  0.0619 -0.0979
22180W        W37311   5.836   2.898  11.866  0.0604  0.1340  0.1577
22181W        W37312  15.363  18.612   0.194  0.0999 -0.0812  0.1019
22182W        W37313  16.093   4.492  15.384 -0.2734 -0.0518 -0.1970
22183W        W37314  11.421  16.510  14.531 -0.1122  0.2519 -0.2527
22184W        W37315  12.042  14.967   3.434  0.0011 -0.1381 -0.2943
22185W        W37316  11.903  14.063  12.515 -0.3240 -0.0775 -0.0753
22186W        W37317   1.177   8.859   0.821  0.0351 -0.1002 -0.0389
22187W        W37318  17.853   6.526   4.121 -0.1800  0.1351 -0.1378
22188W        W37319  13.867  11.858  15.750 -0.1563  0.3119  0.0862
22189W        W37320  13.983  15.975   2.207 -0.0462 -0.2347  0.1019
22190W        W37321  12.827  10.920   2.987 -0.0219  0.0662  0.0767
22191W        W37322  12.973  11.005  15.460  0.0875 -0.3127  0.0245
22192W        W37323   8.222  17.596   1.736  0.0402 -0.0053 -0.1649
22193W        W37324  11.589   7.154   2.010 -0.0432  0.0044 -0.3944
22194W        W37325  11.866   0.671   4.145  0.1476  0.0241 -0.2080
22195W        W37326  18.196   3.957  13.638  0.1131 -0.0210  0.0157
22196W        W37327  15.405  10.285  13.297 -0.0835 -0.2776 -0.1736
22197W        W37328   4.316   3.579  15.535  0.0811  0.0945  0.2527
22198W        W37329  14.818   3.606   1.188  0.2289 -0.3895 -0.0038
22199W        W37330  15.378  15.729   0.910 -0.2563 -0.1986  0.0346
22200W        W37331  16.724   8.737   3.790 -0.0327 -0.0134  0.1276
22201W        W37332   0.563   1.816   4.652  0.0032  0.1351  0.0080
22202W        W37333  16.668   0.435   4.893 -0.0200  0.0619 -0.2534
22203W        W37334  11.137  10.159   3.607 -0.0427  0.1808 -0.1752
22204W        W37335  12.626  10.944   1.032  0.0072 -0.0958 -0.0702
22205W        W37336  18.349   7.706   4.240 -0.1003  0.1013 -0.1185
22206W        W37337  11.222  13.081  10.890 -0.1426  0.0073 -0.1030
22207W        W37338   4.726  18.032   4.554 -0.3355  0.1210 -0.1496
22208W        W37339   3.571   4.950   4.265  0.1095  0.2354  0.3403
22209W        W37340   6.277   0.347  13.628  0.1393  0.0675 -0.3870
22210W        W37341  16.750   8.383   1.097 -0.2177 -0.2384 -0.0833
22211W        W37342  17.675   6.687   5.280 -0.1330 -0.0382 -0.2556
22212W        W37343  14.708   0.766   4.494 -0.1585 -0.1356  0.0676
22213W        W37344   3.415  16.893  11.539 -0.0284 -0.0808 -0.0589
22214W        W37345   1.774  17.787  14.244 -0.3453 -0.0479  0.3954
22215W        W37346   7.856   0.183   3.217 -0.2507 -0.0641 -0.2979
22216W        W37347  14.662   7.196  14.316 -0.0476  0.0301 -0.1779
22217W        W37348  10.404  13.145   0.123  0.0248  0.1239  0.0202
22218W        W37349   2.655  13.695  11.077  0.0693 -0.3044  0.2268
22219W        W37350   7.728  10.409   0.071  0.0436 -0.2754  0.0218
22220W        W37351   9.932   4.935   1.650  0.4047  0.1164 -0.0365
22221W        W37352   0.273   7.487   0.109  0.0790  0.2018 -0.0212
22222W        W37353  13.175  15.798   1.815  0.1160 -0.1064  0.1311
22223W        W37354  10.542  10.731   4.065  0.3315 -0.2515 -0.1493
22224W        W37355  11.687  14.025   4.421  0.3995 -0.3343  0.2403
22225W        W37356  13.556  13.339   3.430 -0.0489 -0.0957 -0.0023
22226W        W37357   7.616   2.230   2.310 -0.2870 -0.0814 -0.0281
22227W        W37358   2.308  14.805   2.552 -0.1037 -0.5473  0.0243
22228W        W37359   9.529  16.175   3.555 -0.0680  0.3036 -0.1334
22229W        W37360   5.651  18.379   0.363  0.2424  0.0549  0.1521
22230W        W37361   3.025   3.857  11.397  0.2879  0.0127  0.1955
22231W        W37362   0.118   7.935   3.270  0.1168  0.3146  0.1701
22232W        W37363  13.919  12.801   3.551 -0.0704 -0.0230 -0.2759
22233W        W37364   9.948   9.639  12.698  0.1505  0.0835 -0.2211
22234W        W37365  13.886   3.068  11.984 -0.0427  0.0652 -0.2668
22235W        W37366   0.303  15.607   1.761 -0.0072 -0.2362  0.3088
22236W        W37367  16.413   3.905   0.371  0.2921 -0.1521  0.1770
22237W        W37368   9.792  17.750   4.977  0.0882 -0.1893  0.0150
22238W        W37369   6.251   6.178  15.118 -0.2550 -0.2158 -0.1351
22239W        W37370  17.704  13.432  14.460 -0.0594 -0.1440 -0.0831
22240W        W37371  13.429  12.905   3.389 -0.1254  0.1187 -0.0942
22241W        W37372   4.934  10.465   1.906  0.2765 -0.1031 -0.0084
22242W        W37373   5.376   4.625  15.181  0.0450 -0.1881 -0.1678
22243W        W37374   6.343   7.592  14.908 -0.4974 -0.0331 -0.1726
22244W        W37375   3.206   4.571   1.992  0.1730 -0.0345 -0.1749
22245W        W37376  11.616  13.657  12.384  0.2552 -0.2617  0.0146
22246W        W37377  12.888   0.005  11.445 -0.1077 -0.2018 -0.0371
22247W        W37378  16.844   8.838   2.465  0.0090  0.1700 -0.5145
22248W        W37379   9.944  16.584  11.707 -0.0450 -0.1623 -0.2530
22249W        W37380   9.501   0.921   0.588  0.2428  0.0462  0.2162
22250W        W37381   6.083   0.398   0.909  0.1226  0.1459  0.1954
22251W        W37382  18.349  11.308   2.540 -0.0697 -0.0950  0.1629
22252W        W37383   8.500  11.969  15.412 -0.0299 -0.1700  0.0255
22253W        W37384  14.138  10.482   3.460  0.2719 -0.1677 -0.0230
22254W        W37385   2.255   4.306  14.800 -0.0579  0.0238 -0.2051
22255W        W37386  18.303  16.084  12.962  0.1295  0.0624 -0.0020
22256W        W37387   1.914  17.470  15.514 -0.1447  0.3302 -0.3255
22257W        W37388   5.582  10.553   1.094 -0.1205  0.2366 -0.0534
22258W        W37389  18.450   1.303  12.235 -0.2098  0.0057  0.0346
22259W        W37390   2.400   2.737   0.646 -0.0101  0.3164 -0.3262
22260W        W37391   3.492  14.191   3.321  0.1279 -0.1328  0.2023
22261W        W37392   4.662  12.828   3.809  0.2516 -0.1094  0.0247
22262W        W37393  10.337  10.141   2.835 -0.0392  0.1977  0.0145
22263W        W37394  15.654   4.475   2.161 -0.0509  0.0275  0.1578
22264W        W37395  13.631   4.023  14.977  0.3357  0.0314  0.0257
22265W        W37396   1.961   4.116  10.569 -0.3074 -0.0990 -0.2026
22266W        W37397  10.710  16.697  13.945  0.0667 -0.0801  0.0375
22267W        W37398  16.632  10.475   0.289 -0.1388  0.3011 -0.1781
22268W        W37399  12.628  10.138   3.936  0.0902  0.0953 -0.0322
22269W        W37400  13.324  16.026   0.705  0.1954  0.1036  0.3476
22270W        W37401  14.878   9.717  11.403 -0.0587  0.1000  0.1977
22271W        W37402   3.420   7.063  11.490 -0.0423  0.3257  0.1060
22272W        W37403  17.306   9.478  11.651  0.2251 -0.1004  0.0909
22273W        W37404   5.136  17.955  14.756 -0.0068  0.1105  0.0137
22274W        W37405   9.075   7.114  13.939  0.1158  0.2126 -0.2038
22275W        W37406   5.229  13.735  14.669 -0.2067  0.0117  0.3471
22276W        W37407  14.324  13.016  11.671  0.1424 -0.1679  0.0577
22277W        W37408   4.065  12.238   0.693  0.2694  0.2879 -0.1901
22278W        W37409  15.252   4.890   2.219  0.0623  0.2179 -0.3366
22279W        W37410  13.828   1.443   1.747  0.0037 -0.2193  0.1997
22280W        W37411  12.733   0.336   0.084 -0.2318  0.4052 -0.0755
22281W        W37412   8.634   1.605   6.013 -0.0814 -0.2412 -0.1285
22282W        W37413   8.684  18.257   4.285  0.0370  0.1116 -0.0197
22283W        W37414   1.095   3.448  13.204  0.0505 -0.0520 -0.4946
22284W        W37415   4.569   7.117   3.356 -0.1069 -0.0369  0.2564
22285W        W37416  10.532   8.082   0.726 -0.3359 -0.0679  0.0105
22286W        W37417  15.640  11.380  14.236 -0.5067 -0.0003  0.3335
22287W        W37418  12.959   6.736  14.531 -0.1078  0.0990 -0.0533
22288W        W37419   3.400   3.755  11.652  0.0737  0.1177  0.0932
22289W        W37420  12.345   2.822  14.416  0.0826 -0.1004 -0.0736
22290W        W37421   3.652   4.493   4.608 -0.1586  0.5428 -0.1247
22291W        W37422   4.630  13.686  10.967 -0.0181  0.0520  0.2507
22292W        W37423   2.792  12.303  11.030  0.0545  0.0202  0.0582
22293W        W37424  12.420  13.520   5.703  0.1956  0.1821 -0.2458
22294W        W37425  17.449  11.619  13.593 -0.1719  0.0725  0.0103
22295W        W37426  13.343   9.348  15.400  0.1726  0.0867  0.0742
22296W        W37427   4.311   6.949   2.115 -0.1685 -0.3623  0.1539
22297W        W37428  11.895   4.918   4.946 -0.1354 -0.4613  0.4270
22298W        W37429   8.201   3.383   1.878  0.1197  0.0215  0.2629
22299W        W37430  18.612   1.853   4.883  0.3321 -0.1263  0.1288
22300W        W37431   1.886  12.302  13.362 -0.2574 -0.3903  0.2536
22301W        W37432   4.365  16.058  12.331 -0.1890  0.2357 -0.0342
22302W        W37433   8.002   9.256   3.372  0.0241  0.1776  0.0496
22303W        W37434  17.566  16.286  10.405  0.1141 -0.1527  0.2053
22304W        W37435  17.751   0.256   0.556 -0.1635 -0.1804 -0.0452
22305W        W37436  18.604   6.950   2.386 -0.1288 -0.4867 -0.1299
22306W        W37437   8.274  12.041  14.566 -0.0105  0.0022  0.1179
22307W        W37438   5.717  15.451  13.089  0.3976 -0.2291  0.0400
22308W        W37439  10.070  16.659   4.424  0.4189  0.0640 -0.1394
22309W        W37440   3.204   6.967  10.448  0.1204 -0.1602  0.0520
22310W        W37441  12.771  14.117   2.224  0.3839  0.2084 -0.4427
22311W        W37442  17.037   7.640   5.399 -0.2418 -0.1276 -0.1369
22312W        W37443   9.822   5.558  15.225 -0.1299 -0.0605  0.2523
22313W        W37444  14.724   9.256   5.302 -0.0164  0.2508 -0.0126
22314W        W37445  15.712   7.216  11.663 -0.2780 -0.4195 -0.1269
22315W        W37446   2.179  17.235  11.673  0.0707  0.0419 -0.3314
22316W        W37447   7.578   0.671   0.677 -0.0995  0.0700  0.1766
22317W        W37448  17.719   8.649  12.868 -0.1528  0.0102  0.3141
22318W        W37449   9.957  17.976  10.848 -0.1102 -0.2686  0.3566
22319W        W37450  12.556   3.704  11.052  0.2399  0.1744  0.1254
22320W        W37451  12.028  17.274   2.157  0.0201  0.0150  0.0122
22321W        W37452  12.319  13.780  12.772 -0.2043 -0.2627  0.1713
22322W        W37453   7.883  10.036   1.924  0.0600 -0.2206  0.0578
22323W        W37454   0.952   0.027  12.637 -0.2598  0.0506  0.0592
22324W        W37455  17.532   7.094  12.545  0.0646 -0.0329 -0.2504
22325W        W37456  12.835  13.552   2.238 -0.0009  0.1041 -0.1861
22326W        W37457   3.940   6.018   3.630  0.0555 -0.1269  0.0664
22327W        W37458  11.502  10.900  13.490  0.0281  0.0537 -0.0266
22328W        W37459   6.749   3.913  12.904 -0.1217  0.1718  0.2391
22329W        W37460   1.503  10.627  14.555 -0.1343 -0.1414 -0.0247
22330W        W37461   7.380  17.718   1.903  0.0233  0.2774  0.2737
22331W        W37462   9.522  12.768  15.240  0.1452 -0.0820  0.1918
22332W        W37463  12.366   2.958  11.668  0.0402 -0.0930 -0.1548
22333W        W37464  14.349   4.155  11.956  0.0009 -0.3230 -0.4119
22334W        W37465   0.222  13.292   4.305  0.4955 -0.1734 -0.2882
22335W        W37466   9.788   1.170  13.578 -0.2195  0.1771 -0.1283
22336W        W37467   9.701  17.347   0.901  0.1876  0.0498  0.0544
22337W        W37468  13.889  12.088   1.932  0.1271 -0.1147  0.1492
22338W        W37469   6.173  12.571   0.254  0.0048 -0.1450  0.0093
22339W        W37470  11.486   0.616  13.304 -0.1148  0.1861 -0.1528
22340W        W37471   3.998   2.514  11.827  0.2018 -0.0076 -0.2871
22341W        W37472   5.578   3.290  15.215 -0.0268 -0.1108  0.0977
22342W        W37473   8.253  14.795   2.454  0.1102  0.1105 -0.3148
22343W        W37474   4.534  12.719   4.385 -0.0472  0.2698  0.1824
22344W        W37475   0.291  11.595   1.402 -0.1910  0.0773  0.0746
22345W        W37476  10.861  16.700  13.179  0.0093 -0.0712 -0.0668
22346W        W37477  14.250  12.722  12.107 -0.1980  0.0671 -0.1173
22347W        W37478   6.772   6.368  11.199  0.1484 -0.0839 -0.2279
22348W        W37479   1.181  15.418  14.494  0.0139  0.0024  0.1426
22349W        W37480   7.863  15.278   0.370 -0.2627  0.0076  0.3726
22350W        W37481   4.566  12.337  15.279  0.3104 -0.0904 -0.2591
22351W        W37482  14.995   5.380   2.961  0.0481 -0.0674 -0.1831
22352W        W37483  10.016  10.610  12.887  0.2445  0.1012 -0.1866
22353W        W37484   2.280  15.528   1.709  0.1493  0.1446  0.0577
22354W        W37485  18.646  12.540  14.940 -0.2236 -0.4037  0.3572
22355W        W37486   8.080   2.000  15.512  0.1833  0.1157 -0.0677
22356W        W37487   3.614   8.142   3.485  0.2527 -0.0445  0.2095
22357W        W37488   4.184   0.367  14.425  0.2519 -0.2580 -0.0713
22358W        W37489   7.644  11.288   3.993 -0.1680 -0.2021 -0.3171
22359W        W37490   3.903  16.924  11.338 -0.1109  0.0055 -0.2412
22360W        W37491  12.108  18.109   4.540  0.0353 -0.0248  0.1014
22361W        W37492  18.009   2.339  13.401  0.0816 -0.4059 -0.0108
22362W        W37493   9.192  15.838  10.904  0.2094  0.1835 -0.1911
22363W        W37494   3.081   0.115  13.165  0.1512  0.2285  0.2003
22364W        W37495  18.339   9.309   2.246 -0.1055 -0.4463 -0.1585
22365W        W37496   0.938  15.129  13.582  0.1400  0.0276  0.1544
22366W        W37497  12.317   9.023   3.178  0.1303  0.0773  0.0379
22367W        W37498   3.430   2.820   6.031  0.0275 -0.3400  0.1717
22368W        W37499   8.226   1.169  13.695  0.2180 -0.0287  0.0152
22369W        W37500   1.481  16.524  11.546 -0.2330  0.1361  0.1503
22370W        W37501   1.349  15.602  11.963 -0.0853 -0.0314  0.3313
22371W        W37502   8.042   6.934  13.828 -0.2698 -0.0770  0.1117
22372W        W37503  18.414  10.861   2.803 -0.1443  0.0094  0.3775
22373W        W37504   2.302   3.655   3.203 -0.1217  0.2834  0.3504
22374W        W37505   7.403  16.189   2.250 -0.1370  0.0251 -0.1913
22375W        W37506   2.862   7.209  11.382  0.0652  0.1863 -0.2837
22376W        W37507   5.928  17.236  13.480 -0.1222 -0.1445  0.2210
22377W        W37508   9.240  12.168   0.174  0.1486  0.3069  0.0414
22378W        W37509   0.967   7.553  12.248 -0.0688 -0.1670 -0.1582
22379W        W37510  10.895  17.972   4.317  0.2501 -0.0702 -0.0438
22380W        W37511  10.490  17.057   0.350  0.3111  0.1998 -0.3539
22381W        W37512   8.856   6.989   0.707  0.1587  0.3268 -0.0874
22382W        W37513   3.546  14.399  10.795 -0.0021 -0.3757  0.0173
22383W        W37514   7.374   6.972  12.764  0.2297 -0.2350  0.0881
22384W        W37515  11.903   6.235   0.030 -0.0169 -0.2045 -0.1416
22385W        W37516  17.196  15.155   0.051  0.0131  0.2410 -0.2116
22386W        W37517   6.594   7.748  12.112  0.0614 -0.1411  0.0890
22387W        W37518  10.848   7.113   5.007 -0.4322 -0.1743  0.2365
22388W        W37519   0.874   8.251   5.697 -0.2051  0.2665 -0.0619
22389W        W37520   6.312  17.552   0.204  0.4635  0.1439  0.4031
22390W        W37521   6.018  17.431  12.890 -0.0278  0.3805 -0.1604
22391W        W37522   8.575   8.184   2.693  0.0512  0.2123  0.2222
22392W        W37523   2.956   9.632  15.789  0.1601 -0.3699  0.1401
22393W        W37524   6.953   9.661   2.154  0.2333  0.1705 -0.1052
22394W        W37525   0.566  11.761  11.827  0.0324 -0.0793 -0.2809
22395W        W37526  13.735   4.817   3.932 -0.0925  0.2010  0.1907
22396W        W37527  18.322   8.237   6.044 -0.1714  0.0781  0.2404
22397W        W37528   5.193  12.978  15.475 -0.0570  0.0410 -0.2133
22398W        W37529   9.396  15.474  11.830 -0.2823  0.2888  0.0703
22399W        W37530  12.494   6.482  14.408  0.3325  0.2151 -0.1568
22400W        W37531   2.486  14.722   5.468 -0.0297  0.1494  0.0569
22401W        W37532   5.408  15.393   5.495 -0.3967  0.3505  0.0827
22402W        W37533   0.900   4.678   5.415 -0.0163  0.0437 -0.3123
22403W        W37534   1.326   3.601   1.614 -0.0565  0.0175 -0.1436
22404W        W37535   0.105  15.382  12.890  0.1505  0.0960 -0.3691
22405W        W37536  11.398  10.308   0.240 -0.1129 -0.2534 -0.2798
22406W        W37537   8.171   1.790   5.972 -0.3959 -0.2042 -0.1080
22407W        W37538   3.855  12.754   0.607  0.0273  0.1681  0.1390
22408W        W37539   3.764  10.138   4.196 -0.2246 -0.0561  0.0091
22409W        W37540  13.336   5.831   2.572  0.2336 -0.0266  0.3259
22410W        W37541  13.646   0.125  15.769 -0.2481  0.2580 -0.0370
22411W        W37542   9.775  18.190   4.704  0.2993  0.3630 -0.1456
22412W        W37543  16.311  14.227  15.775  0.1742 -0.0972 -0.1768
22413W        W37544   2.278   6.161  12.576  0.2119 -0.0639 -0.1373
22414W        W37545  14.234   3.256  13.322 -0.1212  0.2001  0.6330
22415W        W37546   1.619  11.482  13.701  0.2081 -0.1640  0.0577
22416W        W37547   8.751  17.985   6.164  0.1728 -0.2954 -0.1499
22417W        W37548   6.614   6.019  14.168 -0.1194  0.0860  0.1391
22418W        W37549  18.408   9.905  10.759 -0.1525 -0.3526 -0.2392
22419W        W37550   1.657   1.589   0.976 -0.0855  0.1740 -0.2248
22420W        W37551  12.374  12.932  13.293  0.0397 -0.0568  0.0906
22421W        W37552   1.397  17.293  11.463  0.2092 -0.1879  0.0227
22422W        W37553   4.979  18.011   5.536 -0.2590  0.1170 -0.0497
22423W        W37554   9.226   2.422  15.449 -0.1363 -0.0463 -0.0911
22424W        W37555  18.037  11.076  15.684  0.4278  0.0408  0.1096
22425W        W37556   2.435   2.592  11.786 -0.3753 -0.1979  0.1376
22426W        W37557  10.962  11.579  10.408 -0.0681  0.1700  0.3161
22427W        W37558  17.735   8.046   3.165  0.1276 -0.1247  0.2138
22428W        W37559  13.003  12.892   2.682  0.3431  0.1300 -0.1676
22429W        W37560   4.401   7.408  13.963 -0.0416 -0.0634  0.4113
22430W        W37561  10.881   8.137   3.497  0.2353 -0.1581 -0.1031
22431W        W37562   6.603   3.478  15.790 -0.1235 -0.0395  0.0573
22432W        W37563   9.641   0.812  13.211 -0.3031 -0.2137 -0.0674
22433W        W37564  12.726   1.724  12.034  0.0798  0.0972 -0.0951
22434W        W37565  13.534   9.899  12.664 -0.2216 -0.2658  0.1004
22435W        W37566  15.029  11.289  10.548  0.2924 -0.0314  0.2392
22436W        W37567  13.524  12.589  14.751  0.2632 -0.0290 -0.0182
22437W        W37568  12.631   5.919   9.159 -0.0406  0.0360  0.3031
22438W        W37569  14.276   2.834  12.903 -0.0648 -0.1022  0.2424
22439W        W37570  12.192   2.811  14.937 -0.0583 -0.0023  0.2139
22440W        W37571   3.930   2.933   0.343  0.0261 -0.0118 -0.0328
22441W        W37572   4.575  18.346  14.673 -0.1941  0.0312 -0.0440
22442W        W37573  16.678  11.562   1.970 -0.3424  0.2367  0.0402
22443W        W37574  10.329   3.504  13.041 -0.0269 -0.3287 -0.1392
22444W        W37575   6.059  16.540  15.074 -0.1261  0.2058 -0.0942
22445W        W37576   7.629   7.257  13.611 -0.2556  0.1047  0.3674
22446W        W37577   8.926   6.711  14.245  0.1378 -0.1757 -0.1120
22447W        W37578  16.799  14.596  15.561  0.4030 -0.0321 -0.1655
22448W        W37579  15.829  16.886   0.993  0.4282 -0.1583 -0.0945
22449W        W37580   7.635   7.528  10.089 -0.0655 -0.0355  0.0324
22450W        W37581   1.929   7.395  13.141 -0.1976  0.2602  0.1580
22451W        W37582   3.597   5.939   2.752  0.2249  0.1952 -0.2791
22452W        W37583   4.674   9.381  15.100 -0.1457  0.0037 -0.0982
22453W        W37584   5.207  15.637   1.467 -0.3453 -0.1215 -0.0286
22454W        W37585   9.925   8.481  15.196 -0.3853 -0.0365 -0.1508
22455W        W37586   0.918   5.847  15.167 -0.0639 -0.0076  0.0188
22456W        W37587  12.209  17.975   0.892  0.1627  0.1460  0.0392
22457W        W37588   3.138  18.444  15.785 -0.1437 -0.0850  0.0707
22458W        W37589   0.687   5.472  12.559 -0.4857  0.3951  0.0974
22459W        W37590   7.915   1.408   0.112  0.4405 -0.0533  0.0159
22460W        W37591   6.400   5.948   5.177  0.3825  0.1916 -0.0804
22461W        W37592   5.213   7.906  14.296  0.2946 -0.0025 -0.1958
22462W        W37593   9.332   1.164   4.757 -0.0445  0.4150 -0.2349
22463W        W37594   2.819  15.805   3.694  0.3955  0.1068 -0.0554
22464W        W37595   7.755  15.309   3.853 -0.1500 -0.0896 -0.0498
22465W        W37596  13.980  15.298   0.590 -0.1674  0.0752 -0.4135
22466W        W37597  16.906  17.624  11.993  0.2818  0.0483 -0.1540
22467W        W37598   2.587   7.083   1.422 -0.3105  0.2170  0.0142
22468W        W37599  17.166  12.953   4.160  0.2771 -0.2709  0.0107
22469W        W37600  12.697   6.671   2.566  0.3459  0.1212  0.0608
22470W        W37601   9.370   3.771  13.267 -0.1310  0.0577 -0.2937
22471W        W37602   9.074   5.472  15.515  0.0253  0.0708 -0.0723
22472W        W37603  10.200   0.659  14.118 -0.2659  0.3269 -0.6691
22473W        W37604  14.770  18.613  10.741  0.0881  0.4069  0.2660
22474W        W37605   6.725  11.459  13.753  0.8265 -0.1016  0.1426
22475W        W37606  16.716  10.778   3.971  0.0960 -0.0369  0.0090
22476W        W37607   4.343  12.411   3.945 -0.2058  0.1567  0.0094
22477W        W37608  14.225   3.170   5.934 -0.0685 -0.1262 -0.0179
22478W        W37609  10.959  17.162   5.305  0.2533 -0.0284 -0.0762
22479W        W37610  12.557   2.786  13.927 -0.1915 -0.3674 -0.0409
22480W        W37611   3.073  17.974   0.035  0.2139  0.3409 -0.0954
22481W        W37612   6.405  10.262  11.791  0.4483  0.0801 -0.4763
22482W        W37613  16.240  14.702  12.712 -0.0995 -0.1601 -0.2661
22483W        W37614   2.015   8.693   4.903  0.3123  0.0752 -0.0043
22484W        W37615  17.848   5.883   5.922  0.0421  0.2277  0.1647
22485W        W37616  17.980   6.049   4.234 -0.2274  0.2768  0.1084
22486W        W37617   3.573   0.382   5.622  0.0030 -0.1320  0.0717
22487W        W37618   7.016   2.506  13.683  0.0954  0.1054  0.2677
22488W        W37619   7.498  15.795  11.792  0.2433  0.2151 -0.0545
22489W        W37620   7.935  17.079   4.753 -0.0483 -0.1059 -0.2850
22490W        W37621  18.282   2.685  15.467  0.1265  0.1858 -0.0773
22491W        W37622   9.591  11.880  15.735 -0.1889 -0.1096  0.2597
22492W        W37623   6.394   9.316   3.370  0.3528 -0.0530 -0.0600
22493W        W37624  13.872   3.729   2.421 -0.0137 -0.1709 -0.0392
22494W        W37625  17.465   2.496  12.273  0.1035  0.1577  0.2272
22495W        W37626   4.533  18.288   3.681 -0.0468 -0.1750  0.1484
22496W        W37627  12.413  14.059  12.355  0.3045 -0.0257  0.1444
22497W        W37628   3.690  11.709   1.939 -0.0792  0.1385  0.0816
22498W        W37629   1.771   1.077   1.267 -0.1327 -0.0158 -0.1043
22499W        W37630   8.580   4.603   1.730  0.2340 -0.1982  0.1821
22500W        W37631  16.129   4.795  14.073  0.1446 -0.0155  0.2394
22501W        W37632   6.663  11.134  13.305  0.2641  0.0482 -0.1084
22502W        W37633  18.087   8.082   4.590 -0.0228 -0.0170  0.4866
22503W        W37634   4.737  18.508  12.911 -0.1924  0.2146 -0.1129
22504W        W37635   3.371  10.326   2.327 -0.2847 -0.2402  0.0817
22505W        W37636   8.876   7.824   5.796  0.0621 -0.1797  0.0160
22506W        W37637  14.024  18.658  14.111 -0.2264  0.0697 -0.1314
22507W        W37638   0.745   4.250  13.168 -0.0853  0.4094  0.1320
22508W        W37639   3.769   9.660   4.225 -0.3521  0.3126 -0.1935
22509W        W37640  15.481   9.996  10.553 -0.1364  0.2544  0.2383
22510W        W37641   0.041  13.211  11.796 -0.1600 -0.2426 -0.0819
22511W        W37642  10.067   3.349  11.658  0.0848  0.0649 -0.0653
22512W        W37643  16.094  14.366  15.322  0.3921  0.1807 -0.3312
22513W        W37644   5.705   1.465   5.179  0.1475  0.0959  0.0665
22514W        W37645  14.658   9.877   3.748 -0.1806 -0.0439 -0.2585
22515W        W37646  12.283  11.557  13.063 -0.1493  0.0801  0.2212
22516W        W37647  16.982   6.388  15.456 -0.0147 -0.1587 -0.0774
22517W        W37648   8.064   2.894   0.326 -0.0537  0.0514 -0.0592
22518W        W37649  15.714   7.387   3.225 -0.0972 -0.3359  0.2096
22519W        W37650  13.558   2.707   1.434  0.1460  0.2754  0.1318
22520W        W37651   5.332   3.686   3.440 -0.3353 -0.1653 -0.0756
22521W        W37652   7.846   1.823  11.320  0.2019 -0.1422  0.0366
22522W        W37653   6.377  10.788   1.531 -0.4099  0.1388  0.1934
22523W        W37654  10.552   3.921   3.323  0.3792  0.0794  0.2802
22524W        W37655  11.356   0.599  15.621 -0.1471  0.1288 -0.3285
22525W        W37656   2.712   7.233  12.196 -0.1378 -0.0845 -0.0807
22526W        W37657   3.624   0.937  15.617 -0.2346 -0.1363  0.0382
22527W        W37658  16.224   6.634   2.277  0.0006 -0.0301 -0.1426
22528W        W37659   0.223  17.522  11.533 -0.0475 -0.0629  0.0436
22529W        W37660   3.492  12.911   2.666 -0.2513  0.1219 -0.2239
22530W        W37661  14.464  15.351   0.692 -0.0908 -0.5248  0.1328
22531W        W37662   8.986  12.825  11.765  0.0321 -0.0311 -0.0988
22532W        W37663   3.408   0.923   0.905 -0.0807  0.1850 -0.1094
22533W        W37664   9.171   8.075   2.690  0.0772 -0.1798  0.0633
22534W        W37665   0.906  15.046   2.380 -0.1669 -0.1364 -0.1015
22535W        W37666   7.738   0.467  14.541  0.0979  0.3343  0.1478
22536W        W37667  12.321   4.642   0.090  0.2610 -0.1743  0.0433
22537W        W37668   2.657  11.907  15.237  0.4134  0.1581 -0.5223
22538W        W37669  11.877   9.347  13.476  0.1167 -0.2281  0.0196
22539W        W37670  14.897   8.980  14.016  0.2636  0.1073  0.5990
22540W        W37671  15.305   8.154  13.847 -0.2273  0.0052  0.0806
22541W        W37672  10.432  14.088   2.190  0.1565 -0.2102 -0.1388
22542W        W37673  13.660   7.237   0.633 -0.2713  0.0252 -0.2283
22543W        W37674  12.938  10.189  14.794  0.1554  0.0816  0.0794
22544W        W37675  11.613  12.215  13.212 -0.0700  0.1245 -0.3449
22545W        W37676   1.333  18.420   5.162  0.1734 -0.2967  0.3031
22546W        W37677  12.512   3.373  12.978  0.0719 -0.0480 -0.1785
22547W        W37678  11.069   0.558  13.711 -0.1188 -0.0135  0.1400
22548W        W37679   7.232   2.926  11.952  0.2778 -0.0071 -0.3427
22549W        W37680   7.022   6.356   1.799 -0.0405 -0.0140  0.3180
22550W        W37681  12.034  16.059  12.390 -0.0479  0.1142  0.0621
22551W        W37682  16.106  13.682   2.376 -0.4192  0.0396  0.0316
22552W        W37683   1.753  12.321  10.012 -0.1364  0.2202 -0.1640
22553W        W37684  15.727   2.893  11.106 -0.1020  0.4639 -0.1503
22554W        W37685   9.236  16.758  10.643 -0.0678  0.3338  0.0333
22555W        W37686  11.613   7.518  13.025  0.0646  0.1280  0.1145
22556W        W37687   9.200  17.319  10.078 -0.0372  0.2936  0.0652
22557W        W37688  11.344  10.845  14.859  0.0989 -0.0616 -0.1583
22558W        W37689   8.821  15.820  11.516 -0.3491  0.0607 -0.3852
22559W        W37690  18.324  13.880  11.528 -0.0034  0.1325 -0.4063
22560W        W37691   0.958  16.809  13.247  0.2139  0.0743 -0.2473
22561W        W37692  12.697  12.350   3.468  0.2251  0.2992 -0.0815
22562W        W37693  18.511   4.032  13.236 -0.2009  0.0098 -0.0247
22563W        W37694   1.485   9.591   5.493  0.0039  0.1535  0.1742
22564W        W37695  10.113   1.218  12.036 -0.0308 -0.0023  0.1736
22565W        W37696  12.454  11.292   2.877 -0.0225 -0.2535 -0.0933
22566W        W37697   3.663   5.034   4.736  0.0986  0.4338  0.3265
22567W        W37698   9.303   7.079   4.871 -0.4394 -0.2837 -0.0281
22568W        W37699   2.715  18.571  11.611 -0.0798 -0.2313  0.3511
22569W        W37700  11.543   7.316   5.384  0.3169  0.1046 -0.1718
22570W        W37701   7.070  13.603   2.944  0.0916  0.4419 -0.0963
22571W        W37702  11.418  17.288   3.684  0.2774  0.1071  0.1478
22572W        W37703   1.239  10.111  14.165 -0.2227 -0.1400  0.1095
22573W        W37704   1.909  17.146  15.030 -0.0262  0.0630 -0.1070
22574W        W37705   7.478   9.173  11.594 -0.0306  0.3309 -0.2450
22575W        W37706   1.810  17.186  11.018 -0.0194 -0.0789 -0.1717
22576W        W37707  16.913   2.784   3.694  0.0932 -0.0555  0.1277
22577W        W37708   7.885   2.348   3.786  0.0515 -0.0041  0.0123
22578W        W37709   4.089   4.233  11.868  0.1446  0.1017 -0.4148
22579W        W37710   2.378   3.532  13.778  0.1272 -0.0939  0.0031
22580W        W37711   3.728   0.396  12.212 -0.2993 -0.0160  0.2684
22581W        W37712  15.174  12.578   5.863  0.2280  0.2960 -0.2412
22582W        W37713   7.150   9.536  10.085  0.0566 -0.0472  0.1387
22583W        W37714   4.295  17.570   1.303  0.1178 -0.2727 -0.0064
22584W        W37715  14.541   3.936  15.765 -0.0919  0.0386 -0.1401
22585W        W37716   7.032  14.929   1.723  0.0344 -0.3083 -0.1618
22586W        W37717   9.895   2.222   1.273  0.0840 -0.2679 -0.1145
22587W        W37718   5.548   8.155   4.600 -0.0369 -0.1789  0.1727
22588W        W37719   2.142   1.136   3.260  0.0315 -0.0169  0.2909
22589W        W37720   3.377  12.560  13.865 -0.0564 -0.1965 -0.4853
22590W        W37721  12.393   8.316   3.848 -0.0495  0.2148 -0.1012
22591W        W37722  17.634   7.965   1.074  0.0259  0.0556 -0.1952
22592W        W37723  18.208  18.676  15.421  0.2059  0.0674 -0.2927
22593W        W37724  15.841   4.151   2.943 -0.1800 -0.1627 -0.2037
22594W        W37725   0.656  14.256  11.577 -0.0082  0.0087 -0.4712
22595W        W37726   5.689  10.599  13.072 -0.0072  0.1671 -0.0020
22596W        W37727   0.127  14.964  11.939 -0.1559 -0.0808  0.0880
22597W        W37728   1.384   0.476   2.153 -0.1366  0.4070 -0.0543
22598W        W37729  11.936   4.350  10.797  0.0618 -0.1582 -0.0422
22599W        W37730   8.535   9.559  12.084 -0.2884  0.1241 -0.3942
22600W        W37731  11.125   0.595   1.989  0.0132 -0.0946  0.3421
22601W        W37732  11.240  11.257   3.498 -0.0742 -0.2724  0.2081
22602W        W37733   0.320  15.937  11.349 -0.0422 -0.2009 -0.1907
22603W        W37734  11.483   1.188   2.565 -0.2496  0.0095  0.1377
22604W        W37735  16.943   4.756   5.520  0.1717  0.0451  0.1791
22605W        W37736   3.913  14.178  11.288  0.3463 -0.2681  0.2779
22606W        W37737  12.984  16.171   1.568  0.1660 -0.0368  0.1200
22607W        W37738  10.015   6.879   3.512 -0.3973  0.1596 -0.0611
22608W        W37739   7.586  14.150   2.231 -0.0775 -0.1141  0.0045
22609W        W37740  11.461   1.630  13.616  0.0898  0.0650 -0.0843
22610W        W37741  16.830  10.364  14.953 -0.1971  0.0525  0.0398
22611W        W37742   7.164   1.081   4.051 -0.1257 -0.3089  0.2588
22612W        W37743  16.609   5.643   2.159 -0.0947 -0.0702 -0.1645
22613W        W37744   9.418   0.489   0.888 -0.0711 -0.1409  0.0290
22614W        W37745   4.869  10.596   0.372 -0.1769  0.0494 -0.2173
22615W        W37746  16.060   8.544   5.076 -0.0741 -0.2527 -0.0499
22616W        W37747   5.738   0.078   0.607 -0.1042  0.2102 -0.1912
22617W        W37748   1.711   4.362  15.071 -0.0279 -0.2682 -0.0982
22618W        W37749  14.883   2.054  12.456  0.0772  0.2219  0.0256
22619W        W37750  12.940  10.925   4.980 -0.5140 -0.0191  0.3805
22620W        W37751  16.350  14.635   3.918 -0.1677  0.0583 -0.1047
22621W        W37752  12.125   1.891   0.703  0.2515  0.0219  0.4726
22622W        W37753  14.714  15.769  12.634 -0.0925 -0.2300 -0.1447
22623W        W37754   1.788   9.578  14.368 -0.0572  0.0173 -0.2812
22624W        W37755  12.987   6.963  15.189 -0.3319 -0.2587  0.1553
22625W        W37756   4.134   4.752  15.265  0.4433 -0.1399  0.2064
22626W        W37757   2.796  11.496   1.841 -0.0830  0.4358  0.2693
22627W        W37758  10.205   3.194  14.218 -0.2600 -0.2256  0.0817
22628W        W37759   3.948   7.306   0.809 -0.1971  0.1791 -0.1000
22629W        W37760  10.906   1.872   1.742  0.2572  0.1442  0.0670
22630W        W37761  16.307   5.282  11.107 -0.1787 -0.0312  0.1048
22631W        W37762  11.767   1.224   2.997  0.0927  0.1629  0.1726
22632W        W37763  15.040   5.667  11.417  0.1551 -0.1838  0.1327
22633W        W37764  10.623   1.025  14.277 -0.0553  0.1014  0.4199
22634W        W37765   0.170  16.568  15.479  0.2797 -0.3416 -0.2557
22635W        W37766  12.720   4.625  15.654 -0.5035 -0.2971  0.0848
22636W        W37767   8.338  15.324  14.715 -0.0474  0.3344 -0.0470
22637W        W37768  17.467   0.496   4.342  0.0874 -0.0840  0.3663
22638W        W37769   8.657  13.232  13.117  0.0254 -0.4250  0.1864
22639W        W37770  12.720   8.044  15.774 -0.3571  0.2816  0.1286
22640W        W37771   5.108   9.006   0.592  0.0156 -0.0054 -0.1871
22641W        W37772  13.868   9.048  15.619  0.0540 -0.1927  0.0984
22642W        W37773   1.813   7.427   1.771  0.0951  0.3688 -0.2513
22643W        W37774  16.368  13.420   4.634  0.3574 -0.0557  0.1775
22644W        W37775   5.332  11.016   5.197 -0.4775  0.0547  0.1093
22645W        W37776   0.752   6.755   2.857 -0.2311 -0.1329 -0.1233
22646W        W37777   5.568   3.927   1.210 -0.0584  0.0708 -0.0418
22647W        W37778  13.939   9.036  12.216 -0.2601  0.1501  0.0901
22648W        W37779   1.107   1.969  12.892  0.3802 -0.0974  0.0695
22649W        W37780   4.204   9.940   4.405  0.4378 -0.2673  0.2117
22650W        W37781  14.930   3.827  13.261  0.2427 -0.0523 -0.2958
22651W        W37782  10.665   2.464   1.580  0.3019  0.1175 -0.4505
22652W        W37783   6.093   2.235   2.214  0.0261 -0.2647 -0.0586
22653W        W37784   1.289   2.269   2.808 -0.1424 -0.1804  0.2984
22654W        W37785   4.633  17.581  14.061  0.2158 -0.0491  0.1101
22655W        W37786  18.084  17.611  15.152  0.0625  0.3732 -0.0323
22656W        W37787  12.250   4.343   5.477  0.1047 -0.4965 -0.2590
22657W        W37788   5.709  14.041   1.443  0.1991 -0.1145 -0.1314
22658W        W37789  16.379   4.169   2.873 -0.4415 -0.1381 -0.3819
22659W        W37790   7.831   5.210  10.702 -0.1739 -0.0003  0.0214
22660W        W37791  13.744   1.205   2.544 -0.0642  0.1333  0.0791
22661W        W37792   9.039   1.450  15.803  0.0495 -0.0978  0.2162
22662W        W37793   9.429  17.567   2.041 -0.2773  0.1451  0.1031
22663W        W37794   2.906   9.110  13.632 -0.3368  0.1970  0.0235
22664W        W37795  12.475   0.437  15.392  0.0087  0.0937 -0.0331
22665W        W37796   8.416   9.561  13.800 -0.0010  0.0243 -0.0132
22666W        W37797   0.664   6.245   0.283 -0.2694 -0.0974 -0.4070
22667W        W37798   1.494   2.456  14.629 -0.2237 -0.1790  0.4343
22668W        W37799   0.343  15.056   2.885 -0.0795 -0.0561 -0.0776
22669W        W37800   5.508  13.070   3.652  0.1375  0.0657  0.2534
22670W        W37801   6.195   3.284   4.945  0.1829  0.3853  0.0283
22671W        W37802   3.439  11.594  10.752  0.2574  0.1918  0.1768
22672W        W37803   6.719   7.361   3.007  0.0887  0.0239 -0.0128
22673W        W37804   8.148   9.230  13.430 -0.0603  0.0841 -0.0440
22674W        W37805   2.690   0.724   3.806 -0.2171  0.2597  0.1507
22675W        W37806   7.996  14.714   1.073 -0.1337 -0.1497  0.0957
22676W        W37807   6.134  18.506  15.737 -0.0242 -0.1414  0.1714
22677W        W37808   0.263  18.700   0.807  0.1044  0.0767 -0.2279
22678W        W37809  12.476  14.502   2.733 -0.2788 -0.1037 -0.3240
22679W        W37810   6.827  11.987   2.216  0.2664  0.0275  0.1509
22680W        W37811   1.011  16.169  14.930 -0.0595 -0.0735  0.0568
22681W        W37812  10.412   5.069   4.422  0.2007 -0.3155 -0.2004
22682W        W37813   6.256  14.644   2.929 -0.1113  0.0590 -0.0705
22683W        W37814   0.166  12.250   0.648 -0.0874 -0.0932  0.1389
22684W        W37815   2.058  16.410  13.183  0.1753  0.2457 -0.1711
22685W        W37816  11.683   7.033  14.815 -0.0733  0.1861 -0.0496
22686W        W37817   0.939  10.344  13.818 -0.0502  0.0870 -0.1313
22687W        W37818   8.683   8.684   0.890  0.2482 -0.3472 -0.0882
22688W        W37819  14.879   2.798   3.016 -0.1141 -0.2604 -0.1591
22689W        W37820  16.575  11.815   5.327 -0.0872  0.0397 -0.0290
22690W        W37821   0.047   6.463  14.441  0.0910  0.1989 -0.2234
22691W        W37822  13.721   3.198   3.578 -0.2427  0.0854 -0.1735
22692W        W37823  10.605  18.012  12.874 -0.1508 -0.2719 -0.1129
22693W        W37824   7.425  17.095   5.834  0.0346 -0.2038 -0.0682
22694W        W37825   3.479   3.690   5.707 -0.1245  0.0450  0.1307
22695W        W37826  13.063  12.583   3.702  0.0088 -0.3881 -0.0319
22696W        W37827   4.719   9.649  11.799 -0.2507 -0.0440 -0.1187
22697W        W37828  12.795   3.127  10.842  0.1879  0.0600 -0.1257
22698W        W37829   5.889  11.068   2.237 -0.1405 -0.0129  0.0331
22699W        W37830  10.793  12.341  12.593 -0.4788  0.1731  0.1562
22700W        W37831  11.468  13.816  11.500 -0.5261 -0.1319  0.2343
22701W        W37832   0.454  14.316  10.717 -0.1828  0.2557 -0.2308
22702W        W37833   4.806   2.396   2.904 -0.4024  0.3109 -0.0974
22703W        W37834  13.734  10.831   3.243 -0.4157 -0.2175 -0.2250
22704W        W37835  16.501  13.331   2.433 -0.1904 -0.3665  0.0411
22705W        W37836   0.562   9.484  12.208 -0.1208  0.3157 -0.2797
22706W        W37837   9.241   8.058   1.611  0.0890  0.0297 -0.2972
22707W        W37838  12.440  13.587   3.899  0.1203  0.0290 -0.1281
22708W        W37839   6.801  16.276  14.441 -0.0627 -0.4736  0.2825
22709W        W37840   0.942  10.668   2.129  0.2669 -0.3507 -0.0539
22710W        W37841  10.486   6.625   0.223  0.0894 -0.1228 -0.1462
22711W        W37842   4.166  14.811   5.672 -0.0361 -0.1474 -0.1636
22712W        W37843   2.545   3.939  15.109 -0.0460 -0.0488 -0.0930
22713W        W37844  10.044   4.558  14.182 -0.2904  0.0692  0.0524
22714W        W37845   1.052  11.703   2.750 -0.2424  0.0472 -0.3009
22715W        W37846   1.216  15.334   4.901 -0.1545  0.0587 -0.0771
22716W        W37847   2.918  12.161  12.170 -0.3327 -0.1815  0.3795
22717W        W37848  18.461   2.618   2.052  0.4162  0.3755 -0.0198
22718W        W37849   9.383  11.751   1.622  0.0669  0.2434 -0.3966
22719W        W37850   1.155   7.599   0.676 -0.0548 -0.1848  0.1262
22720W        W37851   7.215  18.388   4.207 -0.3148 -0.0421  0.2837
22721W        W37852   8.641  11.812  13.141 -0.1304 -0.3868  0.2019
22722W        W37853   2.422   8.393   1.783  0.2593 -0.1868  0.2345
22723W        W37854   4.719   7.531  11.673  0.0057 -0.0512 -0.0054
22724W        W37855   6.771   8.573   5.755 -0.3692 -0.0017 -0.2152
22725W        W37856  16.392  18.622  13.084 -0.2326 -0.4685  0.0304
22726W        W37857   5.244   5.153   2.675 -0.3295 -0.6076  0.1028
22727W        W37858  12.224   1.991  14.213 -0.0454  0.2455 -0.1081
22728W        W37859  12.059  15.462   1.228 -0.2445 -0.2418 -0.1375
22729W        W37860   9.181   0.859  11.642  0.1267  0.0150  0.0707
22730W        W37861  15.482   1.646   2.022 -0.2969 -0.1316 -0.0988
22731W        W37862   5.885   2.020   5.357  0.0018 -0.2230 -0.4777
22732W        W37863   8.831  10.362  14.989 -0.2687 -0.1191  0.0179
22733W        W37864   2.729   1.161   3.459  0.2200  0.0513  0.1421
22734W        W37865   7.543  15.578   2.744 -0.1544  0.0366 -0.0350
22735W        W37866   6.461   7.142  13.367  0.1469  0.0391  0.1905
22736W        W37867   8.385   6.310  12.279 -0.0472  0.0238  0.2378
22737W        W37868   7.169  15.148  13.813 -0.0178 -0.1518 -0.0686
22738W        W37869  14.216   5.983  10.948  0.1641 -0.0507  0.1373
22739W        W37870  17.702   5.741   4.576  0.1317  0.3133  0.0657
22740W        W37871  15.707  16.041   0.192  0.0798 -0.3485  0.0138
22741W        W37872   7.213   6.021  13.974  0.0732  0.0291  0.0569
22742W        W37873  12.489  11.446   0.431 -0.1670 -0.3780  0.1045
22743W        W37874   8.403  17.308  10.495  0.0190  0.3235 -0.0416
22744W        W37875  12.529   4.410   1.162 -0.1790 -0.1707  0.1967
22745W        W37876   0.451  11.012   4.824 -0.0514  0.2383  0.3614
22746W        W37877   2.591  10.724   1.406  0.0299 -0.2237  0.0815
22747W        W37878   0.109   7.932  13.120  0.1519  0.0861  0.1815
22748W        W37879   6.664   4.264   0.972  0.3076 -0.2211  0.1795
22749W        W37880  13.231   0.560  10.287 -0.1923  0.2611  0.3431
22750W        W37881   0.898  14.374   3.143  0.3413  0.4497  0.2160
22751W        W37882   1.015   9.732  13.265  0.1853  0.1351  0.0034
22752W        W37883  10.084   4.374  13.147 -0.1075  0.0474 -0.1689
22753W        W37884   4.628  16.440   1.740  0.0693 -0.0489 -0.0472
22754W        W37885   5.144  14.481   2.921 -0.4235 -0.3712 -0.1028
22755W        W37886   4.071  16.158  14.406 -0.0927  0.0819 -0.0570
22756W        W37887   4.672  10.869  13.035 -0.3092 -0.2056 -0.2022
22757W        W37888  13.189  10.185   1.632  0.0097 -0.0931  0.2437
22758W        W37889  11.361   3.421  12.634 -0.2059 -0.2761 -0.1283
22759W        W37890   1.419  11.504   3.566  0.1351  0.0543  0.1071
22760W        W37891   6.338   6.763  11.198 -0.1848  0.0286  0.2093
22761W        W37892  11.339  18.496   2.407 -0.2215  0.1628  0.1476
22762W        W37893  18.511   8.635  12.100 -0.5050 -0.3927  0.1291
22763W        W37894  14.855   0.124   0.197  0.0579 -0.0151  0.2921
22764W        W37895  10.278  14.523  11.262 -0.2547  0.0232  0.0997
22765W        W37896   2.824   2.380  10.192  0.0181 -0.1662  0.0184
22766W        W37897   3.468   7.580  15.013  0.0031  0.2621  0.2111
22767W        W37898   5.369  17.521  11.418  0.1818 -0.2370 -0.1389
22768W        W37899   2.918  15.309  13.171 -0.2261  0.0892 -0.3623
22769W        W37900  10.031   0.656   5.196 -0.2991  0.0009 -0.1953
22770W        W37901   6.378  14.696  12.098 -0.0162  0.2949  0.1978
22771W        W37902  13.116   2.301  10.649  0.1270  0.0785 -0.0594
22772W        W37903  18.255  17.855   4.165 -0.1808 -0.0089  0.0984
22773W        W37904   3.005   6.773  12.434  0.0680  0.3294  0.0773
22774W        W37905  18.187  13.803   4.440 -0.0087  0.3603 -0.0924
22775W        W37906  18.499   9.146   0.335  0.1689  0.0770 -0.2398
22776W        W37907  15.403  11.314  10.889 -0.2602 -0.1515 -0.3096
22777W        W37908   1.564   5.263  11.596  0.0165 -0.2021 -0.0292
22778W        W37909   5.859   1.545   0.597 -0.0923  0.1417 -0.1136
22779W        W37910   4.097   8.434  15.217 -0.1010 -0.1597 -0.2829
22780W        W37911  11.795   7.743  12.592 -0.0416 -0.1909  0.0453
22781W        W37912  11.247  14.620  11.582  0.1593 -0.1287  0.1293
22782W        W37913   2.356  17.657  11.498 -0.3953  0.3360  0.0199
22783W        W37914   7.097   0.487   5.016 -0.2740  0.2473  0.0036
22784W        W37915   7.166  13.090  14.334 -0.2224  0.1295 -0.0477
22785W        W37916   8.883  17.463  10.902 -0.2005 -0.3040  0.0766
22786W        W37917   3.643  12.043  15.058  0.0922 -0.1076  0.0238
22787W        W37918  14.780   0.240   0.856 -0.0580 -0.1082  0.0848
22788W        W37919  18.131  10.887   5.434 -0.0660 -0.0796  0.1603
22789W        W37920   2.578  12.819   3.535 -0.1078 -0.1567 -0.2263
22790W        W37921   6.406   5.093  11.352  0.3502  0.2409  0.0868
22791W        W37922   8.117   0.719   1.814 -0.0367  0.2466 -0.2701
22792W        W37923   0.344  11.772   0.097  0.2253  0.1572  0.0182
22793W        W37924  12.816   3.165  13.337  0.0470 -0.2664  0.2619
22794W        W37925   5.320   4.162  13.578 -0.1538 -0.0019  0.1481
22795W        W37926   5.975  11.564   4.019 -0.1526 -0.1919 -0.1749
22796W        W37927  16.804   6.224  13.956 -0.0311 -0.2010  0.2645
22797W        W37928  13.834   8.738  12.950 -0.1635  0.0049 -0.0411
22798W        W37929  17.242  16.874   3.036  0.1112 -0.1585  0.1256
22799W        W37930  11.346   6.028   3.726 -0.3634 -0.1721  0.0929
22800W        W37931  12.637   3.919   1.678  0.4123  0.1246  0.0324
22801W        W37932   0.568   7.675  13.139 -0.4647 -0.0774 -0.0897
22802W        W37933   4.243   8.994  10.671 -0.1341  0.3608 -0.1402
22803W        W37934  18.647  14.231   5.947  0.1353 -0.1177  0.1279
22804W        W37935  17.967  13.978   2.993  0.3719 -0.1393  0.0866
22805W        W37936  14.604   5.925   2.472  0.0057  0.2106  0.1117
22806W        W37937  17.702  10.947   5.039 -0.1068  0.0253 -0.0179
22807W        W37938   6.151   1.140   0.659 -0.3129  0.1085  0.2604
22808W        W37939  10.230  12.325  13.394  0.4993 -0.2184 -0.0109
22809W        W37940  10.526  17.694   0.615  0.0365 -0.1850 -0.0231
22810W        W37941   8.466   7.413  14.259  0.3030 -0.2559  0.1665
22811W        W37942   1.854   3.913  13.501 -0.1271  0.1501 -0.0076
22812W        W37943  16.648   2.588   5.117 -0.0025  0.2439  0.0800
22813W        W37944  13.496   7.877   2.293  0.3024  0.1464  0.0096
22814W        W37945   9.939  15.770   0.737  0.2474  0.1022 -0.0816
22815W        W37946   5.603   3.502   4.134 -0.1681  0.1554 -0.1327
22816W        W37947  11.691  15.721   3.387  0.2306 -0.3799  0.0855
22817W        W37948   3.642  12.981   3.761 -0.3429  0.2061 -0.2625
22818W        W37949   8.937   9.887  14.197  0.2246  0.2262 -0.0287
22819W        W37950   2.553   2.231  13.207  0.0944  0.0552  0.0729
22820W        W37951  16.920  15.318  11.217  0.0461  0.1129 -0.2535
22821W        W37952   8.918   0.802  14.425  0.0710 -0.2305 -0.1849
22822W        W37953  16.511   5.863   2.697  0.0410 -0.2707 -0.0637
22823W        W37954  18.394   1.752  15.192 -0.1832  0.1024  0.1537
22824W        W37955  11.757  11.013  10.802  0.0443 -0.0493 -0.0118
22825W        W37956   6.455   1.599   3.611  0.0498  0.3041 -0.2567
22826W        W37957   8.327   2.228   2.712 -0.1142 -0.2127  0.0650
22827W        W37958   8.208   1.005   5.441 -0.0870 -0.2092 -0.3460
22828W        W37959  16.322   0.325   4.465  0.1282  0.1153  0.0513
22829W        W37960   3.209  13.785   2.033 -0.3977 -0.0910 -0.0217
22830W        W37961   8.755  17.381  14.160  0.1987 -0.0961 -0.1393
22831W        W37962  16.668   1.552  15.593 -0.1568 -0.1738 -0.3435
22832W        W37963  13.582  15.412   1.714 -0.1124  0.2553 -0.3078
22833W        W37964   0.490   6.629  14.394 -0.1901 -0.0029 -0.1798
22834W        W37965   6.076  16.910   0.800  0.3596  0.0804  0.1507
22835W        W37966  13.903   2.236   3.675  0.1219  0.2728 -0.3405
22836W        W37967   3.906   2.019  14.848 -0.2605 -0.0355 -0.1407
22837W        W37968  15.037   5.479  12.541  0.0011 -0.1816  0.0301
22838W        W37969  13.440   5.157  11.901 -0.0981 -0.2245 -0.0157
22839W        W37970   8.342   0.531   3.477 -0.0024 -0.0581  0.1427
22840W        W37971  11.120   5.032   1.697  0.0588  0.3449 -0.3440
22841W        W37972   4.727   5.852  13.182  0.0326 -0.2402 -0.2800
22842W        W37973   1.707   9.139  13.540 -0.2486 -0.0144  0.0802
22843W        W37974  17.923   7.151  10.080 -0.0046 -0.0616 -0.2317
22844W        W37975   3.065   7.170   1.522 -0.0182  0.0273 -0.0190
22845W        W37976  13.237  12.737   4.511 -0.1942 -0.2797  0.2974
22846W        W37977   4.473   2.302   1.311 -0.2731  0.1454  0.0464
22847W        W37978  15.677   3.557   3.916 -0.0002  0.3418  0.0908
22848W        W37979  11.458  10.253  13.606  0.2769  0.0424 -0.0865
22849W        W37980   5.406  17.221   1.385 -0.1419 -0.2333 -0.0696
22850W        W37981  13.641   5.227  15.302 -0.0748 -0.0506 -0.1990
22851W        W37982   9.067   3.226   5.902  0.0559 -0.0263  0.0715
22852W        W37983  10.836   3.180   0.382  0.0966 -0.5081 -0.1514
22853W        W37984  12.955  12.968   0.170  0.2144 -0.1607  0.3187
22854W        W37985   6.058   8.128  15.100  0.0086 -0.1502 -0.0631
22855W        W37986  14.689  14.908  14.812  0.1528 -0.4133 -0.1307
22856W        W37987   4.719  16.583   0.105  0.3458 -0.0169 -0.1109
22857W        W37988   6.647   1.666  12.359 -0.0717  0.0302  0.0080
22858W        W37989   8.600   9.457   9.842 -0.0983  0.1408  0.0137
22859W        W37990  17.929  14.402  12.955  0.2168  0.0994 -0.4121
22860W        W37991  14.511  12.371   2.439  0.1406 -0.0311  0.0656
22861W        W37992   6.045   2.031  14.842 -0.1614  0.0025  0.2161
22862W        W37993  14.539  16.575   3.518 -0.1454 -0.0815 -0.1082
22863W        W37994  13.080   5.608   1.722 -0.0186 -0.1627  0.1876
22864W        W37995   5.544   4.048   5.383  0.1808 -0.1259 -0.0233
22865W        W37996  11.032   6.675  14.096  0.1604  0.0124 -0.4568
22866W        W37997  12.583   1.937  12.553 -0.3656 -0.0554  0.4175
22867W        W37998   6.558  15.506  12.639  0.0411  0.2208  0.2548
22868W        W37999   1.277  10.099   3.752  0.0718 -0.1927  0.2018
22869W        W38000   5.370   8.514   5.276 -0.1722 -0.2178  0.3722
22870W        W38001   2.371   4.827  14.744  0.0020 -0.1055  0.1891
22871W        W38002   9.568  15.334   2.666 -0.1011  0.1581 -0.2182
22872W        W38003  12.424  10.573  13.821  0.2540  0.0662  0.0600
22873W        W38004  18.107  13.240   1.280  0.0419 -0.2219 -0.0252
22874W        W38005   6.373  16.083   1.792  0.0719 -0.3992  0.0848
22875W        W38006  13.919  12.650   2.813  0.1346  0.1612 -0.2289
22876W        W38007  17.380  16.162  14.429 -0.0506 -0.2243 -0.0512
22877W        W38008   6.670  12.147   1.136 -0.3748  0.2595 -0.1225
22878W        W38009  10.204  16.348   3.021 -0.1564  0.4495 -0.0185
22879W        W38010   8.563  12.156  13.755  0.2201  0.3096  0.4468
22880W        W38011  15.669   8.019   1.394  0.1789 -0.5065 -0.2568
22881W        W38012  14.015  16.431  14.170 -0.0089  0.0485 -0.1409
22882W        W38013   7.613  11.358   1.961 -0.1041 -0.0387  0.2529
22883W        W38014   9.354   7.577   0.164 -0.3222  0.0178 -0.0901
22884W        W38015   8.729   8.678   0.362  0.1280 -0.1896  0.1160
22885W        W38016  11.198   4.779  12.890 -0.0973 -0.1976  0.0309
22886W        W38017  16.054   0.632   4.792  0.1829  0.0532 -0.2741
22887W        W38018  18.025   8.165  12.672 -0.1963  0.0313 -0.1731
22888W        W38019  10.890   2.358  13.038 -0.1718  0.0015  0.2151
22889W        W38020  16.461   5.559  10.687 -0.1090 -0.1608 -0.2539
22890W        W38021   5.560  14.911   1.762  0.0557 -0.0915 -0.1820
22891W        W38022  17.171   8.590  15.177 -0.1518  0.0507 -0.1617
22892W        W38023   8.186   4.063   5.574  0.0633 -0.3515  0.0666
22893W        W38024  13.227  17.881   2.437  0.1828  0.3313 -0.0457
22894W        W38025  13.033  15.786  13.128  0.0518 -0.2834  0.3494
22895W        W38026  15.476  12.542   3.896  0.0948 -0.2007  0.1839
22896W        W38027  14.861   3.002   0.099  0.1304 -0.2802 -0.2549
22897W        W38028   5.650   5.509  13.351 -0.0692 -0.3670 -0.0843
22898W        W38029   1.208  13.326  10.505  0.2942  0.1906  0.0632
22899W        W38030  15.662   2.603   4.688  0.1179 -0.2444 -0.0884
22900W        W38031   6.470   3.793   0.911  0.0557 -0.2207  0.3099
22901W        W38032   1.238   8.948  11.549 -0.2966  0.0075 -0.0890
22902W        W38033  10.996   8.683   2.758  0.0035  0.0607  0.2851
22903W        W38034   8.148  10.940   2.372  0.1886  0.2589 -0.1432
22904W        W38035   5.167   8.947  14.786 -0.0810 -0.2200  0.1898
22905W        W38036  14.303   1.404   1.924 -0.1172  0.1429  0.3116
22906W        W38037  10.682   8.844  13.874 -0.2093  0.2347  0.0412
22907W        W38038   6.735  14.793  11.556 -0.3340 -0.1978 -0.2964
22908W        W38039  10.506   5.516   3.865  0.0769  0.6207  0.1052
22909W        W38040  18.316  16.586  15.209  0.3111  0.1053 -0.0495
22910W        W38041  12.790   2.734   5.691  0.1142 -0.0442  0.2623
22911W        W38042   3.962  12.141   6.242 -0.2354 -0.1054 -0.3337
22912W        W38043   8.253   0.544   5.709 -0.3000  0.1511 -0.0029
22913W        W38044   0.228  10.019   2.484 -0.1449  0.0020 -0.1500
22914W        W38045  11.804   7.610  11.703  0.1113 -0.0078 -0.0014
22915W        W38046   4.945   4.912   0.795 -0.1870 -0.0857  0.0027
22916W        W38047   8.937  16.309  11.708  0.0736 -0.0275 -0.1056
22917W        W38048  13.512   2.761  11.917  0.0638  0.2291  0.2103
22918W        W38049   4.843  11.007   3.633  0.0186 -0.0855  0.2460
22919W        W38050  10.907  12.480  11.725  0.1005  0.0197 -0.0224
22920W        W38051  18.435  10.972  12.513 -0.2227  0.2009  0.3320
22921W        W38052   9.681   4.037  15.658  0.0386 -0.2697  0.2823
22922W        W38053  10.442   3.219   4.826  0.1777  0.0737  0.3957
22923W        W38054  12.543   5.179  13.894  0.1363 -0.0840 -0.2820
22924W        W38055   6.099   7.221   4.031 -0.0898 -0.0545 -0.0558
22925W        W38056   4.794   8.588  14.665  0.0437  0.0647  0.1310
22926W        W38057   2.511   6.869  15.086  0.2069 -0.0582  0.0345
22927W        W38058   2.107  16.523  12.627 -0.0893 -0.1194  0.1592
22928W        W38059   3.135  10.728   1.416 -0.1453 -0.1389  0.0126
22929W        W38060   1.584   9.916   5.915 -0.3335  0.0778  0.1097
22930W        W38061  17.182  14.576   3.983 -0.0066  0.0740  0.0895
22931W        W38062  11.559  16.722  10.800  0.0726 -0.1581 -0.4961
22932W        W38063   0.295   3.038   1.030  0.1759  0.1345 -0.0490
22933W        W38064  15.584  17.280   4.916 -0.1953 -0.0446 -0.0774
22934W        W38065  14.253  16.015  12.579 -0.1678 -0.0148 -0.1905
22935W        W38066   8.830   7.182   5.515  0.3513  0.1679  0.1648
22936W        W38067  14.026   0.201  12.596 -0.1466 -0.4562  0.0108
22937W        W38068  14.859  14.555  12.104  0.1807  0.0211  0.0685
22938W        W38069   8.376  15.530   4.060  0.1795  0.0284 -0.4629
22939W        W38070  17.996   5.006  15.497 -0.0367  0.0102 -0.2125
22940W        W38071   0.551   7.225  10.522 -0.2612 -0.1498 -0.1173
22941W        W38072   0.089   3.947   0.355  0.0735  0.0723  0.0228
22942W        W38073   6.275  10.388   0.673 -0.0689 -0.1122  0.0705
22943W        W38074  15.460   7.830  14.614 -0.0200 -0.0828 -0.0618
22944W        W38075   3.065   3.119  12.952  0.0193  0.0603 -0.0647
22945W        W38076   5.926   8.085   1.305  0.0149  0.0989 -0.0296
22946W        W38077  12.130   6.363  13.186 -0.3286 -0.1290  0.1292
22947W        W38078  16.323   7.941   1.446 -0.1758 -0.1498 -0.1016
22948W        W38079   6.625  10.160   3.249  0.0815 -0.1668 -0.0205
22949W        W38080  12.681  14.514   3.516  0.1348 -0.1404 -0.0359
22950W        W38081  14.758   1.330   4.704 -0.0232 -0.2470  0.1436
22951W        W38082   1.379  15.031   1.508 -0.1400  0.0830  0.1985
22952W        W38083   2.778   8.739   3.413  0.3392 -0.0730  0.1799
22953W        W38084  10.966  10.758  13.571 -0.1458  0.0669 -0.2251
22954W        W38085  17.972  17.983   3.262  0.3138  0.0212  0.2498
22955W        W38086   2.621   9.992   5.575 -0.2895 -0.1822  0.1883
22956W        W38087   7.403   9.464  14.697 -0.0605 -0.2143  0.0346
22957W        W38088  16.665  12.504   1.705 -0.2373 -0.1442 -0.1154
22958W        W38089   7.012   9.744  14.896 -0.1643 -0.3771 -0.2553
22959W        W38090  12.890  10.585  11.206  0.0233  0.1276 -0.0410
22960W        W38091  17.177  17.463  10.103 -0.1163 -0.0211  0.1517
22961W        W38092  11.885  15.468  12.418  0.2823 -0.0891 -0.1410
22962W        W38093  13.094  10.902  13.972 -0.2460  0.1290 -0.4137
22963W        W38094  13.620  14.581   0.173 -0.0652 -0.2419 -0.1825
22964W        W38095  17.225   7.157   4.087 -0.0465  0.2173  0.0505
22965W        W38096  17.673  15.637   2.958 -0.0085 -0.3950  0.0216
22966W        W38097  16.780  14.267  10.907 -0.2031  0.0197  0.1255
22967W        W38098   5.499   3.535   0.849 -0.1867 -0.0889  0.3708
22968W        W38099   3.994  14.779  10.920  0.0883  0.0567  0.1702
22969W        W38100   3.231   0.410   3.704  0.4648  0.5732  0.1368
22970W        W38101   8.980   4.901   3.202  0.0139  0.1184  0.2335
22971W        W38102  17.032  12.045  11.093  0.0946  0.0343  0.2724
22972W        W38103  14.842  18.638  11.683 -0.0967  0.4214  0.2871
22973W        W38104  11.656  13.503   4.389  0.0818 -0.1416 -0.0883
22974W        W38105   1.378   4.056  14.859  0.1898 -0.0770 -0.4764
22975W        W38106   3.932  18.198  10.885 -0.1529  0.2422  0.1739
22976W        W38107   1.267   5.815   3.856 -0.0644  0.0100  0.3562
22977W        W38108  13.005   5.959  10.637  0.1560 -0.0565 -0.1299
22978W        W38109  17.491  12.742   2.495 -0.0850 -0.0365  0.1486
22979W        W38110   4.857   2.159  10.373  0.0833 -0.2488 -0.3378
22980W        W38111  11.141  12.661   3.265 -0.0802  0.1290 -0.0510
22981W        W38112   4.612   8.341  15.079 -0.0398  0.2034 -0.0463
22982W        W38113  17.784   1.845  13.155  0.1141  0.0091  0.0600
22983W        W38114  15.694   9.604  14.249  0.1578 -0.3063  0.0259
22984W        W38115  10.870  17.951   3.311  0.1716 -0.1351  0.1967
22985W        W38116   4.583   8.092   5.054 -0.0591 -0.1753 -0.0758
22986W        W38117   0.941   3.264   4.874 -0.2624  0.1327 -0.1439
22987W        W38118   4.660   1.949  14.470 -0.0825 -0.1291 -0.0961
22988W        W38119  13.692  16.696   3.777 -0.0404  0.3082  0.0521
22989W        W38120  15.174   9.749  13.594  0.0485  0.1092  0.0985
22990W        W38121   5.866  15.573   3.595 -0.0567  0.1512 -0.0668
22991W        W38122   6.464   0.337   3.823 -0.2452 -0.2628  0.3677
22992W        W38123   7.330   3.399  15.036  0.0690 -0.2559  0.3082
22993W        W38124  16.935  15.462  15.065  0.0471 -0.2204  0.0778
22994W        W38125   8.758   4.336  12.807  0.1034 -0.3017  0.2588
22995W        W38126  10.673  10.514  15.169  0.2734  0.0438 -0.2017
22996W        W38127  13.433   6.445   4.284 -0.1227 -0.2824 -0.1139
22997W        W38128   9.407  17.347  14.083 -0.1288  0.1688  0.0785
22998W        W38129   9.856   7.792   9.760  0.0566 -0.0738 -0.5000
22999W        W38130  10.802   3.416  14.020 -0.1319 -0.1109  0.0530
23000W        W38131  15.607  15.064  14.869  0.1334 -0.1037 -0.1138
23001W        W38132  16.882  11.474   5.149 -0.1247  0.0217 -0.1643
23002W        W38133   7.725  15.272  10.428  0.1032  0.1611 -0.0042
23003W        W38134  14.073   4.362  14.026  0.0473 -0.0699 -0.0402
23004W        W38135   2.447  15.432   0.458 -0.2886 -0.0040 -0.1978
23005W        W38136   3.965   5.230   5.371  0.1312  0.1534  0.2496
23006W        W38137   2.119   5.953   0.753 -0.1759 -0.2318  0.4025
23007W        W38138   7.440  11.666   5.746 -0.0211 -0.2066  0.0211
23008W        W38139  17.521   3.856   2.354 -0.0195 -0.0577  0.1708
23009W        W38140   3.681  13.335  15.497  0.0810  0.1639 -0.1116
23010W        W38141   5.166  15.725  12.291  0.2905  0.0609  0.0972
23011W        W38142   7.323   6.860   4.600 -0.0093 -0.1615  0.1127
23012W        W38143  10.379  10.680  12.380  0.1846  0.2152  0.0697
23013W        W38144  13.316   6.568   1.323 -0.1308 -0.2197 -0.1969
23014W        W38145   0.562  16.878   1.868 -0.0650  0.1640 -0.1841
23015W        W38146   0.968   2.306   3.496  0.1200 -0.4057 -0.0319
23016W        W38147   6.230  16.295   1.095  0.4275  0.0541  0.0126
23017W        W38148   8.750   7.670  12.866 -0.0355 -0.1755 -0.0253
23018W        W38149   7.966   3.400  11.393 -0.0847 -0.0390 -0.0081
23019W        W38150   3.220   1.973  14.175 -0.1230 -0.2648  0.0375
23020W        W38151  10.735  17.098  15.628 -0.1183  0.4295 -0.2227
23021W        W38152  14.176   7.830  11.938 -0.3085 -0.0755 -0.2755
23022W        W38153   4.957   4.418   2.145 -0.0037  0.0318  0.0084
23023W        W38154   9.168   7.335  10.207 -0.1379 -0.0637  0.2663
23024W        W38155  10.893   3.087  11.831  0.5119 -0.2752  0.1123
23025W        W38156   2.063   8.286  10.959 -0.3291  0.2371 -0.0734
23026W        W38157   4.756   7.033  13.319  0.1968 -0.3051 -0.3395
23027W        W38158   9.132   4.971  12.169 -0.0525 -0.1014  0.4111
23028W        W38159   4.108  15.501  11.620 -0.0645  0.2218  0.1717
23029W        W38160  12.688  12.101  11.197  0.0415 -0.1204 -0.1370
23030W        W38161  11.727  10.643  14.596  0.0825 -0.5311  0.0254
23031W        W38162   2.923  17.896  12.984  0.3024  0.0991  0.3916
23032W        W38163  15.542  12.527  10.695  0.0556  0.1942  0.1848
23033W        W38164  15.504   2.386   3.543  0.1861 -0.2389 -0.2262
23034W        W38165   5.041  16.354  14.538  0.1495 -0.1975 -0.0829
23035W        W38166  14.918   1.072   4.155  0.1529  0.1619 -0.0499
23036W        W38167   9.192  10.710   4.066 -0.5008  0.0589 -0.1246
23037W        W38168   9.548  13.549   1.677  0.2351  0.1030  0.2308
23038W        W38169   0.723  16.315   1.812 -0.0123  0.1440 -0.3608
23039W        W38170  10.553  11.001  14.559 -0.2563  0.1330  0.3047
23040W        W38171   8.261   5.978  12.765  0.2146  0.2161 -0.0276
23041W        W38172  15.178   4.396   2.255 -0.2025 -0.0562  0.5138
23042W        W38173  17.390  10.666  11.565 -0.1189 -0.0049 -0.1260
23043W        W38174  12.267  16.486   0.403 -0.1461  0.3419 -0.2696
23044W        W38175  14.126   6.406  13.690 -0.4153 -0.0843  0.1280
23045W        W38176   6.813  15.475   0.524  0.2184 -0.1795 -0.0076
23046W        W38177   5.983   7.653   3.781  0.1836 -0.3861 -0.3873
23047W        W38178   2.068  15.655  11.596 -0.1529 -0.0339  0.0967
23048W        W38179   7.925  12.769  15.630 -0.2547 -0.1156 -0.1420
23049W        W38180  11.836  12.715  10.433  0.3036 -0.1732 -0.0007
23050W        W38181   2.850   4.476   2.423  0.1138  0.2984 -0.0787
23051W        W38182  12.478   0.385   1.740  0.0339 -0.2936  0.0594
23052W        W38183   1.083   4.829  10.333 -0.2002 -0.1079  0.0925
23053W        W38184  15.457  13.552   4.205  0.2298  0.1792  0.0071
23054W        W38185   2.967  13.572   2.505  0.0091 -0.0668  0.1660
23055W        W38186   9.471   4.987   2.959  0.0239 -0.1857 -0.3058
23056W        W38187  18.111   0.448   0.869 -0.1281 -0.2700  0.1921
23057W        W38188  16.254   9.949  14.292  0.1734 -0.0914  0.2234
23058W        W38189   2.713  11.360  11.435 -0.0437  0.1947 -0.1190
23059W        W38190  16.018   7.789  13.177  0.0946  0.3246 -0.0506
23060W        W38191  12.820   8.050   1.042 -0.0399  0.0498 -0.0938
23061W        W38192  18.325  16.866   3.104  0.3057 -0.0089  0.3176
23062W        W38193   1.947   6.449  13.339 -0.2952 -0.1876  0.0549
23063W        W38194   2.158   7.276  10.742  0.3148 -0.2393  0.0828
23064W        W38195   1.886   9.222   4.697 -0.2879  0.2849 -0.0872
23065W        W38196   1.713   8.180   2.616  0.0423 -0.2450 -0.0340
23066W        W38197  13.941   0.662   9.638 -0.1535  0.0280 -0.4419
23067W        W38198  13.490   2.207   4.888 -0.4835 -0.0749 -0.1958
23068W        W38199  13.465   4.109  14.203  0.1344  0.3429 -0.1737
23069W        W38200  18.050   6.254   2.608  0.0030 -0.1039 -0.1017
23070W        W38201   5.596  15.932  11.545 -0.1855  0.1590  0.0292
23071W        W38202   4.232  15.679   4.626 -0.0647 -0.0022  0.1694
23072W        W38203  17.317   4.512   2.753 -0.2197  0.0952 -0.1485
23073W        W38204  11.047  18.296   2.963  0.1323 -0.0509  0.0746
23074W        W38205  12.416  10.320  11.421  0.0524 -0.2289  0.4553
23075W        W38206  17.983   0.874   3.012  0.0580  0.0557 -0.0036
23076W        W38207   4.564  10.145   3.074  0.0936  0.0167  0.0655
23077W        W38208   8.903  12.487   4.767  0.2061 -0.0084 -0.1557
23078W        W38209   7.338  12.758  13.429  0.0804 -0.2569 -0.0985
23079W        W38210  14.947  15.453  11.750  0.0737 -0.1888  0.2133
23080W        W38211   3.488  13.365  13.807  0.1044  0.0974 -0.0094
23081W        W38212  11.763   8.788  12.561  0.0671 -0.0435 -0.2432
23082W        W38213  18.027  16.221  12.117 -0.1674 -0.0804 -0.2976
23083W        W38214  15.285   8.097  15.305 -0.1573 -0.3217 -0.1320
23084W        W38215   3.664   4.347  10.101  0.1014  0.2362  0.1736
23085W        W38216   9.495  16.632  13.605  0.1332 -0.1549 -0.3550
23086W        W38217   0.582   2.435   1.014  0.0633 -0.0273  0.0978
23087W        W38218  15.476   8.060   3.885  0.2038  0.0029 -0.0173
23088W        W38219  18.011  10.058   4.472 -0.4207 -0.0724 -0.0856
23089W        W38220   0.050  17.005   3.372  0.2102 -0.2744  0.2136
23090W        W38221   0.925  12.141  13.552  0.0418 -0.0798  0.1960
23091W        W38222   7.603  12.780  13.027  0.0417  0.1030  0.3415
23092W        W38223  13.061  15.714  15.530 -0.1429  0.1183 -0.0814
23093W        W38224  12.896  17.142  12.669  0.1420  0.3114  0.0205
23094W        W38225   8.508   9.538  10.430  0.0841  0.3394 -0.1943
23095W        W38226   4.965   4.177  13.966 -0.0547  0.1345 -0.1325
23096W        W38227   9.947  13.085   4.200 -0.0276  0.2498 -0.0369
23097W        W38228   2.649  18.030  15.182  0.1227  0.0244  0.2565
23098W        W38229  10.844   2.860   1.262  0.0143 -0.3131  0.0629
23099W        W38230   4.435  15.064   3.655 -0.3672 -0.0568 -0.0676
23100W        W38231  10.277   2.189  14.129  0.1336  0.2971  0.0120
23101W        W38232  10.014   9.724  14.636  0.2346 -0.2530 -0.1262
23102W        W38233   3.063   3.479  12.605 -0.0282  0.2094 -0.1130
23103W        W38234   5.127   8.298   1.170  0.0347  0.1540  0.2962
23104W        W38235   6.351  16.281  14.228  0.3346 -0.0967  0.2481
23105W        W38236   9.019   2.928   6.358  0.2698  0.0130 -0.0115
23106W        W38237   8.088  13.474  12.656  0.1029  0.2031 -0.0494
23107W        W38238   2.798  12.783   3.992  0.3081 -0.0955 -0.1746
23108W        W38239   8.439   9.967   2.596  0.3057  0.0545  0.1575
23109W        W38240   6.341  13.963  11.246 -0.2223  0.2617 -0.1226
23110W        W38241  15.368   8.369   3.510 -0.4735 -0.0386  0.1100
23111W        W38242   8.298   1.181   4.280 -0.4223  0.0288 -0.1368
23112W        W38243  10.436   6.749   0.741  0.2907  0.1154  0.2037
23113W        W38244   1.723   9.165   2.579  0.0731 -0.2171  0.0567
23114W        W38245   7.362  10.030   0.122 -0.2942 -0.0685 -0.1969
23115W        W38246   7.293  18.579  11.881  0.0046 -0.0300 -0.0773
23116W        W38247  13.060  12.354   5.417  0.0921 -0.0390  0.1958
23117W        W38248  16.971   5.295  10.504 -0.2284  0.3396  0.1757
23118W        W38249  13.738   8.903   5.214 -0.1218  0.2475 -0.1283
23119W        W38250   1.020   7.361   4.975 -0.1109 -0.3958  0.0709
23120W        W38251   3.178   4.652  10.810 -0.0310 -0.2115  0.2017
23121W        W38252   9.225   6.046   3.101 -0.1672  0.0513 -0.2998
23122W        W38253  18.078   8.085  11.249  0.1216  0.1838 -0.1093
23123W        W38254  18.404  10.244   3.472  0.2316  0.0152 -0.2005
23124W        W38255  16.300   9.736   5.955 -0.0060 -0.0269  0.3135
23125W        W38256  18.694   3.509   1.226 -0.0992  0.3566 -0.2720
23126W        W38257  17.320  17.917  10.892  0.0632 -0.0619 -0.1346
23127W        W38258   4.056  18.117  12.369 -0.2182 -0.0319 -0.2650
23128W        W38259   7.943  13.490   2.792 -0.0501 -0.0600 -0.2077
23129W        W38260   3.661   6.172  14.815 -0.0593 -0.1446 -0.0173
23130W        W38261   8.706   6.078  12.994 -0.0658  0.1175  0.0495
23131W        W38262   8.774   3.039   1.146 -0.1403  0.1678 -0.2236
23132W        W38263   7.501   1.379   1.346 -0.0650  0.1114  0.0405
23133W        W38264   1.560   7.333   2.227  0.1538  0.0328 -0.1089
23134W        W38265  15.602  18.101  14.930  0.0572  0.3952 -0.0628
23135W        W38266   9.150   4.983   1.100 -0.0556 -0.0447 -0.0457
23136W        W38267   6.451   9.705   3.027 -0.0138 -0.2001 -0.0868
23137W        W38268   1.527   4.375   0.849 -0.4285  0.2129  0.0047
23138W        W38269  13.141  14.714   0.021 -0.3078  0.1376 -0.0372
23139W        W38270  10.351  15.513   2.604  0.1268 -0.0455  0.0404
23140W        W38271   6.591   1.570   5.797  0.0595 -0.2113  0.2076
23141W        W38272  16.876   4.370  14.544 -0.1488  0.3757  0.0583
23142W        W38273  10.186   4.064  15.784  0.0211  0.0110  0.0143
23143W        W38274   3.310  17.291  15.618  0.2921 -0.0359 -0.0659
23144W        W38275   7.225  12.178   0.106  0.1352 -0.2323  0.0325
23145W        W38276  15.972  15.267  11.370 -0.3492  0.1485 -0.0717
23146W        W38277   6.898   3.544   2.206 -0.0398  0.3599  0.1152
23147W        W38278   6.076   4.325   2.957  0.2677 -0.1669 -0.1608
23148W        W38279  12.870   1.666   4.940  0.2459  0.0635  0.1857
23149W        W38280   8.842  18.062   4.818 -0.1171 -0.1377 -0.0281
23150W        W38281   6.536   4.310   3.201  0.4602  0.1252  0.1703
23151W        W38282   1.881   5.212   0.644  0.1238  0.1218 -0.2039
23152W        W38283  16.427   2.078   2.626 -0.1198  0.2651 -0.5566
23153W        W38284  10.580  14.934  12.499  0.2573 -0.2446  0.0541
23154W        W38285   4.688   0.451   3.431  0.2618  0.2629 -0.0573
23155W        W38286   0.689   1.985  15.364  0.1592 -0.2459  0.1817
23156W        W38287   7.992  12.243   2.613 -0.0845  0.3199 -0.2762
23157W        W38288   6.550   5.302   2.974 -0.0904 -0.2061  0.0156
23158W        W38289   0.300  12.480   5.351 -0.3803 -0.2287 -0.1903
23159W        W38290  12.292  14.436  10.486  0.2099 -0.0760 -0.0032
23160W        W38291   4.639   8.997  13.893 -0.0772 -0.0150  0.0511
23161W        W38292  16.011   8.570  15.519  0.0487 -0.3392 -0.1788
23162W        W38293   5.070   8.308   3.860  0.1794 -0.0841  0.3670
23163W        W38294  17.668  17.660  13.355 -0.3292  0.0866 -0.2174
23164W        W38295  10.433   3.699  15.538  0.2060 -0.1214 -0.1078
23165W        W38296  17.197  12.330   1.787 -0.0619 -0.0232  0.0008
23166W        W38297   4.384  10.879   2.313  0.1299  0.0806  0.0601
23167W        W38298   8.821   9.916   4.446  0.2409  0.2513  0.2162
23168W        W38299  16.015   7.783  14.038 -0.2254  0.0977 -0.1575
23169W        W38300   6.867   8.311  11.668 -0.0692  0.0412 -0.0332
23170W        W38301   7.295   6.845  15.118 -0.0706 -0.0998  0.0574
23171W        W38302  16.810  14.275   1.214 -0.2315  0.2381 -0.1558
23172W        W38303   7.672  14.842   0.529 -0.3126  0.2837  0.1463
23173W        W38304  12.158  12.403  12.575 -0.3036 -0.1373 -0.2411
23174W        W38305   2.409   1.860  11.437 -0.1317  0.0277  0.1366
23175W        W38306  17.076   5.545   0.812 -0.0933 -0.0736  0.0245
23176W        W38307  16.051  13.190  12.684  0.1572  0.0324 -0.0044
23177W        W38308  16.648   1.016   2.347  0.0219  0.0029  0.1000
23178W        W38309  16.913   1.815  12.467  0.0296  0.1723  0.2140
23179W        W38310  16.976   8.271   1.610  0.2685 -0.2680 -0.2362
23180W        W38311  15.457  15.608  15.734  0.0637 -0.3339 -0.0206
23181W        W38312   8.666  12.858  15.009  0.0981 -0.3024  0.1934
23182W        W38313  16.083  11.826  11.187 -0.0470  0.0211  0.0698
23183W        W38314  17.560   9.371   0.280  0.1479  0.1338 -0.3398
23184W        W38315   7.415  15.881  10.834  0.0186 -0.0844 -0.0032
23185W        W38316   7.529  15.263  15.781 -0.2673  0.2093 -0.3294
23186W        W38317  10.804  18.198   1.509  0.1262 -0.0370  0.0462
23187W        W38318  17.648   4.637  13.693  0.3414 -0.0874 -0.2353
23188W        W38319   0.901  15.450  12.106 -0.0823  0.3348 -0.2907
23189W        W38320  12.746  12.252   2.229  0.0866 -0.1522 -0.0941
23190W        W38321   7.730  13.214  11.349  0.0805 -0.0415  0.1110
23191W        W38322  16.629  16.264  15.592 -0.2651 -0.1360  0.3306
23192W        W38323  13.820   5.618   3.982  0.2022  0.0148  0.1136
23193W        W38324   2.103   0.275  14.279 -0.0865 -0.1156  0.4038
23194W        W38325   5.384   9.531   3.306 -0.3981 -0.1041 -0.0019
23195W        W38326   9.599  10.205   0.389  0.0854 -0.0551  0.2581
23196W        W38327   7.533  11.439  15.434 -0.3221 -0.0846 -0.1661
23197W        W38328  11.834  17.815   2.852  0.2923 -0.0774 -0.1501
23198W        W38329  17.754   5.572  13.904  0.0237 -0.0017 -0.2022
23199W        W38330  17.225   7.756   5.875 -0.2063  0.2460  0.0612
23200W        W38331  17.509   8.936  11.072 -0.0385 -0.3214  0.0363
23201W        W38332   4.507   1.664  13.404 -0.2122  0.0520 -0.2688
23202W        W38333  15.480   6.663  12.819 -0.2717 -0.1563 -0.1261
23203W        W38334  17.991  12.502  12.248  0.3984  0.0945 -0.0742
23204W        W38335   7.843   3.463   2.437 -0.4571  0.1827 -0.0072
23205W        W38336   1.789  17.980   3.241 -0.0544 -0.0623 -0.1413
23206W        W38337  12.180  15.851  15.496 -0.0851  0.1539 -0.2578
23207W        W38338  11.692  17.609   3.252  0.1237 -0.1258  0.1574
23208W        W38339  17.876   9.755   0.761 -0.0854  0.0223 -0.5911
23209W        W38340   9.415   9.830  15.644 -0.0233 -0.0793 -0.1301
23210W        W38341   5.946   1.088  15.556  0.1539  0.3191  0.0482
23211W        W38342  16.968  17.055  10.486  0.0442 -0.1950 -0.2471
23212W        W38343   3.844  11.755  15.521  0.2033 -0.1416 -0.0718
23213W        W38344  11.083  16.277  13.346  0.1460  0.1727 -0.1017
23214W        W38345   1.436  15.218  10.925  0.1682 -0.2750  0.1076
23215W        W38346  18.455   1.172  12.839 -0.0373  0.3983 -0.1168
23216W        W38347   1.798  14.137   2.148  0.1750  0.2893  0.1809
23217W        W38348  11.615   5.943  12.653  0.3096  0.0992 -0.2460
23218W        W38349  18.379   1.833  15.686 -0.1258  0.1357 -0.1589
23219W        W38350   1.207  12.795  12.142 -0.1588  0.0224 -0.1679
23220W        W38351  13.864  13.357  11.070 -0.1448 -0.2063  0.3418
23221W        W38352   9.565  15.131   3.577 -0.0492 -0.0143 -0.0575
23222W        W38353  15.603  11.769   3.572 -0.0587 -0.1759 -0.2371
23223W        W38354   1.905  11.679   3.261 -0.0936  0.0333  0.4482
23224W        W38355  10.769   3.431  10.833  0.1542  0.2025  0.0928
23225W        W38356  15.728  11.160   0.332  0.0554 -0.1462  0.2520
23226W        W38357   7.416   3.766   2.817 -0.0090 -0.3318 -0.1913
23227W        W38358  17.834   8.971   1.208  0.0501  0.2470  0.1629
23228W        W38359   8.781   8.664   4.254  0.0496 -0.0957  0.2665
23229W        W38360   0.557   3.714  14.474  0.3405  0.3920  0.3564
23230W        W38361  14.509  17.036  13.504  0.0245  0.1918  0.0091
23231W        W38362   0.917   0.294  13.162 -0.0306  0.0672 -0.2339
23232W        W38363  15.817  14.096  13.283  0.0576 -0.2006  0.4424
23233W        W38364   4.141  11.908   4.324  0.1564 -0.0705  0.0287
23234W        W38365  10.287   8.732  12.922 -0.3522 -0.1508 -0.1432
23235W        W38366   1.619   9.052   3.113  0.1172 -0.1047  0.0976
23236W        W38367  16.431  10.047   4.510 -0.1985  0.0136 -0.1266
23237W        W38368   7.417   2.249   3.917 -0.0976 -0.4210 -0.1374
23238W        W38369   6.992   2.233  10.790  0.0465 -0.2928 -0.2241
23239W        W38370   1.448  18.648  13.902  0.3912  0.0307  0.0204
23240W        W38371  14.488   0.059  13.222 -0.3674 -0.1352  0.0665
23241W        W38372  16.571   4.874  13.774 -0.3121  0.0439  0.2764
23242W        W38373   5.384  12.189  13.096 -0.2256  0.0036 -0.3114
23243W        W38374  11.086  15.708   0.658  0.2126  0.1270  0.1396
23244W        W38375   8.397   8.978   3.566 -0.2874  0.1333  0.2835
23245W        W38376   0.700   4.807   1.262  0.1119  0.0786 -0.0487
23246W        W38377  13.415  17.276   4.870 -0.0453  0.1990  0.1468
23247W        W38378  11.843   6.515   3.404 -0.1479  0.3409  0.1923
23248W        W38379  17.766  11.766   3.435  0.1652  0.2121  0.0362
23249W        W38380   3.607  11.845   3.631  0.1051  0.0702 -0.0205
23250W        W38381   4.968   6.535  12.192 -0.0829  0.3639  0.2208
23251W        W38382  13.749  11.268  12.752  0.1711  0.2469  0.0715
23252W        W38383   2.282   2.131  13.671 -0.1016 -0.1769  0.1630
23253W        W38384   5.916   8.345   0.089  0.2531  0.1337  0.1701
23254W        W38385  16.251   3.206   4.070  0.0040 -0.1064  0.1270
23255W        W38386  14.303   3.843  13.147  0.1016 -0.1405 -0.4466
23256W        W38387   3.558  18.187   2.885  0.0040  0.0157 -0.3099
23257W        W38388  17.220   4.740   3.236 -0.2074 -0.3975 -0.0775
23258W        W38389   5.129   5.128   4.788  0.0479  0.1432  0.2158
23259W        W38390  13.652   7.692   0.972  0.1253  0.2185  0.1876
23260W        W38391  18.292  13.887  13.862 -0.0433  0.2772  0.0702
23261W        W38392  15.397  17.455   2.101  0.0695  0.1880 -0.1122
23262W        W38393   5.501   5.523   2.162 -0.0615 -0.3245 -0.1932
23263W        W38394  12.422   8.364   2.725 -0.1838 -0.0699  0.0385
23264W        W38395  14.502   8.544   3.731  0.4341 -0.1647  0.3768
23265W        W38396  13.709   6.319   3.855 -0.1857 -0.0104  0.0878
23266W        W38397  16.716  15.009  12.733  0.1247 -0.0085 -0.2386
23267W        W38398   1.173   6.282   3.502  0.2136  0.3182  0.0471
23268W        W38399  17.311   4.282   0.107  0.3014  0.3356  0.0015
23269W        W38400  16.753   9.737   4.812  0.1465  0.0961  0.1345
23270W        W38401   1.354  12.787   3.280  0.0521 -0.0535  0.2432
23271W        W38402  14.567   4.653  12.178 -0.1520  0.1898  0.3127
23272W        W38403   9.745  15.839   4.303  0.1160 -0.2862  0.3705
23273W        W38404  11.496  11.672   4.779 -0.3574  0.0048  0.2176
23274W        W38405   4.434   2.990   5.784  0.0983 -0.1096 -0.0463
23275W        W38406  15.379  10.152   4.801 -0.3464 -0.0844  0.0205
23276W        W38407  15.513   8.657  14.755 -0.3057  0.0664 -0.1940
23277W        W38408  10.499   2.452   0.507 -0.1312 -0.3316 -0.2908
23278W        W38409   8.832  12.527   1.816  0.0211  0.1557 -0.2581
23279W        W38410   2.011   1.467  12.182  0.0650 -0.0853 -0.2458
23280W        W38411  17.499  12.885  10.224 -0.0037 -0.0596  0.2642
23281W        W38412   2.220  11.157   4.182 -0.0300  0.0501 -0.3082
23282W        W38413   8.282   6.994   1.473 -0.4244  0.2614  0.0351
23283W        W38414  16.409   6.627  11.785 -0.1189  0.2172  0.1920
23284W        W38415   4.955   4.778   1.262  0.0180 -0.0421  0.3472
23285W        W38416  12.013   8.860   3.788 -0.1868  0.1753 -0.0283
23286W        W38417  17.876  12.580   3.223 -0.0965 -0.2735 -0.2004
23287W        W38418  14.713   3.335   0.480  0.0479 -0.2122  0.1399
23288W        W38419   3.066   6.493  12.008 -0.1053 -0.0851 -0.1448
23289W        W38420   8.950  13.552  15.440 -0.0927  0.0160  0.0228
23290W        W38421  17.967  14.447   1.690 -0.0579  0.6317  0.0276
23291W        W38422  14.636  15.326   4.454  0.1369 -0.0695  0.0287
23292W        W38423   3.316   0.585   4.619 -0.1209 -0.0554  0.1041
23293W        W38424   7.923   6.128  14.817  0.3074  0.1303 -0.0880
23294W        W38425  12.611  11.310  15.557 -0.0210 -0.0457  0.4314
23295W        W38426  12.179   2.967   4.934 -0.2951  0.0132  0.0632
23296W        W38427   6.828   9.470  13.934 -0.0447 -0.1061 -0.0060
23297W        W38428   5.454   9.114  12.772 -0.0705  0.2788 -0.2418
23298W        W38429   5.776   3.520   1.342 -0.0920  0.1092 -0.1379
23299W        W38430  10.814   6.128  11.461  0.5037 -0.0711  0.1680
23300W        W38431  14.603   8.599   1.336  0.1387  0.1200 -0.0021
23301W        W38432   7.299  16.873   3.006  0.0217  0.1275 -0.1519
23302W        W38433  17.262  12.669  13.566  0.2118 -0.0200 -0.2222
23303W        W38434   8.821   5.758   3.089 -0.0525  0.0391 -0.2515
23304W        W38435  13.793   6.626  14.924  0.0281 -0.0215 -0.0981
23305W        W38436  17.059  11.565   3.588  0.0434 -0.2957 -0.0759
23306W        W38437  16.095   5.743  12.304  0.3108 -0.0892 -0.1559
23307W        W38438  14.448  13.149   2.616  0.1595 -0.0730 -0.2310
23308W        W38439  17.224  13.742   9.754  0.0275  0.2176  0.1532
23309W        W38440   5.053  14.390   1.815 -0.0599  0.1648 -0.0514
23310W        W38441   9.431  17.095   1.256 -0.1701  0.0082 -0.3854
23311W        W38442   3.850  18.523  13.521  0.1229 -0.2854  0.2139
23312W        W38443   1.514   4.005   1.198 -0.2016  0.1072 -0.3943
23313W        W38444  14.667  11.091  14.161 -0.3679  0.0653 -0.0664
23314W        W38445  12.422  13.552  10.786  0.0181  0.2776 -0.0853
23315W        W38446   4.417   5.988  11.575 -0.0282 -0.3267 -0.1538
23316W        W38447   8.673   6.596   2.131 -0.0920 -0.0150  0.0883
23317W        W38448  18.188  11.017   0.943  0.1798  0.0623 -0.1393
23318W        W38449   8.916  12.005   5.034  0.0471 -0.1019  0.1473
23319W        W38450   2.714   8.969  10.936 -0.2183 -0.0746 -0.0786
23320W        W38451  16.736  17.503  12.421 -0.0512 -0.0371 -0.0903
23321W        W38452   8.874  15.899  14.485  0.1898  0.1954  0.0694
23322W        W38453   7.535   6.602   1.076 -0.2700 -0.1133 -0.0515
23323W        W38454   3.645   7.853  10.438  0.1255  0.0725 -0.2988
23324W        W38455  16.839   5.408  15.427  0.0061 -0.1998 -0.3299
23325W        W38456  14.442  10.611   6.230 -0.1089  0.2577  0.1243
23326W        W38457   5.242   2.211   2.755  0.2025  0.0504 -0.0473
23327W        W38458  17.457   2.535   2.011 -0.3380  0.1221 -0.2227
23328W        W38459   4.265   1.102  13.573 -0.1503  0.0649  0.0865
23329W        W38460  18.301   9.929   2.933  0.1053  0.2497 -0.0974
23330W        W38461   7.395  11.922  11.198  0.3687  0.1921  0.1622
23331W        W38462   4.143  10.676  10.677 -0.1508  0.1172 -0.1910
23332W        W38463   3.485   6.075   3.409 -0.0858 -0.3540 -0.0051
23333W        W38464  11.652   4.470  12.850 -0.1218 -0.0799 -0.1151
23334W        W38465   8.610   8.380  11.967  0.0477  0.0246  0.3548
23335W        W38466  15.546   8.426   1.681 -0.0837  0.0392  0.0959
23336W        W38467  10.905   3.486   9.609  0.0474  0.1368  0.0827
23337W        W38468  10.946  12.450   4.732  0.0195 -0.3478  0.4559
23338W        W38469  12.896  12.431   2.770  0.4149  0.4728 -0.0290
23339W        W38470   2.465   2.879   2.852  0.2650 -0.3136 -0.1059
23340W        W38471  16.159  16.749   2.420 -0.2914 -0.1067  0.0246
23341W        W38472  16.098  17.422  10.727  0.0045 -0.6330 -0.0352
23342W        W38473   2.557   1.547  13.039 -0.0609  0.3529  0.0306
23343W        W38474   2.650   6.595   0.410 -0.0968 -0.0156 -0.2572
23344W        W38475  12.462  15.713  10.048 -0.1372 -0.4418 -0.0639
23345W        W38476  11.088  14.911  12.597  0.0093  0.1365  0.1479
23346W        W38477   2.602   3.340  14.977 -0.1542 -0.1259  0.2746
23347W        W38478  11.545   6.152   1.867 -0.0841  0.2911  0.2461
23348W        W38479   8.846  16.836  15.197 -0.1704 -0.5091  0.1429
23349W        W38480  13.757  17.974   3.233  0.0871  0.2047  0.3379
23350W        W38481  14.477  17.857  11.988  0.1709  0.1911  0.0262
23351W        W38482   6.386  14.954   0.384 -0.0839 -0.0418  0.2661
23352W        W38483  16.623   0.274  15.337  0.2506 -0.0595  0.1125
23353W        W38484  13.961  12.790  11.287 -0.1507 -0.0865 -0.1135
23354W        W38485  14.498   6.796   4.198 -0.1741  0.2446  0.3771
23355W        W38486   9.716   6.010   3.384 -0.0703  0.3739 -0.1542
23356W        W38487   4.053   7.746   2.173  0.2162 -0.2540 -0.0878
23357W        W38488  10.683  14.553  14.711  0.2234  0.0387  0.2931
23358W        W38489  14.478   3.323   0.034 -0.0641  0.0326  0.4127
23359W        W38490  14.384   4.949   0.901  0.1972  0.0535  0.1430
23360W        W38491   7.512  11.760  11.882 -0.2983  0.1439 -0.0766
23361W        W38492   3.747  12.077   4.116 -0.1172  0.2132 -0.3875
23362W        W38493   2.385  14.862  13.797 -0.2697  0.1072 -0.2677
23363W        W38494   3.080   5.814  13.450  0.2476 -0.3831  0.3529
23364W        W38495   5.689   4.594  14.283 -0.1141 -0.1722 -0.1696
23365W        W38496   0.527   4.555  15.707 -0.1386 -0.1879 -0.0944
23366W        W38497   8.238  17.249   2.886  0.2116 -0.2588 -0.0435
23367W        W38498   9.539  16.899   0.631 -0.0239  0.0585  0.1933
23368W        W38499   3.101   1.816   2.134  0.2381  0.2278 -0.0883
23369W        W38500   0.346  10.275  13.207  0.0417  0.2643  0.4004
23370W        W38501  13.684   4.131  11.656  0.0993  0.0128  0.1940
23371W        W38502   1.580  14.096  14.568  0.1185 -0.0134 -0.2539
23372W        W38503  16.794   9.798   3.917  0.3426  0.1324  0.0691
23373W        W38504  10.317  11.191   4.533 -0.3188  0.0155  0.2328
23374W        W38505   4.193   0.485  11.821 -0.0766 -0.1622 -0.1586
23375W        W38506   1.831   7.385  11.263  0.0362 -0.2179  0.0016
23376W        W38507   8.279   1.456  12.781  0.0358 -0.0397  0.1192
23377W        W38508   3.555  12.027   3.033 -0.1156  0.2055  0.1011
23378W        W38509   0.198  18.560  12.540 -0.2478 -0.1137 -0.1873
23379W        W38510  16.004  16.707  14.423 -0.4330  0.1841 -0.3687
23380W        W38511   8.459   6.823  12.224  0.1945 -0.0735  0.1472
23381W        W38512   4.576  11.945   3.835  0.0097 -0.0349 -0.3353
23382W        W38513  14.247   5.021  12.240  0.2390 -0.2126 -0.0388
23383W        W38514   9.576  14.039  10.629  0.0029 -0.1672 -0.1438
23384W        W38515   4.567   5.997   5.854 -0.0098  0.0339 -0.3016
23385W        W38516   9.652   3.541  14.138  0.0789  0.3541  0.0404
23386W        W38517   8.388   2.706   2.078 -0.0897  0.1861  0.2798
23387W        W38518  14.410  11.522  10.570 -0.2155 -0.2090 -0.2329
23388W        W38519  14.066   8.767  10.258  0.1362  0.1674  0.0636
23389W        W38520  18.059  17.473   1.141 -0.0474 -0.1619  0.2923
23390W        W38521  10.805  10.324  12.284  0.1212 -0.2384  0.2331
23391W        W38522   3.614  18.065   4.919  0.1803 -0.0918  0.1028
23392W        W38523  14.627   3.594  15.405  0.2622 -0.1526 -0.1725
23393W        W38524   6.258   8.578   0.336  0.3537  0.0750 -0.1177
23394W        W38525  10.061  13.526  10.528 -0.4634 -0.0977 -0.0036
23395W        W38526  13.023  16.171  14.086  0.2343  0.2909  0.2414
23396W        W38527   5.851   8.598   4.463  0.0040  0.3235 -0.1920
23397W        W38528  14.223   2.326   3.266 -0.2772  0.0672  0.1454
23398W        W38529   4.318   1.051   1.421  0.2370  0.1936  0.3271
23399W        W38530  12.094   8.608  11.700  0.1088 -0.3446  0.0104
23400W        W38531   2.535   7.727   9.524  0.1573  0.3395 -0.0702
23401W        W38532   2.247  10.248  11.100 -0.3222 -0.0270  0.0181
23402W        W38533  10.458   5.787  10.765  0.1982 -0.0850 -0.1598
23403W        W38534  11.123   4.864  13.927  0.0148  0.0407 -0.2260
23404W        W38535  11.681  16.408   4.461  0.3144 -0.1712  0.0112
23405W        W38536   2.242  15.578  12.820 -0.3266  0.1953  0.3793
23406W        W38537  15.084  14.226  11.613 -0.2592  0.2069 -0.2587
23407W        W38538  16.225   5.259   0.758  0.0948 -0.0549 -0.2833
23408W        W38539  16.199   9.079  15.658 -0.1653  0.0617  0.0501
23409W        W38540   4.695  15.762   3.363  0.0567 -0.0364 -0.1527
23410W        W38541  10.907   5.797  12.021 -0.0678  0.0135  0.1085
23411W        W38542  14.970  13.570   5.058 -0.0683  0.1356  0.1385
23412W        W38543   6.599  17.815  12.867 -0.0372 -0.2068  0.0919
23413W        W38544   8.198   7.846  10.723  0.1349 -0.0793  0.1056
23414W        W38545   1.420  16.043  15.298 -0.0972  0.1555 -0.0222
23415W        W38546  17.981   3.177  13.326 -0.2699 -0.0674  0.0916
23416W        W38547   9.348   9.089   2.379  0.0522  0.1360 -0.0799
23417W        W38548  10.846  10.820  12.172  0.1265  0.0144  0.0137
23418W        W38549   4.294  16.869   4.890 -0.0007  0.2946 -0.2584
23419W        W38550   0.190  17.597   2.954  0.1587  0.2269  0.3556
23420W        W38551  16.710  14.634   4.212 -0.2379 -0.0332 -0.2985
23421W        W38552  11.917  16.688  10.376  0.0312  0.2925 -0.4688
23422W        W38553  18.311   4.256   2.461 -0.0101 -0.1131 -0.0135
23423W        W38554  12.322  16.886   1.948  0.1773  0.0041 -0.0506
23424W        W38555   1.327   8.235   5.486  0.0099 -0.4613 -0.2893
23425W        W38556   5.175   7.733   0.571 -0.0691  0.0361 -0.0935
23426W        W38557  13.666  15.138  10.817 -0.0531 -0.2591 -0.0561
23427W        W38558   0.559   0.725   5.602 -0.0969 -0.0864  0.3036
23428W        W38559   9.451  14.601  11.210  0.3725 -0.1479  0.0232
23429W        W38560   7.192   2.912   0.589  0.0718  0.2016 -0.2147
23430W        W38561  18.097   3.912   4.276  0.3442 -0.2074 -0.1741
23431W        W38562   1.247   1.914  14.575  0.0418  0.0383 -0.1063
23432W        W38563   1.637   4.049   3.730 -0.2140  0.2168  0.1859
23433W        W38564   6.301  13.358   3.162 -0.2785 -0.0426  0.2631
23434W        W38565  13.003  18.475  13.955 -0.0647 -0.2606 -0.1603
23435W        W38566  11.573  11.268   1.868  0.5284  0.0212 -0.2361
23436W        W38567   2.999  13.457   5.355  0.1629  0.4928  0.1051
23437W        W38568  15.765  10.927  14.415 -0.0216 -0.2786 -0.0983
23438W        W38569   7.843  16.962   0.821  0.0964  0.2384  0.0336
23439W        W38570  12.856   9.415   1.180  0.1284 -0.0222 -0.1881
23440W        W38571   5.538  13.611   5.246  0.1108  0.0009  0.0645
23441W        W38572  16.490  15.047  11.405  0.1887  0.1831  0.0496
23442W        W38573  13.984  15.264  14.220  0.2820  0.1437  0.4794
23443W        W38574  16.967   3.562   1.905  0.1294  0.1524  0.1687
23444W        W38575   3.754   9.676   0.868 -0.0713  0.2913  0.2395
23445W        W38576  12.343  15.613  10.544  0.3078 -0.1471 -0.1991
23446W        W38577  14.225  16.020  14.948  0.0360 -0.0573  0.0485
23447W        W38578  17.628   7.940  11.072 -0.1016  0.4827  0.1714
23448W        W38579  17.584  18.409   4.667  0.1514 -0.3330  0.0788
23449W        W38580   0.637  10.761  11.244  0.1181 -0.1216 -0.0303
23450W        W38581   0.971  12.833   4.937  0.1903  0.0447 -0.1123
23451W        W38582   6.196   8.847  12.130  0.0911  0.0636  0.1682
23452W        W38583   2.900  12.148  13.848  0.2779 -0.3690  0.1544
23453W        W38584  14.816   8.952   4.818  0.1434  0.2897  0.2029
23454W        W38585  12.739  12.200  14.808 -0.0195  0.0907  0.0060
23455W        W38586   9.850   9.003  14.297 -0.0766 -0.1036 -0.0506
23456W        W38587   3.296   9.280  13.323 -0.2233  0.0619 -0.3013
23457W        W38588  11.775   1.052  15.120  0.2728 -0.0731  0.0784
23458W        W38589  10.808   6.419   1.917 -0.0950  0.1930 -0.1203
23459W        W38590  13.221  10.195  15.776 -0.3129  0.0433 -0.1652
23460W        W38591   7.911   9.246  13.891 -0.1584 -0.2732  0.0234
23461W        W38592   0.446  13.913  11.238  0.0752 -0.1659 -0.3500
23462W        W38593   5.880   9.667   3.282  0.1511  0.1684  0.3021
23463W        W38594  16.128   7.669  15.373  0.2335  0.0797  0.2938
23464W        W38595  18.025  11.645   1.684  0.1076 -0.0781 -0.1532
23465W        W38596  14.522   0.987   3.882 -0.1763  0.0160 -0.1416
23466W        W38597   1.740  17.921   4.582 -0.0718 -0.0162 -0.0525
23467W        W38598  14.647   2.551   0.414 -0.0760  0.1996  0.1411
23468W        W38599   0.102   9.752  14.578  0.2653  0.2091 -0.0718
23469W        W38600   9.810  11.932  12.186 -0.2239 -0.2027  0.0329
23470W        W38601   1.730   0.244   3.506  0.1815  0.0055  0.2183
23471W        W38602   9.826  17.584  10.572  0.0356 -0.2349  0.2207
23472W        W38603   7.739   3.146   0.010  0.1172 -0.3908  0.2963
23473W        W38604  17.979   7.171   1.377 -0.1801 -0.4019  0.1738
23474W        W38605  11.668   4.572   4.279  0.1333 -0.3551  0.2336
23475W        W38606   8.993  17.958  14.759 -0.0112 -0.0916 -0.0734
23476W        W38607  17.201   1.677   0.603  0.2159 -0.0575  0.3466
23477W        W38608  11.346   3.756   1.040 -0.2065  0.0749  0.2800
23478W        W38609   2.004   9.356  10.862  0.4661 -0.0200  0.0414
23479W        W38610  10.619   9.562   1.066  0.2245 -0.0115  0.2966
23480W        W38611   5.260  15.896   1.868  0.0776 -0.2524  0.1338
23481W        W38612  17.947   3.260  11.105 -0.0475  0.0417  0.1293
23482W        W38613  18.593  14.943   0.891 -0.0176  0.0155  0.2443
23483W        W38614   2.738  11.476   2.895 -0.2110 -0.0192 -0.0389
23484W        W38615  13.605   9.460   4.611  0.2434 -0.0447 -0.3168
23485W        W38616   0.210  10.650  10.568  0.3097 -0.6782 -0.2486
23486W        W38617  10.524   8.166  13.195 -0.1429 -0.0076  0.4548
23487W        W38618   4.195   3.306   3.781  0.0262 -0.1578  0.2493
23488W        W38619   2.348   1.436   4.080 -0.3916  0.2312  0.0422
23489W        W38620  12.030   7.684  10.188 -0.0247 -0.1894  0.0579
23490W        W38621  11.924   6.037  13.733 -0.1288 -0.0208 -0.0668
23491W        W38622  15.764   7.247   4.155 -0.0224  0.1144  0.2134
23492W        W38623  11.488   7.921   4.845  0.3363 -0.0889  0.0171
23493W        W38624  16.370   7.384   9.960  0.1353 -0.4603 -0.2173
23494W        W38625  16.399   8.453  12.368 -0.3405  0.1508 -0.2028
23495W        W38626  13.639  10.714   0.414 -0.0926 -0.0114  0.0328
23496W        W38627   7.743  11.924   9.940  0.1125  0.0567 -0.2138
23497W        W38628  17.820   9.904   3.101  0.1751  0.4370 -0.0233
23498W        W38629  14.054   3.726  10.864  0.1325 -0.2812  0.0607
23499W        W38630  13.088   1.681   0.818 -0.1501  0.2906  0.3028
23500W        W38631  11.695   5.491   5.533  0.0116 -0.1425 -0.0153
23501W        W38632   0.481   5.668  15.046  0.0187 -0.1118  0.1372
23502W        W38633  16.133  15.214  15.011  0.1473 -0.1999 -0.0733
23503W        W38634  16.748  18.450  10.826  0.3674 -0.1037 -0.1976
23504W        W38635   5.195   0.167   3.736  0.2568 -0.0180 -0.1213
23505W        W38636  16.297   8.985  13.651  0.1190 -0.1640 -0.2730
23506W        W38637   5.821   2.961  10.961 -0.0432 -0.1494 -0.0198
23507W        W38638   5.294  16.235  13.615  0.2614  0.1018  0.3270
23508W        W38639   3.232  10.938   0.921 -0.1462  0.1942  0.4104
23509W        W38640  15.079  10.609  14.805 -0.0602  0.1232  0.1525
23510W        W38641   5.314   5.953   1.112  0.0348  0.0582  0.3360
23511W        W38642   1.866   2.835  10.138  0.1405 -0.0675 -0.0955
23512W        W38643  15.803  17.612   2.773  0.0928 -0.0169  0.0241
23513W        W38644   1.983   7.018   2.159  0.1102 -0.1793 -0.0113
23514W        W38645  15.251  16.261   2.834  0.3289  0.1937 -0.2781
23515W        W38646   2.593  18.521  13.125 -0.0497  0.1843 -0.0851
23516W        W38647   3.730   8.897  14.612  0.0014  0.4163  0.1535
23517W        W38648  14.378   5.884  12.143 -0.0557  0.0730  0.0248
23518W        W38649   1.609  14.735  10.122 -0.0137 -0.2054 -0.1512
23519W        W38650  14.500   4.311  12.600 -0.1536 -0.2091 -0.1464
23520W        W38651  13.736   9.027  11.772  0.0510  0.2645  0.0356
23521W        W38652   6.397   1.028  15.339 -0.1919 -0.1869 -0.0194
23522W        W38653   6.683  12.081  12.386  0.3684  0.2062  0.3029
23523W        W38654  10.176   4.747  13.697 -0.0523 -0.1796  0.0730
23524W        W38655  11.097   7.264   2.896 -0.3782 -0.0937 -0.0426
23525W        W38656  14.961  13.311   2.868 -0.2571 -0.3306  0.2309
23526W        W38657   4.755  12.855  12.569  0.0675  0.5022  0.1659
23527W        W38658   5.402  11.211   2.344  0.4537 -0.0194  0.0909
23528W        W38659  17.496   5.956  14.244  0.0507  0.0187 -0.1438
23529W        W38660  15.905  16.839  15.283 -0.2783 -0.1040 -0.1227
23530W        W38661   9.268  13.162   1.558  0.0504 -0.2729  0.0830
23531W        W38662  15.345  10.240  12.584  0.3248 -0.0139  0.0354
23532W        W38663  18.637   9.309   5.587 -0.2993  0.0374 -0.0024
23533W        W38664  18.488   7.352  14.212 -0.2797 -0.1697  0.0121
23534W        W38665   3.020   3.078   6.048 -0.1450  0.0424 -0.2129
23535W        W38666   0.228   6.936   3.593 -0.2642 -0.2286 -0.1704
23536W        W38667   2.363  13.881  13.386 -0.0799 -0.0781 -0.0639
23537W        W38668  15.495  10.950   4.881  0.0502  0.1398  0.0589
23538W        W38669  14.037   9.745   1.382 -0.2640  0.1843  0.0547
23539W        W38670  17.200  14.912  13.971  0.0635 -0.2347  0.1347
23540W        W38671  17.560  14.663  15.148 -0.0827 -0.1904  0.3094
23541W        W38672  14.528   0.472  11.999 -0.0531 -0.2160 -0.1255
23542W        W38673  11.986  16.812   0.087  0.3725  0.0607 -0.2860
23543W        W38674   5.238  12.773   5.621 -0.3415 -0.0730 -0.0512
23544W        W38675  16.567  11.730  14.419 -0.1681 -0.1535  0.2674
23545W        W38676  14.195  17.389   4.083 -0.2996  0.0037  0.2143
23546W        W38677  14.324   6.075   0.279  0.1207 -0.2165  0.2248
23547W        W38678   3.384  14.231   0.274 -0.0787 -0.1160  0.1140
23548W        W38679  12.567  13.207   3.131 -0.2670 -0.2551 -0.2148
23549W        W38680   3.729   1.863  13.183 -0.2214 -0.0437 -0.0370
23550W        W38681  15.337  18.583  10.731  0.2304  0.0398  0.2182
23551W        W38682  13.309  15.157   2.111  0.2426  0.1224  0.1022
23552W        W38683  13.400   7.440   0.157 -0.0476  0.1362 -0.1862
23553W        W38684  11.680  17.774   0.953  0.2428  0.0797 -0.1098
23554W        W38685   1.364   5.401   1.924 -0.1924 -0.0639 -0.1387
23555W        W38686   3.905  17.243  10.900  0.1009 -0.0945 -0.3269
23556W        W38687   7.083   4.498   3.361  0.1308 -0.0667  0.1555
23557W        W38688  17.736  13.180   2.312  0.0459  0.0983  0.1474
23558W        W38689  17.862   9.053   4.919  0.6696 -0.2339 -0.0618
23559W        W38690  12.068   7.831  14.296  0.0044  0.5495 -0.2368
23560W        W38691  10.998  12.122   0.925  0.0656  0.3785  0.1796
23561W        W38692  18.353  17.635  14.178 -0.0503  0.1107 -0.0980
23562W        W38693  15.976  11.302   4.156 -0.2986 -0.1293  0.1432
23563W        W38694  13.460   8.633  14.304  0.0665 -0.1060  0.0502
23564W        W38695  11.921   0.311   1.468 -0.0169 -0.1981  0.0417
23565W        W38696  12.422   7.161  12.782  0.3380  0.0757 -0.1243
23566W        W38697  15.277  11.728   5.948  0.3941 -0.4883  0.0838
23567W        W38698  13.212  15.053  12.327  0.2325  0.2584 -0.1630
23568W        W38699  17.547   3.849   4.513 -0.0022  0.1797 -0.0916
23569W        W38700  12.101  15.844  11.385 -0.0928 -0.0708 -0.2694
23570W        W38701  12.891  13.371   4.068 -0.0548 -0.0873 -0.1909
23571W        W38702  12.776   1.212  12.345 -0.0006 -0.1009 -0.0761
23572W        W38703  18.418   4.030   4.766  0.2017 -0.0311  0.1231
23573W        W38704   5.146  12.239  14.504  0.1180 -0.0624  0.1968
23574W        W38705  11.139   1.386   0.056 -0.1281 -0.1132 -0.2402
23575W        W38706  17.872   0.937   4.992 -0.0835 -0.0700  0.2656
23576W        W38707   9.625   2.947  15.629  0.2695  0.1904 -0.1683
23577W        W38708  17.320   0.567   1.434  0.1917 -0.0150  0.2046
23578W        W38709   8.271  18.647   3.333  0.2108  0.1477  0.1347
23579W        W38710  15.767  14.611   1.791 -0.0173  0.0079 -0.0250
23580W        W38711  15.837  16.206   3.757  0.0521  0.1184  0.1638
23581W        W38712   1.791   1.281  14.071  0.3248 -0.0587 -0.0451
23582W        W38713   9.303  12.678   1.700 -0.1383 -0.1102  0.3430
23583W        W38714  14.639   6.300   2.817  0.1726 -0.1410  0.0255
23584W        W38715  15.223  13.328   5.419  0.1677  0.4501 -0.1652
23585W        W38716  13.382   8.121  14.514  0.1682  0.2116 -0.2670
23586W        W38717  10.132  17.228  15.497 -0.0638 -0.1606  0.3556
23587W        W38718  10.950   7.020   3.308 -0.0464  0.1095 -0.1574
23588W        W38719   8.580  15.482   3.538 -0.0587 -0.1269 -0.0054
23589W        W38720   9.217  17.040  11.057 -0.0575 -0.1703  0.0322
23590W        W38721  13.813   6.504  15.463 -0.0413  0.0124 -0.2259
23591W        W38722   1.484  14.223   4.674 -0.0750  0.1936 -0.3641
23592W        W38723   3.260   8.329  12.595 -0.0162 -0.3507 -0.2551
23593W        W38724  10.829  10.462   0.720 -0.1190 -0.2732  0.0016
23594W        W38725   9.285   5.754   3.534  0.0584 -0.0251  0.1156
23595W        W38726  15.269  16.877  11.540  0.1057 -0.0177 -0.0349
23596W        W38727  14.727   9.434  15.658  0.3283 -0.3708 -0.1539
23597W        W38728  18.282  14.505  14.600  0.0883 -0.0064 -0.1216
23598W        W38729  18.368   3.977  12.304 -0.0716  0.0535  0.1438
23599W        W38730  12.692   2.636   1.709 -0.1624  0.1131 -0.0851
23600W        W38731  12.651   5.494  14.324 -0.0784  0.1499 -0.2088
23601W        W38732  13.727   9.118  10.338  0.4693 -0.1308  0.1105
23602W        W38733  15.466  18.334  13.370 -0.2206 -0.1031  0.0324
23603W        W38734   1.099   9.688  13.776  0.3945  0.1820 -0.0977
23604W        W38735   8.508   9.930   0.094  0.1309 -0.2785 -0.3770
23605W        W38736   5.813  14.281  13.540  0.0363  0.1013  0.0439
23606W        W38737  12.463   4.171   2.146  0.2548 -0.1623 -0.0647
23607W        W38738   1.590  15.336  13.723 -0.2213 -0.0057  0.2829
23608W        W38739   2.432  17.544  14.311 -0.3343  0.0240  0.0990
23609W        W38740  14.970  15.906  10.873  0.1321 -0.3022  0.1568
23610W        W38741   4.518  10.233  11.632 -0.0156 -0.0013  0.0728
23611W        W38742   0.133   0.103  14.768 -0.0773 -0.0617  0.3864
23612W        W38743   7.640   3.073   0.497 -0.0390  0.0601  0.2026
23613W        W38744   0.749   8.341   0.337 -0.2290 -0.1181 -0.1443
23614W        W38745   9.232   4.061   5.286 -0.4221  0.1078 -0.0344
23615W        W38746  18.527   3.224  11.267  0.2007  0.1455  0.1561
23616W        W38747   5.465  11.790  13.509  0.1132  0.3929  0.2339
23617W        W38748   9.276  15.534  15.315  0.0231 -0.0013 -0.0437
23618W        W38749   5.597   6.298  11.185  0.2636 -0.0142 -0.2887
23619W        W38750   3.459   7.350  13.941 -0.0544 -0.1001  0.1637
23620W        W38751   5.774   6.678  12.762 -0.1183 -0.4407  0.0414
23621W        W38752   4.918   3.239  11.499 -0.2363  0.1857  0.0048
23622W        W38753  16.472  14.117   3.126 -0.3232 -0.3421  0.1291
23623W        W38754  10.739  10.998   2.006 -0.3598  0.3027 -0.0375
23624W        W38755   0.584   4.930  10.210 -0.4742 -0.3084 -0.0337
23625W        W38756  17.598   1.042  12.460  0.0431 -0.1331  0.1849
23626W        W38757   1.214  10.695   0.954 -0.2845  0.0749 -0.0072
23627W        W38758   5.641   0.742  14.835  0.3929 -0.0237 -0.2964
23628W        W38759  14.661   7.505  13.395 -0.0814 -0.1718 -0.4931
23629W        W38760   3.703   2.246  12.118 -0.1312 -0.3194  0.1105
23630W        W38761  15.298  10.551  15.712  0.0960 -0.2235 -0.4302
23631W        W38762  12.559   6.572  15.295 -0.2178  0.3469 -0.2300
23632W        W38763  15.865   0.093  10.558 -0.1689 -0.0673  0.3243
23633W        W38764  11.063  17.716  14.622 -0.1109 -0.1603 -0.0197
23634W        W38765  14.777  17.591   0.026  0.1261  0.0267 -0.1089
23635W        W38766   0.985  13.032  13.715  0.0068  0.1844  0.3848
23636W        W38767   0.111  16.515   0.996  0.5054 -0.0978 -0.1527
23637W        W38768  13.733   8.318   5.153  0.0054 -0.0785 -0.2022
23638W        W38769   0.484   0.674  12.629  0.1269  0.1209 -0.0170
23639W        W38770  14.838  10.236  12.430  0.1367 -0.0980 -0.1930
23640W        W38771   0.541  10.751   1.693  0.1059  0.3762  0.0097
23641W        W38772  12.682  15.177  14.615 -0.0535  0.0722 -0.0107
23642W        W38773   3.344  13.280   1.187 -0.1027  0.0215  0.2931
23643W        W38774  10.716  18.297  15.212  0.0975  0.0620 -0.1637
23644W        W38775  12.122  11.911   1.381 -0.0311 -0.0423 -0.1389
23645W        W38776  15.169   0.964  11.872  0.0792  0.1339 -0.1821
23646W        W38777   8.157   6.692   4.431 -0.0343 -0.0369 -0.2445
23647W        W38778  14.626  10.488  12.083 -0.1061  0.2987 -0.0744
23648W        W38779  15.918   8.816   0.304 -0.1047  0.1228  0.1014
23649W        W38780  18.396   4.414   1.454  0.0639 -0.1458  0.1170
23650W        W38781  11.980   2.068   2.060  0.0613  0.5139  0.3204
23651W        W38782  14.692   8.400   2.316 -0.2525  0.1119 -0.0000
23652W        W38783  11.874   4.281   1.776 -0.2076  0.1106 -0.1202
23653W        W38784   1.124  15.998  13.567 -0.1508 -0.1934  0.3568
23654W        W38785   4.324  13.450   2.258 -0.0358  0.1488  0.0457
23655W        W38786  12.136  13.494  11.745  0.0316  0.2200 -0.2754
23656W        W38787  13.588  18.059  13.847  0.0068  0.3079  0.2251
23657W        W38788   5.165   6.745  14.898  0.2050  0.2228 -0.2506
23658W        W38789   8.408   7.113   1.956  0.0145 -0.5416 -0.2184
23659W        W38790   6.920   4.948   4.652  0.0525  0.1868 -0.2818
23660W        W38791  15.424   3.317   2.659 -0.0940 -0.1370  0.0576
23661W        W38792  18.551  18.394  11.694 -0.0893  0.0285 -0.3081
23662W        W38793   3.158  17.678  10.918 -0.1399 -0.0305 -0.0618
23663W        W38794  17.864   1.848   2.534  0.0532  0.2392  0.2761
23664W        W38795  12.163   1.451  15.188 -0.0395 -0.0814 -0.0707
23665W        W38796   9.835  14.700  11.977 -0.1098 -0.1600  0.4085
23666W        W38797   5.317  18.664  12.702  0.0193 -0.1816  0.2673
23667W        W38798  12.149  11.914  10.485  0.1361 -0.0822  0.1757
23668W        W38799  15.895   5.385  11.444  0.1592  0.1357 -0.3326
23669W        W38800  10.486   1.630   3.250  0.0911  0.2028  0.0991
23670W        W38801   5.711   7.311  12.258  0.4242 -0.0956  0.1008
23671W        W38802   5.144  14.349  15.794 -0.0569 -0.1178  0.0369
23672W        W38803  12.624   1.263   5.204  0.1023  0.1780 -0.1335
23673W        W38804   7.651   0.790   1.882  0.2567 -0.0720  0.3248
23674W        W38805  14.625   1.942  15.332 -0.2687  0.4591  0.3105
23675W        W38806  14.968   2.010   2.832  0.0182 -0.2234  0.1068
23676W        W38807   7.364   6.850   0.511 -0.2236  0.1058 -0.1997
23677W        W38808   7.096  12.043  13.942 -0.1532 -0.1593  0.1078
23678W        W38809  14.488  12.728   2.854 -0.1268  0.1165 -0.0153
23679W        W38810  11.240   8.456  13.446 -0.2045  0.1767 -0.0912
23680W        W38811  12.297   5.053   3.264  0.0827  0.1883  0.3071
23681W        W38812  12.811   5.738   5.232  0.4151 -0.2698 -0.4324
23682W        W38813  10.235   4.002   0.581 -0.0373  0.0040  0.6228
23683W        W38814  17.047  13.881  13.224 -0.0952 -0.1010  0.0475
23684W        W38815   5.572  12.706   1.613  0.3713 -0.0560  0.0196
23685W        W38816   3.615  12.896  13.554 -0.1692  0.1201  0.0412
23686W        W38817   8.708   4.469  15.596 -0.3026  0.1069 -0.0046
23687W        W38818  16.247   9.465  14.283  0.0590  0.0940 -0.1695
23688W        W38819   0.165   0.684   1.769  0.1045 -0.1840  0.1491
23689W        W38820  16.307  12.106  12.716  0.0284  0.0812 -0.0624
23690W        W38821  14.163  16.134   0.023 -0.1160 -0.0922  0.4651
23691W        W38822   6.799   7.540  13.290  0.1352 -0.1169 -0.0742
23692W        W38823   8.782  14.540   2.655 -0.0429 -0.0390 -0.0946
23693W        W38824  13.034  15.556   0.257 -0.1873 -0.3711 -0.1238
23694W        W38825   2.252   2.905  12.308 -0.0369 -0.1096 -0.0450
23695W        W38826   1.444   4.524   4.386  0.2818  0.3833 -0.0730
23696W        W38827  10.799   3.619   5.491 -0.1659 -0.1622  0.0330
23697W        W38828   1.457  11.781   1.456 -0.0747 -0.2548  0.1886
23698W        W38829  15.723  13.966  15.186  0.1467  0.0549 -0.0957
23699W        W38830   9.517   8.650  13.570 -0.0735  0.2614 -0.0882
23700W        W38831   3.169   8.772  11.665 -0.1413  0.2994 -0.4889
23701W        W38832  13.937   2.654   0.347  0.2125 -0.2230 -0.0756
23702W        W38833  11.937   4.574  11.849  0.2152  0.3177 -0.2675
23703W        W38834   3.967   2.794   4.255 -0.0387  0.0986 -0.0377
23704W        W38835  11.399  12.317   1.975 -0.1765 -0.3129 -0.0562
23705W        W38836   5.260   9.973   3.513 -0.0244  0.0033  0.3557
23706W        W38837   4.442   4.192   1.801 -0.0878 -0.0259  0.0181
23707W        W38838  18.269  12.693   5.770  0.1093  0.1126  0.1320
23708W        W38839  11.932   5.198  13.867 -0.1240 -0.3009  0.2053
23709W        W38840  15.208   9.298   1.835 -0.3576 -0.2904  0.2121
23710W        W38841   2.813  16.702   1.189 -0.2837 -0.0935  0.2579
23711W        W38842  11.232   8.432  11.273 -0.2457 -0.3706 -0.1708
23712W        W38843   2.854   5.346   1.649 -0.0550  0.0032  0.2018
23713W        W38844  11.788   3.118  15.171  0.0135  0.1267  0.0165
23714W        W38845  11.942  17.308  11.835 -0.0320  0.2520  0.3604
23715W        W38846  18.599  15.447  15.362 -0.0688 -0.2837 -0.4794
23716W        W38847   3.337   2.436   0.727  0.1626 -0.1550 -0.2156
23717W        W38848  17.495   5.165  13.701 -0.0709  0.0626 -0.1921
23718W        W38849  15.536  11.799  12.283 -0.3060 -0.1380  0.1714
23719W        W38850  15.899  11.813   3.984  0.0711 -0.0786  0.0979
23720W        W38851  15.580   5.972  12.093  0.1574  0.2031  0.1833
23721W        W38852  10.917   6.698   4.732  0.0454 -0.1456  0.1212
23722W        W38853   5.459   0.456   0.857 -0.0244 -0.3419 -0.0383
23723W        W38854  16.398   0.745   4.027 -0.0791 -0.0265  0.1556
23724W        W38855  14.861  10.855   3.995  0.2084  0.1663  0.0277
23725W        W38856  16.059  13.176   5.571 -0.1774 -0.0319  0.0488
23726W        W38857  10.186   5.964  14.727 -0.0898  0.1616 -0.2449
23727W        W38858   4.992  17.078   3.567  0.3244 -0.4089  0.1217
23728W        W38859   0.724   9.041  13.680  0.2490  0.1295 -0.0172
23729W        W38860   7.909   4.384   5.912 -0.1405  0.1233 -0.2834
23730W        W38861  11.063  14.784  13.575  0.1610 -0.0602  0.1288
23731W        W38862   5.115   9.720   2.535 -0.0859 -0.1575 -0.0793
23732W        W38863  18.478   9.690   1.038 -0.1406  0.2143 -0.1481
23733W        W38864  14.038   4.915  10.886  0.1697 -0.1525  0.0159
23734W        W38865   6.806   6.729   0.477 -0.1065 -0.2874 -0.1879
23735W        W38866  17.867  12.586  13.622 -0.1617  0.0690  0.0523
23736W        W38867  10.567  11.171   3.131  0.0266 -0.2906 -0.2284
23737W        W38868  10.523  16.647  12.616 -0.0085  0.0588 -0.1226
23738W        W38869  16.813  17.214  13.808 -0.2567 -0.2038 -0.1844
23739W        W38870   2.109   7.530   2.240 -0.0720 -0.0183  0.2044
23740W        W38871  13.097   6.814   4.027  0.1121 -0.2234 -0.1499
23741W        W38872  15.636  16.694  10.200 -0.1327 -0.1544  0.2255
23742W        W38873  12.916   6.302   5.242  0.1346  0.0523 -0.0932
23743W        W38874   8.200  15.468   5.127 -0.0529  0.0005 -0.1259
23744W        W38875  16.717   0.791  12.189 -0.2911  0.1800 -0.2846
23745W        W38876  15.028   5.182  15.617 -0.1178 -0.2838  0.0035
23746W        W38877   1.599   0.599   1.012  0.0666 -0.1919  0.2151
23747W        W38878  17.149  13.224  13.323  0.3462 -0.1786 -0.1153
23748W        W38879   9.799   7.538  14.363 -0.1377 -0.0895  0.0346
23749W        W38880   8.283   3.747   3.340  0.3798  0.1396 -0.1240
23750W        W38881   7.369   3.649   1.027  0.1165  0.1733 -0.1882
23751W        W38882  13.021   7.384   9.959 -0.0030  0.1675 -0.2415
23752W        W38883   3.897   0.936   6.239 -0.0794  0.1252  0.1570
23753W        W38884  10.431  11.404  13.031  0.0433 -0.1192 -0.2721
23754W        W38885   8.256  17.958  11.600 -0.2356 -0.0846 -0.0485
23755W        W38886  11.573   7.373   0.108 -0.1491 -0.1209 -0.1318
23756W        W38887  17.504  18.481   0.061 -0.1834 -0.0167  0.0138
23757W        W38888   2.727   3.996  13.175 -0.0139 -0.0464 -0.1302
23758W        W38889   6.139  15.109  12.753 -0.1485 -0.1386 -0.2516
23759W        W38890  13.461  12.806   1.541 -0.1463 -0.0182  0.3424
23760W        W38891  10.571   5.150  14.832 -0.0422  0.0975  0.1599
23761W        W38892   9.204  10.390  15.755 -0.0796  0.1519  0.2283
23762W        W38893   9.099  10.350   0.966  0.0825  0.2790 -0.2659
23763W        W38894   1.937  16.921   1.860  0.5610 -0.0880 -0.2016
23764W        W38895  11.592   8.396   3.327  0.0406  0.3532  0.1113
23765W        W38896   8.670  12.737  14.414 -0.0517  0.0925 -0.1025
23766W        W38897  16.604  15.757  13.256 -0.2323 -0.3339 -0.4070
23767W        W38898   0.958  10.356  11.587 -0.1572 -0.1844  0.0662
23768W        W38899   0.088  18.295  14.642 -0.0203  0.0271 -0.0306
23769W        W38900   2.765  13.910   1.644 -0.0734  0.0068  0.0030
23770W        W38901   0.712   2.416  15.207 -0.0747  0.3473 -0.1454
23771W        W38902  13.733  15.196   0.168 -0.2481  0.0067 -0.0248
23772W        W38903  14.836   5.125  12.881  0.3707 -0.1091  0.2508
23773W        W38904   3.664   9.133   5.151  0.0588  0.1141 -0.2963
23774W        W38905   6.552  10.757  12.952 -0.1747  0.0782  0.1352
23775W        W38906  13.343  13.216  13.322 -0.2844  0.1717  0.0370
23776W        W38907  12.529   5.397  10.145 -0.1440 -0.0847  0.3191
23777W        W38908  15.970  13.989   5.466  0.0450 -0.1294 -0.1370
23778W        W38909  15.164   3.921  11.939 -0.1384  0.2199 -0.3298
23779W        W38910   4.723   7.228   2.345 -0.1341  0.0924  0.2696
23780W        W38911  17.461  11.879   3.829  0.2752 -0.2350 -0.0760
23781W        W38912   9.743  13.447  10.956  0.0881 -0.0846  0.1678
23782W        W38913  18.091  12.474  15.014  0.1579 -0.1931  0.2045
23783W        W38914  14.407   7.770  10.829 -0.0887 -0.0231 -0.0152
23784W        W38915  11.052  12.242   4.148 -0.0953 -0.0554  0.1905
23785W        W38916   3.002   4.645   3.243 -0.1870 -0.1346  0.0947
23786W        W38917   0.055  11.298   4.508  0.3411 -0.0373  0.1591
23787W        W38918   6.412   1.005  10.543  0.0495  0.0674 -0.1913
23788W        W38919   8.573  18.509  14.099  0.2332  0.1220 -0.1661
23789W        W38920  17.534  15.391  13.281  0.0808 -0.1847  0.0844
23790W        W38921   2.385   6.848  15.558  0.1334 -0.1589 -0.1360
23791W        W38922   6.692   3.802   3.403  0.0573 -0.2533 -0.2631
23792W        W38923   6.035   3.763  12.544 -0.1886  0.1041 -0.0308
23793W        W38924   9.049  15.795   4.830 -0.0428  0.0369  0.0740
23794W        W38925   4.317   1.481   4.206 -0.0972  0.1589 -0.0812
23795W        W38926  12.826  16.636   5.076 -0.3911 -0.0786 -0.1621
23796W        W38927  14.552   5.139  10.915  0.0374  0.0587 -0.2499
23797W        W38928   7.478   7.733   0.917 -0.3211 -0.5501 -0.0268
23798W        W38929   5.979   4.166  14.193 -0.2494 -0.0646 -0.1655
23799W        W38930  15.323   0.834  12.831  0.0396 -0.1934  0.1067
23800W        W38931   6.491  14.539  12.563 -0.0180 -0.1458  0.0072
23801W        W38932  10.648  12.568  11.267  0.1407 -0.2357 -0.0075
23802W        W38933   3.489   5.456   3.228  0.0085  0.1372  0.1042
23803W        W38934   9.012  15.190  13.111 -0.1640 -0.0239  0.3074
23804W        W38935   0.735   1.470  11.093 -0.2168 -0.0386 -0.1499
23805W        W38936  12.891  15.024   0.964 -0.1300 -0.0767 -0.2206
23806W        W38937  13.733   7.139  14.744 -0.2489 -0.0811 -0.0173
23807W        W38938   4.189  17.060   1.061  0.2478  0.1883 -0.1093
23808W        W38939  15.567  13.794  14.057 -0.1911 -0.1703  0.2295
23809W        W38940   8.369  11.499  11.651  0.0474 -0.1726  0.0383
23810W        W38941   6.941   1.321  12.214 -0.0737 -0.0639  0.0219
23811W        W38942  14.509  13.127   1.601  0.1438  0.0326  0.0049
23812W        W38943   7.636   9.214  14.322  0.1176  0.1932 -0.0633
23813W        W38944   5.334  10.386  11.732 -0.2293  0.1913 -0.3289
23814W        W38945  12.237   9.567   3.207 -0.3164 -0.1567  0.2988
23815W        W38946  18.651   3.706  15.312  0.1987  0.0492 -0.1743
23816W        W38947   5.349  11.971   3.002  0.3479 -0.0825 -0.2637
23817W        W38948  10.577   3.078  12.970 -0.0887 -0.0570 -0.1851
23818W        W38949   6.875   3.484  15.322 -0.1655  0.1561  0.0592
23819W        W38950   7.793  17.588   2.780  0.1717 -0.1594  0.0156
23820W        W38951   7.606   3.856  13.618 -0.0212 -0.1718  0.0029
23821W        W38952  17.156   3.845  11.440  0.2565  0.0240 -0.1773
23822W        W38953  12.799   3.800   0.834 -0.0926  0.1803 -0.0443
23823W        W38954  15.592   4.815  12.975  0.1366 -0.1441  0.0865
23824W        W38955   8.654   9.646   5.012  0.2784  0.4704  0.0292
23825W        W38956   6.829  17.734   1.866  0.0417  0.0264 -0.1050
23826W        W38957   1.962   4.866  11.284 -0.0058  0.1463  0.2256
23827W        W38958   5.360  14.402   3.401  0.0784 -0.0600  0.4774
23828W        W38959  10.440   8.992  12.035  0.2233  0.1477 -0.1354
23829W        W38960  10.580  15.647  14.935  0.0453  0.0630 -0.0888
23830W        W38961  18.263   4.395   3.030  0.0138 -0.0868  0.1018
23831W        W38962  11.748  17.919   1.520 -0.3095 -0.0714 -0.1956
23832W        W38963  18.271  13.100   0.775  0.2222 -0.5554 -0.1781
23833W        W38964   9.338  11.853   1.119 -0.1860 -0.1290 -0.1077
23834W        W38965  13.280   7.177  14.498  0.0561  0.0134  0.3033
23835W        W38966  10.622   5.313   2.692  0.0233 -0.1430 -0.1314
23836W        W38967   3.834   7.525  15.390  0.2270  0.0005 -0.4560
23837W        W38968   9.493   4.646  10.711  0.2643  0.0561 -0.0339
23838W        W38969   1.586   1.093   1.778 -0.3950  0.0312 -0.1851
23839W        W38970  12.500   3.495  12.477  0.1117  0.0203  0.0928
23840W        W38971   7.794   5.505  15.350 -0.2173 -0.3454  0.1321
23841W        W38972  10.380  15.971   3.918 -0.0187 -0.4021  0.0791
23842W        W38973  11.736   0.818   2.210  0.1657  0.0452 -0.0818
23843W        W38974  11.493   3.605  12.107  0.3182  0.0432  0.0843
23844W        W38975   7.798   8.135   3.514  0.2762 -0.3385  0.0273
23845W        W38976  14.071   9.273   1.791 -0.0789 -0.2912 -0.0424
23846W        W38977   2.758  16.649   3.165 -0.2503  0.0244  0.1850
23847W        W38978   0.229   0.239   3.172  0.1583  0.0278  0.1080
23848W        W38979  16.891  17.021   4.858  0.1745  0.1758  0.0768
23849W        W38980   0.262  15.519  15.704  0.4537 -0.1096 -0.2229
23850W        W38981   3.478   5.939   0.920  0.2042  0.3079  0.3380
23851W        W38982   6.216  10.138  14.569  0.0961 -0.1386 -0.5365
23852W        W38983  14.857  13.784  11.771  0.2494 -0.0702 -0.2375
23853W        W38984  14.476   6.558   5.026 -0.0448  0.0633  0.1189
23854W        W38985   6.097   9.675  12.833  0.3604  0.0700 -0.3419
23855W        W38986   3.126  12.072   1.084 -0.1253 -0.2045 -0.4912
23856W        W38987   0.203  14.145  13.860 -0.0352  0.3191 -0.1954
23857W        W38988   0.877  11.476  12.813 -0.0493  0.1618  0.0574
23858W        W38989   8.983   4.294   2.436  0.2930 -0.1549  0.1266
23859W        W38990   3.638   8.761   1.110  0.0476  0.0340 -0.2662
23860W        W38991   3.338  15.976   9.806  0.0465 -0.1033 -0.0715
23861W        W38992  15.309   8.876   1.598 -0.1793  0.4086  0.2072
23862W        W38993   3.456  16.474  15.232 -0.1829  0.1723  0.1920
23863W        W38994  16.989   5.877  14.254  0.1735  0.2131 -0.1417
23864W        W38995  13.532  18.339  11.976  0.0441  0.1981 -0.3055
23865W        W38996  13.280  16.617   1.991  0.0501 -0.2903 -0.1214
23866W        W38997  15.866  17.853   4.393 -0.2505  0.0170  0.1717
23867W        W38998   6.915   5.706   3.121  0.0136  0.2155 -0.0731
23868W        W38999  18.577   7.739   4.891 -0.3729  0.1830 -0.0453
23869W        W39000  13.037   7.550  10.894  0.0943  0.0027 -0.1436
23870W        W39001   7.228   9.779  13.707 -0.2214 -0.1905 -0.0543
23871W        W39002  12.321  16.311  13.165 -0.1528 -0.2894 -0.1072
23872W        W39003   9.233  18.478   5.004  0.1293  0.0856 -0.1894
23873W        W39004  16.258   4.738  10.340  0.0393  0.0132 -0.1860
23874W        W39005   6.367  14.692  14.455 -0.0390  0.0619  0.1538
23875W        W39006  17.209   1.628  11.827  0.2590 -0.1841  0.0105
23876W        W39007  17.498   2.232  15.506 -0.2381  0.2445 -0.0083
23877W        W39008   6.440   5.640   3.399  0.3112  0.0078 -0.0380
23878W        W39009  14.705   3.323   1.872  0.1061  0.0426  0.1337
23879W        W39010  17.539   3.722  13.991 -0.0437 -0.2539  0.0362
23880W        W39011   2.483   0.798  11.905 -0.2302  0.1570 -0.4198
23881W        W39012   8.870   9.878  10.461  0.0275 -0.1944  0.1101
23882W        W39013  10.320   9.142  10.629  0.3483 -0.1764  0.1012
23883W        W39014  16.436  13.926   4.911 -0.0979 -0.1301 -0.0487
23884W        W39015  12.059   2.132  13.733  0.2266 -0.1876 -0.0273
23885W        W39016  18.675  18.051   3.443  0.0389 -0.1042  0.1308
23886W        W39017  17.264   9.165  14.912 -0.0089  0.0245  0.0428
23887W        W39018  15.620  11.377  11.969  0.4878 -0.1066  0.0549
23888W        W39019  10.489   2.103   3.102  0.2145 -0.0498 -0.0478
23889W        W39020  10.294   4.546   0.583 -0.1926 -0.0308  0.2179
23890W        W39021  13.161   5.680  11.633  0.0212  0.0240  0.1256
23891W        W39022   8.482   3.370  12.782  0.1547 -0.0625  0.1660
23892W        W39023   8.363  13.741   2.454  0.1643  0.0356 -0.0711
23893W        W39024  10.364  16.370   5.264  0.0434  0.2817  0.1657
23894W        W39025   9.478  18.703  12.802 -0.1728 -0.0164 -0.1744
23895W        W39026   3.302   7.040  12.877  0.2300  0.0264 -0.1118
23896W        W39027  13.057  18.687   1.129 -0.0747  0.0832  0.2405
23897W        W39028   4.548   3.449   0.593  0.0891 -0.2991 -0.0269
23898W        W39029  14.283   7.663   2.718  0.0093  0.3759  0.1958
23899W        W39030  18.540  10.710  11.627 -0.2685  0.0255  0.2934
23900W        W39031  18.638   9.526   3.405 -0.0352 -0.1081  0.0756
23901W        W39032   0.957  13.974   5.069  0.0259  0.0177  0.0856
23902W        W39033   8.871   8.382   1.812 -0.0009  0.0107 -0.1136
23903W        W39034  17.391  11.699   1.208 -0.2832 -0.3502 -0.0805
23904W        W39035  14.635   0.149  15.540  0.1136 -0.1752  0.1043
23905W        W39036  10.740  15.037   3.625  0.0088 -0.2095 -0.1409
23906W        W39037   0.525  18.444  14.870  0.3373 -0.0050 -0.3817
23907W        W39038   3.261  18.519  13.516  0.1392  0.0211  0.0350
23908W        W39039  11.045   2.820  12.735  0.0912  0.1783  0.0724
23909W        W39040   4.585  13.067   1.526 -0.1509 -0.1067  0.0838
23910W        W39041   7.700   9.456   0.860 -0.0693  0.1897 -0.1447
23911W        W39042  16.309  14.072  10.875 -0.2346 -0.0008  0.1067
23912W        W39043   8.948   8.863   1.540 -0.2846 -0.4649  0.2338
23913W        W39044  15.451   6.379   3.590 -0.2583  0.1520 -0.2448
23914W        W39045  12.269  17.905  12.605  0.0225  0.0325  0.2034
23915W        W39046   5.550  11.355   0.158  0.1990  0.2229  0.0813
23916W        W39047  18.269   5.256   1.490 -0.1739  0.0258 -0.1178
23917W        W39048  17.294   7.223  15.551 -0.0434  0.1927 -0.0087
23918W        W39049  12.154  10.006   2.900 -0.1601 -0.0953 -0.0066
23919W        W39050   5.437   0.233  14.745 -0.0755 -0.3091  0.1396
23920W        W39051   9.710   3.612   3.629  0.3463 -0.1156  0.1387
23921W        W39052  14.408  16.014  10.227  0.0134 -0.1461 -0.0075
23922W        W39053  11.563  13.864  14.519  0.1913 -0.1856 -0.2683
23923W        W39054   2.499  16.699   0.662 -0.1934  0.1324 -0.0169
23924W        W39055  16.729  15.612  12.824  0.2551  0.1152 -0.1325
23925W        W39056   2.480  18.498   1.339  0.0644  0.2193  0.2434
23926W        W39057   4.983   0.418  14.743  0.0865  0.2319  0.2464
23927W        W39058  17.173  11.068  13.861  0.0424  0.1617  0.0857
23928W        W39059  12.722  15.414  13.162 -0.0059 -0.0351  0.1194
23929W        W39060   0.500  16.564   5.033  0.0212  0.0176 -0.2398
23930W        W39061  13.643   7.732   3.338  0.0685  0.1002 -0.2466
23931W        W39062   6.327   8.691   5.107  0.3058 -0.2572  0.0943
23932W        W39063  13.610   0.141   2.851 -0.0467  0.0068 -0.0983
23933W        W39064  14.641   4.935  15.340 -0.0168 -0.0169 -0.1479
23934W        W39065   2.248  14.150   3.937  0.5001  0.1428  0.3349
23935W        W39066  15.157   7.116  10.958  0.0778  0.0935 -0.1828
23936W        W39067   9.199  17.290   0.796  0.2054  0.0700 -0.0378
23937W        W39068  16.486  11.487   3.544  0.1845 -0.0213 -0.4078
23938W        W39069  13.457  18.334   3.000  0.2793 -0.0708 -0.0367
23939W        W39070   9.436  18.576   2.251 -0.0584  0.0959 -0.0074
23940W        W39071  18.541  16.596   2.655 -0.0155  0.0925 -0.1065
23941W        W39072   4.147   3.891  12.388  0.1582 -0.1507 -0.5521
23942W        W39073  14.115   3.971  14.909  0.2540 -0.0676 -0.3506
23943W        W39074   6.209  18.455   5.879 -0.0681  0.2041 -0.0373
23944W        W39075   1.882   3.731   0.817  0.0188 -0.2164 -0.1668
23945W        W39076   2.441  18.063   2.648 -0.0283  0.1882  0.1992
23946W        W39077   6.734   4.007   1.382  0.1222 -0.0448  0.0881
23947W        W39078  13.303  17.158   4.340  0.2119  0.0689 -0.2644
23948W        W39079   2.367   6.047  10.820 -0.1707  0.1821  0.0993
23949W        W39080   4.447   3.858  11.962  0.1485  0.1592 -0.0656
23950W        W39081   0.021   0.906  13.177 -0.1603  0.1818  0.0959
23951W        W39082   0.679   4.232  15.335 -0.2193 -0.4973  0.0430
23952W        W39083   8.992  11.866  11.054 -0.0602  0.0477  0.0451
23953W        W39084  18.382  10.345   4.694 -0.3450 -0.3027 -0.4299
23954W        W39085   7.557   6.120   4.106  0.1851  0.1362 -0.1133
23955W        W39086   7.256   4.233   5.238  0.0065 -0.0857 -0.0263
23956W        W39087  18.334  12.832   0.367  0.3239 -0.1568  0.0919
23957W        W39088  14.365   2.719   4.410 -0.0883  0.1608  0.0091
23958W        W39089  16.833  16.909   1.149 -0.0471 -0.2639 -0.0406
23959W        W39090   7.386   3.916   0.525  0.1546 -0.1571  0.0083
23960W        W39091  13.296   6.461   0.429  0.1969  0.2368  0.1557
23961W        W39092   7.737  15.755  13.092  0.3257 -0.3279 -0.3549
23962W        W39093  16.075  11.038  11.987 -0.2192 -0.0145  0.2821
23963W        W39094  17.079   2.175   0.405  0.2254 -0.0883 -0.0564
23964W        W39095   3.657   2.408   5.859  0.1493 -0.0758  0.2108
23965W        W39096  13.981  12.890   0.077 -0.1085  0.1955 -0.2893
23966W        W39097   1.645  13.305  15.655 -0.1588  0.2076  0.0962
23967W        W39098  13.212   9.395   2.987 -0.0576 -0.2582  0.0784
23968W        W39099   9.186  13.113  14.209 -0.0344  0.0014 -0.0507
23969W        W39100   1.547   4.581  12.193 -0.2488  0.1977 -0.2370
23970W        W39101  10.160   1.223  11.550 -0.0338 -0.0646 -0.1109
23971W        W39102  18.615   9.390   1.749  0.0942 -0.2306  0.1449
23972W        W39103  17.837   5.796  15.432 -0.0464  0.0508 -0.0393
23973W        W39104   1.869  11.327   0.961 -0.2255  0.0765 -0.0573
23974W        W39105  11.949  11.589   2.041  0.2227 -0.1585 -0.0568
23975W        W39106   1.824   5.129  15.645  0.0302 -0.4382  0.4480
23976W        W39107  11.322  18.107   1.174  0.1852  0.1397  0.0541
23977W        W39108   1.027  14.652  13.603 -0.1401 -0.3059 -0.2124
23978W        W39109  13.639  18.700  15.229 -0.2592 -0.1271 -0.0484
23979W        W39110   5.746   9.950  12.417 -0.0200  0.0094 -0.2623
23980W        W39111   8.092   0.392  13.709  0.2513  0.2708 -0.1395
23981W        W39112  15.709   0.284   1.991 -0.2451  0.1815  0.3319
23982W        W39113   9.200  13.072  15.615  0.1919 -0.2695 -0.6861
23983W        W39114   9.268  14.916   2.070  0.1260  0.0809 -0.0927
23984W        W39115  10.119  15.268  14.960 -0.0741 -0.2516 -0.2579
23985W        W39116   8.042   5.158  15.138  0.2342  0.0634  0.1910
23986W        W39117   0.303   0.660   3.604 -0.1171 -0.0837 -0.1841
23987W        W39118   6.018   4.392   1.724 -0.2314 -0.1398 -0.3233
23988W        W39119   9.964  12.369  15.776  0.4993  0.1813 -0.0149
23989W        W39120   3.571  12.034  14.562  0.2365 -0.1938 -0.3604
23990W        W39121  11.963   2.424  15.149 -0.1337  0.0343 -0.0158
23991W        W39122   9.644   9.841   3.293  0.1266 -0.0068 -0.0736
23992W        W39123  12.757   7.994   2.547  0.0497  0.1570  0.2551
23993W        W39124   4.822  15.624   2.800  0.0998  0.0822  0.0111
23994W        W39125  16.037   4.209   0.392  0.0910 -0.3670 -0.1822
23995W        W39126  12.415   6.781  10.016 -0.3587 -0.0353  0.0857
23996W        W39127   8.550   0.791   3.880  0.0614  0.0472  0.0965
23997W        W39128  18.017  13.577  14.080 -0.1524  0.1662 -0.1092
23998W        W39129   6.997   5.263  12.570 -0.0900  0.2450 -0.0808
23999W        W39130  11.630   2.589   0.425  0.1420 -0.3526 -0.1237
24000W        W39131  18.005  15.912   3.995  0.0669 -0.1434 -0.2061
24001W        W39132   6.686  13.772  11.548 -0.1718  0.2474 -0.0324
24002W        W39133   0.793   0.348   4.452  0.1482 -0.0339  0.5726
24003W        W39134   3.933   8.870  12.823 -0.0647  0.2152  0.2130
24004W        W39135   7.117   7.058  13.288  0.3850 -0.2355 -0.1636
24005W        W39136  13.083   5.359   2.738 -0.1845  0.0660 -0.1682
24006W        W39137  18.126  13.584  11.019 -0.0512 -0.2808 -0.0370
24007W        W39138   4.440  16.920   3.611  0.0763 -0.0122 -0.1079
24008W        W39139   0.257   5.155  11.360  0.3412 -0.1282  0.1322
24009W        W39140   8.680  15.506  15.219 -0.0254  0.0499  0.1405
24010W        W39141   4.257   9.981  10.296  0.1551 -0.1605  0.4025
24011W        W39142  12.599   6.049   4.369  0.4512  0.0767  0.0906
24012W        W39143   2.797  12.816  12.712 -0.0683 -0.0574 -0.1517
24013W        W39144  18.688   1.072   0.486  0.1992 -0.2060  0.2549
24014W        W39145   1.341   4.430   3.914  0.2047 -0.0857 -0.3530
24015W        W39146  13.810   8.705  14.663 -0.0426  0.1125  0.0618
24016W        W39147   5.632  18.247  13.486  0.1599  0.0424 -0.4111
24017W        W39148  13.573   2.515  15.129 -0.1197 -0.1335 -0.4091
24018W        W39149  15.488   1.998   3.226 -0.3047  0.0469  0.0880
24019W        W39150   8.266  16.666  11.612  0.1191 -0.1148  0.1909
24020W        W39151   3.775   3.875   2.600 -0.0216 -0.0244  0.3562
24021W        W39152   6.816  15.015  15.644  0.2977  0.0648  0.6203
24022W        W39153  16.769  10.087   0.590  0.0097  0.0965  0.0666
24023W        W39154   4.968  12.086   0.608 -0.0668 -0.0663  0.1183
24024W        W39155  13.264  14.796   3.959 -0.0216 -0.0968 -0.0669
24025W        W39156  12.958   3.840  12.706  0.0637  0.1289  0.2368
24026W        W39157  15.050   1.330  14.562 -0.1474  0.0852  0.0949
24027W        W39158  10.362  17.346   1.554  0.1366  0.2116 -0.0862
24028W        W39159  13.532  11.692   4.873 -0.1950  0.0521  0.3354
24029W        W39160   1.732  11.473  14.287 -0.1664  0.0486  0.0355
24030W        W39161  13.096   4.205  10.084  0.0853  0.0565 -0.2563
24031W        W39162   3.358   7.681   3.154  0.3118 -0.3317  0.1349
24032W        W39163  16.178   4.379   2.022  0.0233 -0.2705 -0.2027
24033W        W39164   5.425   3.644  12.381 -0.0399 -0.2069  0.1368
24034W        W39165   0.046   5.091   2.768  0.0903  0.1653  0.0439
24035W        W39166   6.224  13.987   0.691 -0.2709  0.3280 -0.1935
24036W        W39167  10.803   7.461  14.279 -0.1155  0.2595  0.3706
24037W        W39168   7.345  15.195   4.833 -0.4285 -0.1237 -0.3085
24038W        W39169   6.107   2.679  13.489 -0.2088  0.3130 -0.3260
24039W        W39170   4.184   2.228   5.747  0.2191  0.1573  0.0885
24040W        W39171   9.072   2.234   5.228  0.2526 -0.0258 -0.0964
24041W        W39172   0.937   5.727  10.701 -0.0471 -0.3403 -0.1475
24042W        W39173   1.419   3.267   3.599  0.2939  0.4198  0.2768
24043W        W39174  13.096   0.020   2.898 -0.2008  0.0324  0.1609
24044W        W39175  17.893   4.199  10.925 -0.3166 -0.1663  0.0041
24045W        W39176   4.940  17.811   0.650 -0.0876  0.0878  0.0173
24046W        W39177  16.374  10.110   1.362 -0.0344  0.0103  0.3217
24047W        W39178   0.664   7.349  12.733 -0.0985  0.0498 -0.2440
24048W        W39179  16.102   2.513  12.722  0.0158 -0.4174  0.1275
24049W        W39180   3.969  16.224   3.673 -0.1624 -0.0280 -0.0072
24050W        W39181   5.655  17.700  14.626 -0.0039 -0.1005  0.0358
24051W        W39182  16.921   6.704   4.091 -0.0323  0.0650  0.2015
24052W        W39183  10.175  10.773  15.743  0.0770  0.1512  0.0760
24053W        W39184  17.637  18.109  14.947 -0.0928 -0.0180  0.1576
24054W        W39185  17.752  14.881   0.573 -0.1133  0.0313 -0.1076
24055W        W39186  10.392   0.505   2.873  0.2488  0.4070  0.2646
24056W        W39187   1.795  13.559  14.454 -0.1419  0.0935 -0.1772
24057W        W39188   0.976   7.435  13.407 -0.2325 -0.2533  0.0626
24058W        W39189  15.158   5.922   5.917 -0.3006  0.1492 -0.0456
24059W        W39190  14.853  14.875  13.077 -0.1830 -0.0103  0.2530
24060W        W39191  12.125  14.304   1.649  0.1427  0.0996 -0.0878
24061W        W39192  15.572   4.187  10.854 -0.0320  0.2172 -0.0154
24062W        W39193   9.557   0.019   0.942 -0.3011  0.0432 -0.0863
24063W        W39194  10.073   7.322   2.158  0.1129 -0.0986 -0.1933
24064W        W39195  10.664   7.314   4.245 -0.3201 -0.2316  0.3946
24065W        W39196  11.485  14.821  15.768  0.2505  0.5396  0.2360
24066W        W39197   0.979  15.209   0.704  0.1389  0.2553  0.0817
24067W        W39198   9.964  16.692  15.441  0.1623 -0.0307  0.0395
24068W        W39199  15.214   3.556  14.268  0.0510 -0.0604  0.3720
24069W        W39200   7.681  15.788  13.849  0.1242 -0.0055  0.1874
24070W        W39201  11.156   0.442   4.548  0.1560  0.2204 -0.1431
24071W        W39202   6.368  15.296   3.644 -0.1063 -0.1678 -0.1433
24072W        W39203   9.494  16.959   1.992 -0.3327  0.1247 -0.2152
24073W        W39204   2.288   5.486   0.916 -0.0468  0.1940  0.1000
24074W        W39205   9.770   1.067   5.015  0.0686 -0.1246 -0.0951
24075W        W39206   3.092  15.749   5.109  0.0999 -0.0403 -0.2222
24076W        W39207   7.400   3.390   5.205 -0.1769  0.1649 -0.0651
24077W        W39208   5.948  11.079  15.675  0.0310 -0.3062  0.1826
24078W        W39209  13.320   9.491   2.524 -0.2206  0.1730  0.1443
24079W        W39210   3.505   9.813   3.734 -0.1717 -0.1881 -0.2755
24080W        W39211   6.602  16.486  12.205 -0.3643 -0.0536  0.1070
24081W        W39212   8.890   9.551  11.372  0.0112  0.0939  0.2253
24082W        W39213   6.728  13.015  11.646 -0.0985 -0.0350  0.2085
24083W        W39214   1.935   9.029  14.637 -0.1526 -0.1280 -0.0487
24084W        W39215   0.835   9.127  12.518  0.2194 -0.4376  0.1643
24085W        W39216  11.172  11.979   9.164  0.0615 -0.0923  0.1171
24086W        W39217   1.552   9.245  11.153 -0.2628 -0.1939  0.2865
24087W        W39218   5.942  15.550  11.666 -0.0781 -0.2478 -0.1304
24088W        W39219  13.839   4.136   1.097 -0.2649 -0.2268 -0.1892
24089W        W39220   6.973  12.791   0.688 -0.0037  0.1269  0.1478
24090W        W39221  13.018  10.710   1.647  0.4795 -0.0833  0.0362
24091W        W39222   5.318  13.249   4.524 -0.2860  0.2799  0.1625
24092W        W39223   7.856   9.703  13.691  0.1285  0.2425 -0.3309
24093W        W39224   6.896   7.851  15.411 -0.0048 -0.0391  0.0336
24094W        W39225  18.616  10.246  14.844 -0.0960  0.3378  0.0053
24095W        W39226   4.245   6.900  14.866 -0.1475 -0.0999 -0.1676
24096W        W39227  12.109  18.326  11.900  0.1050  0.3179 -0.3709
24097W        W39228   6.914   9.217   3.828 -0.0433  0.3301  0.2556
24098W        W39229   1.476   7.520   5.066  0.0400  0.0577  0.2452
24099W        W39230   3.501  11.948  13.065 -0.1930 -0.2914  0.1043
24100W        W39231   3.220   0.910  13.498  0.3103  0.0775  0.2737
24101W        W39232  15.806   4.707  13.624  0.0206  0.0237  0.4454
24102W        W39233   3.048  17.104   0.340 -0.0396 -0.0438 -0.0018
24103W        W39234   3.911  15.152   1.726 -0.1216 -0.1331  0.2513
24104W        W39235  14.858   8.980   1.785  0.1451 -0.2380  0.0860
24105W        W39236  13.617   8.742   3.249 -0.1208 -0.1631 -0.0071
24106W        W39237   0.962   7.339  11.276  0.0802 -0.0059 -0.1489
24107W        W39238  10.023   2.826  14.795  0.1586 -0.2013  0.0559
24108W        W39239   6.178  10.621   0.165 -0.2297  0.2507  0.3892
24109W        W39240   7.422  16.866  12.660 -0.1214  0.4753  0.0342
24110W        W39241   7.634   0.171  15.309  0.2644 -0.0566 -0.1494
24111W        W39242  15.522   8.578   4.022  0.0677 -0.0432  0.1330
24112W        W39243  10.121  11.558   4.823  0.2924  0.3628 -0.1524
24113W        W39244   1.408  15.383   1.031  0.1384 -0.1448 -0.0772
24114W        W39245   4.942   2.738  15.606 -0.1195  0.2081  0.0762
24115W        W39246  18.651  17.263  14.318 -0.1342  0.3336 -0.3598
24116W        W39247  10.862   5.824   0.377 -0.3558 -0.1350 -0.2870
24117W        W39248  15.062  10.947  10.933 -0.1886  0.1687 -0.0283
24118W        W39249   6.367   2.066   4.839  0.0659  0.0081  0.0291
24119W        W39250  11.611  15.376   1.079  0.1558  0.3508 -0.0959
24120W        W39251   7.391   0.573  15.493  0.0132 -0.0434 -0.3871
24121W        W39252  13.148   7.629   9.528 -0.0516 -0.1790 -0.2785
24122W        W39253  14.727   0.670  10.593 -0.1217  0.1465  0.1544
24123W        W39254   6.641   1.095   3.881  0.3492 -0.3554  0.2813
24124W        W39255   9.282   1.911  10.193 -0.1579  0.0073  0.3502
24125W        W39256   0.663  10.579   3.050  0.0430  0.1729  0.0446
24126W        W39257  13.750  16.158   2.678 -0.0766  0.3077  0.1296
24127W        W39258   7.179   8.160   1.812 -0.1019  0.0056 -0.3345
24128W        W39259  13.692   4.355   5.764 -0.1091 -0.0947  0.0066
24129W        W39260  15.893  18.049  13.393 -0.1345 -0.2211 -0.2791
24130W        W39261  15.327  16.291   1.462  0.1570  0.0478 -0.0493
24131W        W39262  11.607  17.997  10.514  0.6122 -0.1774  0.4440
24132W        W39263   1.083  10.781   2.588  0.0288  0.0591  0.2523
24133W        W39264   6.908  18.301   4.744  0.1739 -0.0227 -0.2093
24134W        W39265   7.110   5.004  10.059  0.3021  0.3581 -0.1999
24135W        W39266  10.846  12.186  13.560  0.1890 -0.3339  0.2017
24136W        W39267  14.484   9.352  13.988 -0.0468 -0.0736 -0.0335
24137W        W39268   6.698   4.714  13.348  0.2239 -0.2239 -0.1402
24138W        W39269   2.193  12.564  10.152 -0.0940  0.0993 -0.0504
24139W        W39270   5.915  12.114   4.930  0.0865  0.2740  0.4043
24140W        W39271   7.720   1.155   4.726  0.2764  0.2206 -0.0549
24141W        W39272   2.733   9.909  12.197  0.0663  0.1571  0.0973
24142W        W39273   4.489   6.209  12.967 -0.1160  0.1657  0.0688
24143W        W39274   2.242  15.616  11.126  0.2404 -0.1317  0.3562
24144W        W39275  17.366  16.056   1.909  0.1970 -0.0317 -0.3154
24145W        W39276   4.538   1.884  15.488  0.0751 -0.0376  0.3889
24146W        W39277   4.816  13.341   3.810  0.0872 -0.2703  0.2317
24147W        W39278  10.571   4.757   9.943  0.1449  0.6800  0.0212
24148W        W39279   3.414   0.043   0.445 -0.1236 -0.2740  0.1068
24149W        W39280  16.135  11.720   5.033  0.0359  0.2232 -0.0094
24150W        W39281   3.336   3.563  12.152  0.0872 -0.2257 -0.1657
24151W        W39282  17.687   3.043  11.422  0.0326 -0.1290  0.0150
24152W        W39283   8.525   9.893  10.039  0.0828 -0.0160  0.3648
24153W        W39284   4.208  10.697   6.314  0.3375 -0.0581  0.2961
24154W        W39285  11.194  16.043   2.199 -0.0932  0.0164 -0.1649
24155W        W39286   9.771   2.980   1.195 -0.1940  0.1841  0.0978
24156W        W39287  14.010   1.701  12.325  0.2036 -0.0839  0.0808
24157W        W39288   2.644   8.663   5.196  0.1377  0.1268 -0.1410
24158W        W39289  10.876  16.908   0.737  0.1656 -0.0517 -0.0782
24159W        W39290  15.973  13.956  11.833  0.0331 -0.2398 -0.1281
24160W        W39291  14.605   4.581   3.108  0.2008 -0.1406  0.2914
24161W        W39292   7.133  14.191   5.828  0.0691  0.4153  0.1580
24162W        W39293   7.811  14.054  11.215  0.0228 -0.1986 -0.1700
24163W        W39294   9.337   2.857  11.781  0.2440 -0.2592  0.2366
24164W        W39295  12.219  17.155  13.139 -0.0515 -0.2753  0.1569
24165W        W39296  16.046  17.505   5.010  0.0978  0.1833  0.0550
24166W        W39297   2.296  18.645   0.783  0.1407 -0.0910 -0.2434
24167W        W39298   7.926  14.096  12.337  0.3250 -0.0038  0.1966
24168W        W39299   2.377  12.678   0.122 -0.1345 -0.1105  0.1258
24169W        W39300   5.086   9.025   3.376 -0.2197  0.4018 -0.0373
24170W        W39301   0.907  10.441  12.091 -0.4111 -0.2196 -0.0013
24171W        W39302  14.648  15.326  15.004  0.1863 -0.0897 -0.0590
24172W        W39303  17.913  11.005   2.986  0.3211  0.2497  0.0459
24173W        W39304  14.690  10.086  11.135  0.0043 -0.2771 -0.1843
24174W        W39305  11.903   9.631   5.259  0.0287 -0.0112  0.0965
24175W        W39306   7.075  18.301   1.263  0.1128  0.0781 -0.0578
24176W        W39307   6.155   5.701   4.276 -0.4176  0.1404  0.2879
24177W        W39308   0.741  12.863   9.848 -0.0773  0.2872  0.1203
24178W        W39309   7.208  12.470   4.511 -0.1246 -0.0200 -0.0523
24179W        W39310   7.702  14.122  11.758 -0.1470 -0.2052 -0.0814
24180W        W39311  10.457   6.330  12.072 -0.1105 -0.1433 -0.1340
24181W        W39312  16.093   2.924   2.306  0.0444 -0.0736  0.0231
24182W        W39313   7.727  14.751  11.525 -0.1055 -0.2246 -0.1369
24183W        W39314   8.323   9.074   2.959  0.1927  0.2776  0.0218
24184W        W39315  13.382  17.857  12.756  0.0498 -0.1059 -0.0536
24185W        W39316  10.008  13.321  12.261  0.2009  0.2445 -0.0238
24186W        W39317   3.112   4.649  15.772 -0.1417 -0.2287  0.1229
24187W        W39318   4.636  11.155   4.548  0.4040 -0.1605 -0.0581
24188W        W39319  15.389   1.337   5.079 -0.1925  0.1873 -0.0274
24189W        W39320  14.651   6.858  10.869 -0.1183 -0.0149  0.2423
24190W        W39321  13.170  11.931   5.115  0.3246  0.1368 -0.2294
24191W        W39322  18.232   3.468  15.536 -0.1334 -0.2662 -0.0311
24192W        W39323  12.591  17.800   1.685 -0.0070  0.0300  0.2365
24193W        W39324  11.454  14.536   2.736 -0.1007  0.1391 -0.3114
24194W        W39325   9.719  16.785   1.549 -0.4244 -0.0257  0.1380
24195W        W39326   9.790   2.850  14.287 -0.1521  0.1142 -0.1650
24196W        W39327   0.719  12.291   5.056  0.0928 -0.2303  0.1559
24197W        W39328  12.724  14.229   3.143 -0.0156  0.2122 -0.3255
24198W        W39329   4.869   0.733   0.232 -0.0796 -0.5694 -0.2017
24199W        W39330  10.539  10.018   3.625 -0.0006 -0.3109  0.2207
24200W        W39331  18.619   9.253   1.218  0.1838  0.0542  0.1277
24201W        W39332   5.048  13.654   5.278 -0.0289  0.2297  0.0746
24202W        W39333   1.275  12.367   5.706 -0.4108  0.5464 -0.1335
24203W        W39334   9.403  17.709  10.398 -0.0186 -0.1863 -0.4034
24204W        W39335   7.026  10.761  10.689  0.0943 -0.2253  0.1376
24205W        W39336  18.248   5.558   2.246  0.4970 -0.0509 -0.4804
24206W        W39337   6.274  13.334  15.690  0.0377  0.0708 -0.0891
24207W        W39338  15.038   9.910  14.970  0.0756  0.3088 -0.2285
24208W        W39339  13.513   9.816   1.420 -0.0093  0.0202 -0.0058
24209W        W39340  13.221   2.847  12.297  0.6697  0.0093 -0.1624
24210W        W39341  17.963   1.075  12.981 -0.1903 -0.2969 -0.2601
24211W        W39342  12.510  15.677   0.945 -0.0161  0.0801 -0.3783
24212W        W39343  17.668   0.028  14.040 -0.1920 -0.0380  0.0065
24213W        W39344   3.618   8.961  11.491  0.1099  0.2369  0.0321
24214W        W39345   5.613  18.277  14.831  0.1020 -0.0250 -0.1355
24215W        W39346   4.841   8.065   2.846  0.1767  0.1048  0.1384
24216W        W39347  13.430  17.070  13.313 -0.0420  0.1371  0.0340
24217W        W39348  11.230   6.029   2.199 -0.0562 -0.1241  0.0925
24218W        W39349   2.001   8.403  13.380  0.3272 -0.2051 -0.1946
24219W        W39350   0.875   7.183   5.813 -0.1262 -0.1464  0.1128
24220W        W39351   6.219   0.005  13.990  0.0550 -0.0630  0.1739
24221W        W39352   1.002   3.200   3.955  0.0881 -0.1095  0.0292
24222W        W39353   2.803  13.368  12.077 -0.3090 -0.1892 -0.0860
24223W        W39354   1.798   4.633   3.984  0.1922  0.1733 -0.0469
24224W        W39355  14.754  15.090  13.490  0.4457 -0.1244  0.0989
24225W        W39356   0.648  18.414   0.721 -0.2800  0.2906 -0.0129
24226W        W39357   8.220   7.764   0.762  0.2072 -0.0142 -0.3610
24227W        W39358  12.355  11.089  11.978  0.1863 -0.1631 -0.1238
24228W        W39359   2.485  12.129   1.187  0.1553  0.1708  0.0180
24229W        W39360   1.829  15.096   5.075  0.0183  0.0719 -0.2248
24230W        W39361  15.814   4.937   4.494 -0.2987 -0.0115 -0.1159
24231W        W39362  18.489  17.104  10.583 -0.0717 -0.0155  0.1953
24232W        W39363   4.918  11.505   3.464 -0.0437  0.2618  0.0051
24233W        W39364  13.100   3.338  11.223 -0.2117  0.0699 -0.0059
24234W        W39365  16.508   0.548   3.118  0.1106 -0.3659 -0.0413
24235W        W39366   3.208   8.737   0.708 -0.4344 -0.1424 -0.1250
24236W        W39367  15.938  17.931  15.241 -0.2763 -0.4592  0.0676
24237W        W39368  11.402  12.882  13.646 -0.2957 -0.0690  0.1321
24238W        W39369  13.474   6.512  12.129  0.0904  0.2196  0.0692
24239W        W39370   3.781  15.740  14.516 -0.0510 -0.1797  0.3563
24240W        W39371  12.775  17.866   0.003 -0.0437 -0.1965 -0.2026
24241W        W39372  13.034  18.635  12.105  0.1412  0.2377 -0.0351
24242W        W39373  18.724  13.949  13.466 -0.0650  0.0765  0.0181
24243W        W39374  10.152   1.216  12.628  0.1349 -0.2149  0.0393
24244W        W39375  13.532  11.161   2.394 -0.0555  0.0250  0.0282
24245W        W39376   3.545   3.625   3.083  0.0034  0.2643  0.1444
24246W        W39377  13.714  15.391   1.229 -0.2870 -0.3131  0.0926
24247W        W39378   6.832  12.947  13.599  0.1124 -0.0549 -0.1879
24248W        W39379   1.324  15.685  11.211  0.2964  0.4645  0.0536
24249W        W39380   6.698   4.911   2.029  0.2183 -0.1640  0.3702
24250W        W39381   7.605  14.025  15.215 -0.2001 -0.0424  0.0219
24251W        W39382  14.280   5.637   0.788 -0.1623 -0.4322  0.2913
24252W        W39383  17.709   0.551   1.089 -0.1904  0.1947  0.0307
24253W        W39384  14.860   9.161   4.386 -0.2155 -0.0655  0.2477
24254W        W39385   3.119  15.364  15.791 -0.2522  0.0366  0.4800
24255W        W39386   2.519   6.236  11.313 -0.3606  0.2603 -0.1309
24256W        W39387   2.719  10.434  10.887 -0.2394  0.2410  0.0979
24257W        W39388  13.442   1.069  11.865  0.1944  0.1055 -0.0097
24258W        W39389   5.066   4.542  11.788  0.1220  0.4665 -0.2264
24259W        W39390   2.404   3.347   3.614  0.1391  0.4170  0.0354
24260W        W39391  16.614   4.901   0.810 -0.1120 -0.1882 -0.1169
24261W        W39392  13.368   3.482   5.543 -0.2690 -0.2966  0.2607
24262W        W39393   7.801  16.748   1.692 -0.0135  0.0585 -0.0285
24263W        W39394  13.852  17.504  15.747  0.2420  0.0322  0.3010
24264W        W39395  11.323   4.536  15.334  0.1093 -0.0179 -0.4101
24265W        W39396  15.052  16.041  12.891 -0.0981 -0.2663  0.0736
24266W        W39397  15.541  14.511   0.438  0.2115 -0.0609  0.0153
24267W        W39398  16.489  11.340  13.473  0.1186 -0.0587  0.0090
24268W        W39399   0.283  11.103   1.492 -0.0134 -0.1499 -0.0826
24269W        W39400   8.357  18.662  10.928 -0.3686 -0.1122 -0.4039
24270W        W39401   0.898  11.480   5.510  0.1826  0.1399 -0.1592
24271W        W39402   8.074  16.324  15.747 -0.0198 -0.2247  0.0003
24272W        W39403   5.407   4.950   1.000  0.1110  0.3169 -0.1346
24273W        W39404  17.516  15.871   1.473 -0.1203 -0.2214  0.0138
24274W        W39405   3.631  17.011   1.198  0.1852 -0.2489 -0.0943
24275W        W39406   8.445  14.597   1.380 -0.0899 -0.2251 -0.0711
24276W        W39407   8.816   3.735  15.084  0.2568 -0.1109 -0.1340
24277W        W39408  17.446   8.917   3.340  0.0314  0.0682 -0.1621
24278W        W39409  10.761  11.582   2.818 -0.2108 -0.1239 -0.2148
24279W        W39410   1.134   2.851   5.085 -0.0626 -0.3597  0.0974
24280W        W39411   7.895  13.361   4.730  0.0117  0.1263 -0.0976
24281W        W39412   4.100   7.782   1.028 -0.0815 -0.1790 -0.0768
24282W        W39413   8.255   4.125   4.374  0.3006 -0.2042 -0.0403
24283W        W39414  16.268   2.727   4.021 -0.0497  0.2738 -0.3172
24284W        W39415  17.314   2.943   1.592  0.0515 -0.1225  0.1604
24285W        W39416  14.058  17.867  13.567  0.3801 -0.1106 -0.2348
24286W        W39417  17.374  12.316  14.315  0.0122  0.1164  0.1718
24287W        W39418  12.839  10.177   5.818  0.1006 -0.0250 -0.0284
24288W        W39419  14.098   5.555  15.512 -0.0227 -0.0520  0.2357
24289W        W39420   2.798   1.242   4.426 -0.1046  0.1343 -0.2227
24290W        W39421  14.510   8.837  11.295 -0.0388  0.2270  0.1264
24291W        W39422  16.709   2.818  12.848  0.1903  0.0879  0.0405
24292W        W39423  13.489   1.811   0.513  0.0289  0.2912 -0.0404
24293W        W39424  12.227  17.384  12.228  0.0169 -0.1213 -0.0441
24294W        W39425  13.828   1.845  13.355 -0.4741 -0.2008 -0.2338
24295W        W39426  11.627   2.548   2.073 -0.0555 -0.0336  0.0374
24296W        W39427   1.910  15.072  12.317  0.1965  0.0444 -0.1570
24297W        W39428   4.753  13.803   1.077 -0.0800  0.0810  0.1149
24298W        W39429  11.936  18.631  11.573  0.0411  0.0348  0.3199
24299W        W39430  10.983   4.614  12.084  0.1744 -0.1654  0.1609
24300W        W39431   4.667   1.837  11.720 -0.0701 -0.2153 -0.1943
24301W        W39432   4.100   8.819   0.906  0.1013  0.2717  0.0437
24302W        W39433   0.964   1.898  11.435 -0.1564  0.2609 -0.1788
24303W        W39434   8.633   3.087  12.370  0.1323 -0.0712  0.0348
24304W        W39435   8.137   6.361   5.236  0.0474 -0.1760  0.1947
24305W        W39436   5.926   5.199   5.005 -0.1684 -0.2386  0.1472
24306W        W39437  14.556  17.632  13.484  0.1069 -0.0515  0.2851
24307W        W39438  18.420  16.285   3.876  0.2226 -0.0350 -0.1286
24308W        W39439   1.130   8.491   3.384  0.1923 -0.0602  0.0941
24309W        W39440  13.531   6.301   2.230  0.3190  0.0752 -0.3249
24310W        W39441   0.672   2.686  14.618  0.1566  0.1973 -0.0910
24311W        W39442   8.807   4.853   4.157  0.2784 -0.0198 -0.2863
24312W        W39443  17.007   1.394  15.078 -0.0604 -0.0536 -0.0474
24313W        W39444  15.749   3.116   3.780 -0.0638  0.1490  0.0730
24314W        W39445  13.681   9.976  13.152 -0.1811 -0.1617 -0.1661
24315W        W39446   8.209   6.241   4.754 -0.0082 -0.1295  0.1193
24316W        W39447  11.714  15.617   1.558  0.0319 -0.1472 -0.1259
24317W        W39448  10.300  15.187  12.200 -0.0547 -0.1013 -0.1025
24318W        W39449  14.364  15.391   4.845  0.1477 -0.0907 -0.0574
24319W        W39450  15.236  13.259  13.414 -0.1439 -0.1720  0.1359
24320W        W39451   2.451   3.187  11.861  0.0998 -0.0654  0.0448
24321W        W39452   8.530  15.523  15.678  0.2097  0.1460 -0.2641
24322W        W39453   4.045  13.153  13.460  0.2282  0.1059  0.0618
24323W        W39454  10.724   6.836  15.501  0.3540  0.0519 -0.1760
24324W        W39455  15.186  11.377   4.514  0.5691 -0.1714 -0.0929
24325W        W39456   7.075   0.478   1.862  0.1871 -0.0869  0.1484
24326W        W39457   2.209   4.098   2.749 -0.0194  0.0812  0.3476
24327W        W39458  18.233   0.556  11.289 -0.0719  0.1387 -0.1158
24328W        W39459  10.015   8.096   0.912  0.2342  0.4058  0.2144
24329W        W39460  18.393   0.456  13.444 -0.0804 -0.2784 -0.3563
24330W        W39461   0.453  12.337  12.770 -0.3886  0.0148 -0.1414
24331W        W39462  13.050  16.347   9.427  0.2198  0.1014 -0.1808
24332W        W39463  12.387  16.061  12.732  0.1723  0.2358  0.1009
24333W        W39464  15.947   9.586   5.142 -0.0614 -0.1081  0.0349
24334W        W39465   1.574  14.075  11.330 -0.0275  0.3565 -0.1256
24335W        W39466   4.468  11.035   2.784  0.0155  0.0962 -0.1851
24336W        W39467   3.463  13.634   5.265  0.2275 -0.0759 -0.2741
24337W        W39468   3.762  16.284   9.759 -0.3609  0.1616  0.2887
24338W        W39469   9.034   4.409  14.111  0.3241 -0.0513 -0.1770
24339W        W39470   5.098   4.324  12.649  0.2860  0.2113 -0.4399
24340W        W39471   3.062  14.281   2.915  0.0983 -0.0150  0.3093
24341W        W39472   9.645   7.628  12.959 -0.1698 -0.0579 -0.0826
24342W        W39473  16.706   4.009  13.613 -0.0292  0.1860 -0.1513
24343W        W39474   7.822   9.667  14.371 -0.1875 -0.1282  0.2505
24344W        W39475  11.423  14.154  15.369  0.1469  0.1657  0.0392
24345W        W39476   0.508  13.774   4.878  0.0984 -0.4145 -0.1822
24346W        W39477  12.033   9.100   9.544 -0.1460 -0.1556  0.1128
24347W        W39478   1.338   5.303   0.750  0.2949  0.3444 -0.1118
24348W        W39479  10.467  13.170  10.466 -0.0363  0.4669  0.3420
24349W        W39480  16.050   7.226   4.636  0.3378  0.1975 -0.4325
24350W        W39481   5.417  13.065  11.738 -0.1812 -0.0812  0.2349
24351W        W39482  11.402   5.638   2.644  0.2793  0.0562 -0.2034
24352W        W39483  11.601   8.492   4.687  0.2679  0.1409  0.1557
24353W        W39484   7.894   8.252  13.848 -0.0402 -0.0469  0.2514
24354W        W39485   9.113  10.529   2.128 -0.0694  0.0046 -0.1259
24355W        W39486   7.117   4.510  12.281 -0.1463 -0.1230 -0.1819
24356W        W39487  18.544   8.150   0.590 -0.1697  0.0876 -0.2188
24357W        W39488   8.026   3.391   0.379 -0.3626  0.0570  0.1837
24358W        W39489  12.007   6.836  11.924  0.0464  0.3246 -0.0692
24359W        W39490  15.721  17.556  14.239 -0.3503  0.1394 -0.0384
24360W        W39491  13.261   3.797   9.651 -0.1345 -0.1678 -0.0748
24361W        W39492  10.765   2.775   3.657  0.0860  0.2553  0.0045
24362W        W39493  15.069  15.829   4.250 -0.0189  0.1780 -0.2929
24363W        W39494   0.604  17.444  13.781 -0.1017 -0.3053  0.1184
24364W        W39495   3.518   8.809  14.053 -0.0008 -0.0372 -0.3914
24365W        W39496  15.065  14.792  15.639 -0.2385 -0.3990  0.0234
24366W        W39497  17.163  11.839   2.679 -0.0572 -0.2487  0.1626
24367W        W39498  16.434   3.228  11.637  0.0652  0.1615 -0.1065
24368W        W39499  10.564  14.356  13.490  0.1643 -0.0161  0.2156
24369W        W39500  12.872  18.223   4.626 -0.1593 -0.0834 -0.4651
24370W        W39501   7.351  14.357  14.453  0.2192 -0.0064 -0.0116
24371W        W39502   8.954   6.265   4.954 -0.2287 -0.0087 -0.0413
24372W        W39503   9.596   8.430  12.106 -0.0243  0.0224  0.0063
24373W        W39504  11.760  17.519  13.816 -0.3455 -0.2220 -0.2751
24374W        W39505   9.184   7.482  11.659  0.0289 -0.3960 -0.0480
24375W        W39506   1.877  12.790  13.672 -0.1841 -0.0828  0.1076
24376W        W39507   4.818   4.200   3.653 -0.1165  0.3833 -0.0859
24377W        W39508   9.708  14.579  13.495  0.1099 -0.2183 -0.2291
24378W        W39509  11.180   7.699  12.911 -0.0495  0.0474 -0.2559
24379W        W39510  17.098   6.546  14.143 -0.0588  0.1040  0.1319
24380W        W39511   6.138   4.601  13.363  0.1891 -0.1815 -0.1140
24381W        W39512   7.474  13.311   1.901 -0.2901  0.1629 -0.0189
24382W        W39513   5.378  17.493   4.580 -0.0388  0.5640 -0.2795
24383W        W39514  18.612  13.894  12.008 -0.0704  0.3206  0.1871
24384W        W39515  15.778  12.772  13.984  0.0086 -0.2073 -0.2113
24385W        W39516  10.316   9.899  10.088 -0.1783  0.0034  0.0829
24386W        W39517  15.044   1.955   0.914 -0.2028  0.0695 -0.0065
24387W        W39518   1.274   9.195  10.116  0.2813  0.1925 -0.0987
24388W        W39519   4.867   3.209   0.264  0.1042  0.1524 -0.1754
24389W        W39520   5.902  13.185  11.084  0.2139 -0.0079 -0.2571
24390W        W39521  11.710  16.904   4.291 -0.2595 -0.3085  0.3500
24391W        W39522   0.240   4.210   0.943  0.0237  0.5539 -0.0195
24392W        W39523   6.051  17.824   3.780 -0.0271 -0.1687  0.1329
24393W        W39524   7.754  14.977  15.395 -0.0621 -0.3096  0.0759
24394W        W39525   4.500   4.694   2.145  0.0936 -0.4448 -0.1586
24395W        W39526   7.592  11.043   9.696  0.0634  0.1674 -0.1127
24396W        W39527   6.124  10.048  15.184  0.1954 -0.0205 -0.1248
24397W        W39528  13.619   2.290   5.416  0.0857 -0.1191 -0.2639
24398W        W39529  13.498   3.448   1.083 -0.1578 -0.3424 -0.0067
24399W        W39530   0.071   3.396  14.306  0.1580  0.1648  0.0933
24400W        W39531   0.413   7.008   3.156  0.2121  0.3373  0.1801
24401W        W39532  10.612   6.905   2.879 -0.1443  0.0252  0.1081
24402W        W39533  14.669   1.840   1.293 -0.2917 -0.0052  0.0791
24403W        W39534  15.725  11.021  13.073  0.1679 -0.0738  0.0500
24404W        W39535  13.569  12.448   1.955  0.0675 -0.4253  0.2014
24405W        W39536   0.505   0.173   5.287  0.4961  0.2505  0.2208
24406W        W39537   1.805  16.576  13.583  0.3185  0.0463 -0.0701
24407W        W39538   6.809  11.195  11.231  0.0025  0.1479  0.1112
24408W        W39539  10.344  16.699   2.570  0.2205  0.1660 -0.2707
24409W        W39540   3.183   7.241  12.387 -0.2501 -0.0889 -0.1101
24410W        W39541  11.041   9.572   1.829  0.1537 -0.3449 -0.0276
24411W        W39542  15.835   2.332  13.775 -0.1510 -0.0074  0.0365
24412W        W39543   5.305  18.715   4.305 -0.0048  0.0604  0.1634
24413W        W39544   5.238  18.700   0.492  0.1588  0.1892 -0.0562
24414W        W39545   6.624   9.725  12.471  0.0553  0.4431 -0.3199
24415W        W39546   9.652  12.502   2.337  0.2861 -0.1302  0.2164
24416W        W39547  12.363  12.202   4.507 -0.2181 -0.1126  0.0834
24417W        W39548   6.799   5.165   0.703  0.0649 -0.3995  0.1300
24418W        W39549  14.558  10.293  12.878 -0.3023  0.1820  0.0493
24419W        W39550  14.249  18.400   1.166  0.1763  0.4415  0.0926
24420W        W39551   0.173   5.551  15.383  0.1091  0.0193 -0.0648
24421W        W39552  11.986   6.070  10.733  0.1570  0.2446 -0.4732
24422W        W39553   2.012  15.609  13.807  0.1296  0.5033 -0.0270
24423W        W39554   7.847   1.634   0.949  0.1668  0.2516  0.1026
24424W        W39555   1.635  17.577   0.193  0.3217 -0.1468  0.1011
24425W        W39556  11.167   0.274  15.112  0.1126 -0.0235  0.0181
24426W        W39557   5.904   4.627   5.290  0.0673  0.1559 -0.1101
24427W        W39558   7.281   1.632  10.164  0.1272 -0.1989  0.0724
24428W        W39559   6.704   6.381  12.991 -0.3803  0.0875  0.0601
24429W        W39560   3.369  12.082  14.066  0.0395  0.1929 -0.2469
24430W        W39561  15.826  18.431  10.880 -0.2185 -0.1876 -0.0161
24431W        W39562   7.934   8.865  14.470  0.1632  0.1067 -0.1607
24432W        W39563   9.884   8.789   2.651  0.0452  0.1670  0.1344
24433W        W39564  15.561  17.034   3.674  0.0282  0.2866 -0.1623
24434W        W39565  14.594  15.712   3.454  0.1982  0.1647  0.0077
24435W        W39566  10.549   1.885  10.121  0.1345 -0.2015  0.2886
24436W        W39567  11.001  13.619   0.277  0.1481  0.1757  0.0371
24437W        W39568   2.872   6.204   1.230 -0.0796 -0.0991 -0.2585
24438W        W39569   9.418   7.804   9.347  0.1045  0.2218 -0.4102
24439W        W39570   0.172   3.530  15.701  0.0052 -0.2557 -0.0749
24440W        W39571   1.027   5.812  12.829 -0.0105  0.1008 -0.2035
24441W        W39572  15.008   5.455   4.063 -0.2951  0.4220 -0.5225
24442W        W39573   3.380   1.438  13.470 -0.2580  0.1028 -0.0349
24443W        W39574  13.941  10.784   1.667 -0.2759 -0.2530  0.2248
24444W        W39575   2.037  13.777  12.081 -0.4754 -0.2079  0.0375
24445W        W39576   7.182   3.980   4.628 -0.1121  0.1442 -0.1449
24446W        W39577   0.196   3.040  10.966 -0.1399 -0.0491 -0.0542
24447W        W39578  10.153   3.614   0.210 -0.0624 -0.1532 -0.0230
24448W        W39579  12.525  14.586  12.520 -0.3062 -0.3545 -0.1940
24449W        W39580   4.780  14.880  12.162 -0.2993  0.0261  0.2838
24450W        W39581  10.980  14.754  14.953 -0.0067 -0.1129 -0.0105
24451W        W39582  10.774   7.705  11.771  0.1927  0.2511  0.3380
24452W        W39583   9.462  17.858  14.815  0.0719 -0.1676  0.2625
24453W        W39584  17.550  15.028  12.257  0.1385  0.1763 -0.0082
24454W        W39585  12.187   4.579   2.150 -0.1931  0.0244 -0.1892
24455W        W39586  16.220  17.602   3.529 -0.0212  0.1721 -0.0061
24456W        W39587   1.327  17.760   1.866  0.1681  0.0797 -0.2223
24457W        W39588  14.715   5.332   0.754  0.2228 -0.0683 -0.1311
24458W        W39589   3.811  16.261   0.218 -0.3657  0.0648 -0.4563
24459W        W39590   0.223  16.310   1.785  0.0375 -0.3506 -0.1087
24460W        W39591  18.456   9.436  14.396  0.1643  0.3369 -0.0001
24461W        W39592  16.245  14.455   1.018  0.1793 -0.2309  0.3730
24462W        W39593   8.677   4.075  11.633  0.0700  0.0254  0.1193
24463W        W39594   6.306   8.610  15.029 -0.2326 -0.1337  0.2536
24464W        W39595   9.687  11.707  11.494 -0.0246  0.0120  0.1321
24465W        W39596  11.947   0.762   2.925 -0.0438  0.0608  0.1387
24466W        W39597  11.595  11.890   2.126  0.3111 -0.1347 -0.0458
24467W        W39598   3.244  11.976   4.469 -0.2176 -0.0245 -0.0012
24468W        W39599  11.488  11.503  15.613 -0.1868 -0.2580  0.0748
24469W        W39600  11.696   1.147  11.106  0.2948 -0.2226  0.0208
24470W        W39601  10.837  12.573   1.298  0.1181  0.1366 -0.1139
24471W        W39602  14.187  11.117  15.457  0.0294 -0.0123  0.0718
24472W        W39603  15.386   8.853   0.856  0.1673  0.0962  0.0768
24473W        W39604  14.184  13.038   4.517  0.0791 -0.0864 -0.0622
24474W        W39605  18.178   1.532  13.018 -0.0083  0.1453 -0.1327
24475W        W39606  16.455  10.112   3.294  0.3539 -0.3184  0.1784
24476W        W39607   6.863  10.777   1.695 -0.0311 -0.0071 -0.2712
24477W        W39608  15.249  18.501  14.673  0.1398 -0.3246 -0.0232
24478W        W39609   7.809   4.507   2.670 -0.4046  0.1250  0.2274
24479W        W39610  15.419  13.262   2.657 -0.0482  0.1517  0.1618
24480W        W39611   3.924   0.735  14.656 -0.2743  0.0276  0.1796
24481W        W39612  10.584   6.376  13.221 -0.1063  0.2319  0.5393
24482W        W39613  16.561  11.521   1.493 -0.2052 -0.0118  0.1521
24483W        W39614  17.522   6.228   4.403 -0.2738  0.1292  0.1963
24484W        W39615   2.131   8.393  11.454 -0.0835 -0.0899  0.1401
24485W        W39616  11.016  14.843   1.189 -0.0078 -0.1519 -0.0711
24486W        W39617  10.879  10.556   4.945  0.1878  0.1189 -0.3060
24487W        W39618   5.319   3.806   4.472  0.2017  0.0048 -0.0772
24488W        W39619  15.691   5.407   2.258 -0.0028 -0.1357 -0.1174
24489W        W39620   0.256  13.844   0.365  0.0872  0.0131  0.3754
24490W        W39621   1.159  10.618   3.800  0.2876 -0.0606 -0.1279
24491W        W39622   3.771  18.093   4.384  0.0144  0.0134  0.0901
24492W        W39623  15.111   6.062   0.767 -0.2448  0.2451 -0.0485
24493W        W39624   2.479   7.522   4.175 -0.1595 -0.1758  0.0531
24494W        W39625  11.090  14.191  11.865  0.0929  0.2406  0.0570
24495W        W39626  15.562  15.581   4.346 -0.0804  0.0511  0.0006
24496W        W39627   6.025  14.910   3.354  0.0178  0.1195  0.0445
24497W        W39628   3.729   0.474   0.759  0.1972  0.1233  0.0960
24498W        W39629  10.629   5.757  13.973 -0.4293 -0.0132 -0.0924
24499W        W39630   5.631  14.625  10.779 -0.2838 -0.1174  0.3603
24500W        W39631   6.623  17.748   1.077  0.1037  0.0448  0.2092
24501W        W39632   2.932  16.439   1.864 -0.1014  0.0202  0.1718
24502W        W39633   7.114  13.424   9.816 -0.0094 -0.0006  0.0110
24503W        W39634   3.495  14.526   2.692  0.1061  0.0674 -0.0775
24504W        W39635   8.842   6.935  11.936 -0.0228  0.0910  0.2659
24505W        W39636   8.170  18.407  14.880  0.0100 -0.0592 -0.4296
24506W        W39637   6.293   8.510   1.021 -0.0704 -0.0568  0.1407
24507W        W39638  18.315  12.452   4.045 -0.1993 -0.4305 -0.2432
24508W        W39639   8.550   1.932  15.515  0.0365 -0.1110 -0.4463
24509W        W39640  14.192   5.146  10.458 -0.0149 -0.0922  0.2392
24510W        W39641   4.451   5.436  13.269 -0.1910 -0.1360  0.0605
24511W        W39642  17.241  15.498   2.678 -0.0589  0.2681 -0.2762
24512W        W39643   5.414   8.847   3.647  0.0756 -0.0671  0.1147
24513W        W39644  14.372   1.122  14.211  0.0191  0.5366  0.0049
24514W        W39645   3.216  11.226   1.585  0.0332  0.3055  0.2448
24515W        W39646  12.392  18.704   3.941  0.0538  0.1718 -0.0032
24516W        W39647   3.233   1.309  15.093 -0.1740  0.1793  0.0177
24517W        W39648  14.160   6.489   1.857 -0.4668 -0.0438  0.1538
24518W        W39649   4.691  11.848   4.907 -0.1090  0.0102  0.0422
24519W        W39650   7.320  16.799  15.508  0.1302 -0.0265  0.2337
24520W        W39651   6.170   4.141  13.659 -0.1921  0.0935 -0.0934
24521W        W39652  15.643  14.521  13.109 -0.0385  0.2327 -0.1369
24522W        W39653  10.645   2.738   2.479 -0.0611  0.1081 -0.2253
24523W        W39654  18.264  15.266   3.573  0.2402 -0.3993 -0.3789
24524W        W39655   3.933  18.623   4.445  0.3049 -0.1294 -0.2686
24525W        W39656  17.190   3.777   1.283 -0.2889  0.0225 -0.2589
24526W        W39657   6.127  18.558  13.518  0.3408 -0.1965 -0.1230
24527W        W39658  17.316  16.349   2.908  0.0004 -0.0929 -0.0398
24528W        W39659   7.302   5.273   4.597  0.3069 -0.0517  0.1074
24529W        W39660   3.664  11.676  12.550 -0.1545 -0.0682 -0.0139
24530W        W39661   2.294  10.734  10.683  0.1154 -0.0148  0.1835
24531W        W39662   5.080  10.131  10.842 -0.0322 -0.2858  0.1295
24532W        W39663  13.049   6.483   2.261  0.0175 -0.2036  0.4220
24533W        W39664  18.208   8.496  10.185 -0.1756  0.0124  0.2037
24534W        W39665  17.375   9.332   5.422  0.3592  0.0535 -0.1578
24535W        W39666   2.611   4.339   3.099 -0.0946  0.1467  0.2418
24536W        W39667   6.089  11.356  11.775  0.2064 -0.2782  0.1471
24537W        W39668  12.868   8.609   2.773  0.0479  0.2605 -0.2471
24538W        W39669  11.405   4.718  11.577  0.0213  0.1483 -0.2886
24539W        W39670  13.405   6.097  12.409  0.1176  0.0097  0.2411
24540W        W39671   5.450   5.328   5.190 -0.0992 -0.1328 -0.2795
24541W        W39672   5.510   1.681   1.534 -0.1082 -0.0743  0.1895
24542W        W39673  16.260   5.214  14.640 -0.0619 -0.3950  0.1396
24543W        W39674   5.801   4.513   1.305  0.2918 -0.2232 -0.0659
24544W        W39675   7.801   1.827   1.752  0.0976 -0.2015 -0.2163
24545W        W39676   4.900   4.776   9.877 -0.3435  0.0243  0.2070
24546W        W39677  13.163   2.984   1.505 -0.2946  0.0272 -0.3377
24547W        W39678  14.922  15.470  12.280 -0.0510  0.2764  0.1183
24548W        W39679   9.129   6.121   1.406  0.6318  0.0950  0.3302
24549W        W39680   3.970   4.631   0.224  0.0384 -0.0615 -0.2001
24550W        W39681   0.294  15.097  14.240 -0.1992 -0.2306  0.1154
24551W        W39682  12.885  15.083   0.386  0.0725  0.0684  0.1170
24552W        W39683  18.163  12.089   3.674  0.1805  0.2089 -0.0199
24553W        W39684   7.748   1.654   2.242  0.0668 -0.2491  0.1919
24554W        W39685   3.653  14.234   1.207 -0.2708  0.0478  0.1659
24555W        W39686   1.579  17.058   0.168 -0.1219  0.0381  0.2968
24556W        W39687  15.751  13.871   3.279 -0.1087  0.0670 -0.4847
24557W        W39688  16.821  14.965   2.429  0.4427 -0.1810  0.0026
24558W        W39689  18.229  14.381   3.854 -0.2260 -0.1762 -0.0257
24559W        W39690   3.879  14.958   0.449  0.0556  0.2409  0.1934
24560W        W39691   6.336  12.214  15.658  0.1693  0.0752  0.1676
24561W        W39692  10.191   7.646  11.647 -0.1933  0.0551 -0.1835
24562W        W39693   2.752   4.471  11.818  0.0226 -0.0015  0.1211
24563W        W39694  14.169   1.691  15.154 -0.0788  0.2338  0.2170
24564W        W39695   9.651  12.454   0.342  0.2424  0.1874 -0.1519
24565W        W39696   2.736   0.080   0.476  0.1633 -0.1677  0.0614
24566W        W39697  15.601   3.098  12.544 -0.1016 -0.2358  0.0913
24567W        W39698   6.506   3.591  12.293  0.2072 -0.1758  0.1258
24568W        W39699   2.070  13.593   3.760  0.0104  0.2120  0.2516
24569W        W39700   6.325  14.512  13.533  0.3823 -0.0335  0.2446
24570W        W39701   5.235  18.436  15.214  0.1106  0.1253 -0.0349
24571W        W39702  11.537  13.078  15.021  0.2990  0.1563  0.5540
24572W        W39703   4.000   3.843   2.077 -0.1563 -0.0013  0.0488
24573W        W39704  11.100  12.726   5.575 -0.1924  0.0628  0.1479
24574W        W39705   4.777   3.368   3.273 -0.3401  0.2236 -0.0501
24575W        W39706   9.394   4.763   4.021 -0.0014  0.1128 -0.4249
24576W        W39707  14.588   5.134   3.191  0.2195  0.0018 -0.1064
24577W        W39708   7.394   9.043   3.645  0.0999 -0.2248 -0.2702
24578W        W39709  15.049   8.393   0.934  0.1514 -0.2220  0.1742
24579W        W39710   2.138  16.834   2.600 -0.0146 -0.1156  0.1940
24580W        W39711   8.715   6.956  15.032  0.0735 -0.2202  0.2605
24581W        W39712   6.359   6.589   2.333 -0.1957 -0.1268 -0.2669
24582W        W39713  17.498  12.973   0.652 -0.0507 -0.1402  0.0436
24583W        W39714   8.595   5.130  13.267 -0.0001  0.0831 -0.1076
24584W        W39715  17.515   9.215  14.107 -0.0889 -0.2477 -0.2367
24585W        W39716  17.968   9.825  15.076 -0.0169  0.1616 -0.1236
24586W        W39717   1.454  10.367   5.271  0.1237 -0.1907 -0.1072
24587W        W39718   8.049   1.005  12.778 -0.2225  0.0934  0.2377
24588W        W39719  15.895   8.345   3.805  0.2282 -0.1385 -0.1666
24589W        W39720   7.807  18.651   2.333  0.2341 -0.0062  0.0561
24590W        W39721  16.851   5.568  11.503 -0.1237  0.1650 -0.2643
24591W        W39722   0.993  12.511  15.752 -0.3985 -0.4314  0.0713
24592W        W39723   6.149   0.844  14.582  0.1561 -0.0335  0.2480
24593W        W39724  13.499  13.902   3.433 -0.2740  0.2154  0.0145
24594W        W39725   0.746  14.468   4.076 -0.0026 -0.0808 -0.0142
24595W        W39726  18.283   8.903  11.394 -0.0176  0.0426  0.1893
24596W        W39727  13.297  13.862  12.699 -0.1885  0.0545  0.1267
24597W        W39728  10.572   3.958   2.795  0.3718 -0.2242 -0.3710
24598W        W39729   6.470  11.967   1.705  0.0082 -0.1755 -0.0359
24599W        W39730   3.281   4.181   1.718  0.1861  0.1871  0.0128
24600W        W39731   2.985   0.584  14.532  0.1035 -0.0963  0.1340
24601W        W39732   3.045  10.045   0.320  0.2471  0.0267 -0.2623
24602W        W39733   4.663  12.965   0.061  0.0790  0.0841  0.1990
24603W        W39734   4.987   0.367   4.274 -0.0286  0.0136 -0.5115
24604W        W39735   3.024  11.013  10.213  0.2311  0.2756  0.0111
24605W        W39736  17.663  16.027  12.502  0.2547 -0.0689  0.1571
24606W        W39737   3.620   7.189   0.035  0.0482  0.0711 -0.0861
24607W        W39738  16.760  11.783   3.230  0.1990  0.1381 -0.3685
24608W        W39739   7.734   0.757  11.485 -0.3397  0.3904  0.0822
24609W        W39740  11.957   9.114   0.021  0.0896  0.1483  0.0658
24610W        W39741  12.748  13.003  15.383 -0.2225  0.1384 -0.2584
24611W        W39742   3.280   1.935   5.291 -0.0801 -0.1279  0.0280
24612W        W39743   0.028  16.186  10.999 -0.1583 -0.4134 -0.0718
24613W        W39744   2.481  12.806   1.053  0.0772 -0.0337 -0.5439
24614W        W39745   3.089  13.784  11.879 -0.2061  0.1333  0.3759
24615W        W39746  17.916   6.220   0.584 -0.1431  0.0119 -0.2062
24616W        W39747   2.447   2.019   5.753  0.1612  0.0127 -0.0625
24617W        W39748  17.403   1.467   1.068 -0.1572  0.1666  0.2359
24618W        W39749  15.090  15.878  14.859 -0.0255  0.0136 -0.0864
24619W        W39750  16.194  14.579   3.166  0.2285  0.3356  0.0994
24620W        W39751  14.174  17.986   4.112 -0.2120 -0.0290 -0.2798
24621W        W39752  12.691  16.677   0.467  0.1789  0.0526  0.0405
24622W        W39753   4.803  18.054   4.036 -0.1935 -0.2802 -0.2513
24623W        W39754   3.848   5.119  15.586 -0.0558  0.3022 -0.1863
24624W        W39755  17.870  13.473  13.642  0.2368  0.0879  0.3152
24625W        W39756  13.276  13.572   0.823  0.3141  0.1127  0.0713
24626W        W39757  10.327  14.624  12.212 -0.2416  0.3470  0.0870
24627W        W39758   8.878  13.521   4.618  0.3138  0.0190 -0.0263
24628W        W39759   3.088   1.787   1.178  0.0963  0.0637  0.2822
24629W        W39760  14.150  17.527   2.828  0.1928 -0.0038 -0.0128
24630W        W39761   2.602  17.062   2.680 -0.0407 -0.0011  0.0089
24631W        W39762   1.289  12.082   2.334  0.1350 -0.1443 -0.2382
24632W        W39763   6.268   3.776   5.787  0.0385 -0.1299  0.0621
24633W        W39764  17.901   3.400   3.875 -0.1765  0.0824  0.0615
24634W        W39765   3.480   1.710   0.069  0.1763 -0.5477  0.5248
24635W        W39766  16.724  18.564   1.542 -0.0284 -0.1281 -0.0322
24636W        W39767   3.616  15.223  15.186  0.1382 -0.3936  0.0748
24637W        W39768  18.488  10.782  13.020  0.0773 -0.3071 -0.1889
24638W        W39769   8.922   2.926  12.737 -0.0107 -0.1859 -0.2416
24639W        W39770   4.265   7.659  14.459  0.3755  0.0094 -0.1756
24640W        W39771   8.163  15.142  15.769  0.0786 -0.0254 -0.1287
24641W        W39772   5.529   3.784  15.346 -0.3115  0.1867 -0.0180
24642W        W39773   6.855  14.544  11.986  0.1246  0.1881 -0.0058
24643W        W39774   1.378  10.938  13.767 -0.1460 -0.0514  0.0674
24644W        W39775   9.561   6.887   5.326 -0.1013  0.0046 -0.4171
24645W        W39776  12.012  11.045   1.161  0.1881  0.0441 -0.0761
24646W        W39777   7.246   1.302  14.136 -0.2272 -0.3990 -0.1287
24647W        W39778   8.647  18.587   2.985 -0.1156  0.0914 -0.1476
24648W        W39779   8.804  13.768  10.787  0.0295 -0.0719  0.1269
24649W        W39780  11.874  10.444  13.159 -0.1597 -0.0894  0.0511
24650W        W39781  10.849  17.370  10.887  0.1638 -0.1354 -0.0535
24651W        W39782   1.645   2.899   4.881  0.2872 -0.1297 -0.0741
24652W        W39783  18.599  11.927   1.912 -0.0298  0.2621 -0.1812
24653W        W39784  11.708  10.693  15.174 -0.1707 -0.0662 -0.2396
24654W        W39785   8.949  15.248  14.170  0.0524 -0.3290  0.1413
24655W        W39786  16.347   8.110  13.800 -0.1709 -0.2393  0.0288
24656W        W39787   7.581   2.232  15.384  0.2335 -0.0808  0.3728
24657W        W39788  10.531   7.842   4.385  0.0634 -0.1775 -0.1020
24658W        W39789   2.674   8.208   0.031 -0.0725 -0.0059 -0.1982
24659W        W39790  15.753  12.733   1.354  0.4599  0.0093  0.1725
24660W        W39791  16.033   6.746   4.415 -0.0018 -0.1958  0.3714
24661W        W39792  15.485  15.856  14.008 -0.1150  0.2380  0.0755
24662W        W39793   5.593  12.585   3.335  0.0884  0.1042  0.0030
24663W        W39794   8.832   1.207   4.333 -0.0069 -0.2926 -0.2294
24664W        W39795  14.924  10.042   4.765  0.0202 -0.0347 -0.2542
24665W        W39796   5.762   4.985  12.966  0.0839 -0.2308  0.2812
24666W        W39797   5.212  11.849   4.928  0.6777  0.0188 -0.0158
24667W        W39798   6.568  13.774  12.704 -0.0288 -0.3860  0.1965
24668W        W39799  17.639  17.319  12.702  0.0789 -0.3573 -0.1205
24669W        W39800   0.714  11.415  15.246  0.2103 -0.3999  0.1498
24670W        W39801  16.657  13.041  15.743 -0.3061  0.4806  0.1101
24671W        W39802   3.908   8.207   4.923 -0.1416  0.0260  0.4436
24672W        W39803   5.653   2.917  15.728  0.1329 -0.1528  0.0175
24673W        W39804  11.998   1.877  11.526  0.1631  0.3449  0.3282
24674W        W39805   9.387  11.790  14.786 -0.0032  0.2336  0.1492
24675W        W39806  16.518   6.914  15.490  0.1286 -0.1343 -0.1113
24676W        W39807   8.776  16.759  12.017 -0.2175 -0.2283 -0.1055
24677W        W39808  17.180   8.700  15.710  0.2386 -0.1224  0.2967
24678W        W39809   3.542  12.157  15.552  0.1945 -0.0162 -0.1900
24679W        W39810   0.508   3.635   0.250 -0.0813  0.0400 -0.2416
24680W        W39811   2.018  15.984  12.550  0.2912 -0.1286  0.1133
24681W        W39812  15.711   2.289  11.554 -0.0534  0.4146  0.1284
24682W        W39813  13.994  18.251  14.549  0.0193 -0.2493 -0.0598
24683W        W39814  15.714   5.431   3.356  0.0928  0.0880 -0.1349
24684W        W39815   1.372   4.261  13.572  0.1113  0.0492 -0.0120
24685W        W39816   6.947   9.972  12.753 -0.1117  0.1628 -0.1939
24686W        W39817  16.134   2.344   4.918  0.1179  0.2195 -0.3144
24687W        W39818  14.531   2.687   5.509 -0.0026 -0.2352  0.2160
24688W        W39819   3.607  18.545   4.067 -0.0876  0.1149  0.0507
24689W        W39820   9.280  15.088   4.815 -0.1886  0.0073  0.0676
24690W        W39821  11.734  18.205   3.410 -0.1834  0.0748  0.1876
24691W        W39822   9.181  10.325   3.766  0.4356 -0.0985 -0.0955
24692W        W39823  15.888  17.275   2.179  0.3112  0.0435  0.0584
24693W        W39824  18.358   4.918  10.274 -0.0510  0.0609 -0.1550
24694W        W39825   7.281   2.637   5.779  0.1372  0.0490  0.0886
24695W        W39826   7.198   5.255  15.490  0.0700 -0.1107 -0.1052
24696W        W39827   4.198   4.628  11.412  0.1395  0.1709  0.1289
24697W        W39828  13.275  14.525  13.413 -0.0653  0.0314  0.0484
24698W        W39829  15.611  17.153   1.762  0.0103  0.0441 -0.4431
24699W        W39830   7.124  12.775  12.364 -0.2000 -0.1877  0.0888
24700W        W39831   0.006  13.879   1.702  0.0666  0.1665  0.0187
24701W        W39832   4.912  17.875   2.930 -0.0424  0.4105  0.3647
24702W        W39833  10.141  12.247  12.000  0.0824  0.2129  0.2965
24703W        W39834  12.559   3.586  10.568  0.4149 -0.1354  0.4082
24704W        W39835  11.015  10.031   0.315 -0.2098  0.2087 -0.1627
24705W        W39836  11.946   3.383  11.860  0.2766  0.0702  0.0120
24706W        W39837  10.003  10.446  13.474 -0.0425  0.1636  0.1327
24707W        W39838  12.094  10.479  14.264  0.2464  0.2957 -0.1099
24708W        W39839   8.012   4.378  12.267 -0.0884 -0.2596  0.0671
24709W        W39840   4.332  16.508   3.880  0.1119  0.2054 -0.1608
24710W        W39841  13.770   7.624   1.517  0.0044 -0.2691  0.0296
24711W        W39842  18.400   7.984   3.495  0.2835 -0.3055  0.1856
24712W        W39843   1.797   4.519   3.496  0.1264 -0.0917  0.1475
24713W        W39844  18.146   9.591   3.311  0.0371  0.2066 -0.1284
24714W        W39845   9.490   7.351   3.526 -0.1245 -0.0224 -0.0091
24715W        W39846  16.090   9.860   0.998 -0.5616 -0.2300  0.2752
24716W        W39847   0.546   2.841  11.376 -0.3153 -0.2365  0.1252
24717W        W39848  10.330  17.716   5.834  0.2539 -0.1548  0.0845
24718W        W39849   3.377  13.092  12.149 -0.0111  0.1763  0.2517
24719W        W39850  10.713  15.555  12.150 -0.0415 -0.0907  0.0849
24720W        W39851  18.303  12.837   3.008  0.1887  0.0691  0.0568
24721W        W39852  13.540  16.277  14.384  0.1106 -0.1206 -0.1864
24722W        W39853   2.776   6.584  13.902 -0.0154  0.1470 -0.3949
24723W        W39854  12.102   4.472   5.038 -0.1295 -0.0822  0.3552
24724W        W39855   9.065  14.371   2.245  0.0094 -0.1246  0.1820
24725W        W39856   8.165  15.600   2.614  0.0542 -0.0286  0.1260
24726W        W39857  15.809  14.191   1.270  0.2558  0.0928  0.1674
24727W        W39858   9.586   1.839  11.092 -0.0141  0.0755 -0.3550
24728W        W39859  16.904  15.957   2.732 -0.2259 -0.2419 -0.2320
24729W        W39860   5.633   5.497   1.399  0.3313 -0.0540 -0.1354
24730W        W39861   0.684  18.084  11.272  0.2537  0.1659 -0.5358
24731W        W39862  17.181   3.416  13.952 -0.0711  0.2586 -0.4557
24732W        W39863   8.705  13.035  15.503 -0.0668 -0.0757 -0.3820
24733W        W39864  14.220   9.699  13.750  0.1043 -0.0911 -0.0349
24734W        W39865  10.064   7.991  13.256  0.2710  0.2415 -0.1353
24735W        W39866  14.905   9.066  15.291  0.1507  0.1939 -0.0320
24736W        W39867  18.676  10.573  13.461  0.1701 -0.1180 -0.1685
24737W        W39868   2.437  14.000  11.418 -0.0421  0.0346 -0.0322
24738W        W39869  10.834  13.806   4.751  0.2155 -0.2416  0.2063
24739W        W39870   1.518   0.101  15.565  0.2912 -0.2808 -0.1789
24740W        W39871  16.505   9.339  12.809 -0.3232  0.0690 -0.3077
24741W        W39872   4.770   3.360   1.681 -0.1612 -0.0959 -0.1172
24742W        W39873   4.165   6.752   4.652  0.4873  0.0353  0.0496
24743W        W39874   3.935  11.359  14.369 -0.1827 -0.0680 -0.1800
24744W        W39875   6.417   9.738   4.394 -0.1568 -0.1425  0.0288
24745W        W39876   9.467  15.788   2.519  0.0195 -0.0182  0.3281
24746W        W39877   8.667   2.897  11.893  0.1842  0.0234 -0.2064
24747W        W39878   5.396  17.793  13.799 -0.1697 -0.4021  0.2072
24748W        W39879   5.951   9.564  10.616  0.0716 -0.0093  0.4002
24749W        W39880   1.034  15.553  11.562  0.1850  0.4267  0.2438
24750W        W39881   1.600  14.903   4.686  0.0674  0.1809 -0.0350
24751W        W39882   4.035  15.377  15.449  0.1443 -0.2737  0.1847
24752W        W39883  14.857  12.016   2.270  0.1477 -0.2099 -0.0741
24753W        W39884   6.243  15.486  10.962  0.0989 -0.0475  0.1565
24754W        W39885   1.514   7.829  13.105  0.0547  0.2589 -0.3481
24755W        W39886   7.500   3.119  12.840 -0.1605  0.0138  0.0085
24756W        W39887  11.143  17.606  13.849  0.0535  0.2839 -0.1560
24757W        W39888  12.844   2.893   2.669  0.2490  0.0694 -0.3431
24758W        W39889   6.323  15.762  15.712  0.0802 -0.0096  0.0403
24759W        W39890   3.832  13.532   3.669  0.1229 -0.1929 -0.3440
24760W        W39891  18.543  10.476   3.949 -0.0689 -0.1366 -0.0181
24761W        W39892   3.057  13.186   4.790 -0.0485 -0.2935  0.0919
24762W        W39893  12.351   7.882   2.788  0.0571 -0.0788  0.0700
24763W        W39894  18.462   1.702   5.359  0.0994 -0.0364  0.1518
24764W        W39895  17.978  16.760  11.498  0.1441  0.0815  0.4799
24765W        W39896   1.764   0.673  11.464 -0.0085  0.1005  0.2860
24766W        W39897   6.020   9.339  15.689  0.0713 -0.1084 -0.3433
24767W        W39898   5.871  10.215  11.933  0.1058  0.2144 -0.2525
24768W        W39899   1.632  10.798   9.923 -0.1789  0.2153  0.1133
24769W        W39900   9.695   4.173  12.902 -0.1476 -0.8859 -0.3394
24770W        W39901   7.159  11.221   2.710 -0.0853  0.0338 -0.2370
24771W        W39902   7.845   4.014   2.952 -0.0617 -0.0630 -0.1729
24772W        W39903  13.811  11.347  15.715 -0.0601  0.0668  0.4618
24773W        W39904  11.302   3.387  15.119  0.0988 -0.0386 -0.0621
24774W        W39905   4.361  14.062  11.087  0.1481  0.0976  0.0304
24775W        W39906   1.780   8.818  11.403 -0.0143 -0.1005 -0.1020
24776W        W39907   4.066   8.520   3.467 -0.0617  0.1060  0.0054
24777W        W39908  17.839   2.550  11.307  0.0473 -0.1094  0.2378
24778W        W39909  12.319   6.592   4.726  0.0478 -0.0175  0.2233
24779W        W39910  13.932   2.584  12.122  0.0979  0.1277  0.0300
24780W        W39911  13.137   4.115  11.749  0.1147  0.1174 -0.1656
24781W        W39912  15.656  17.273  14.687 -0.0541 -0.3820  0.3171
24782W        W39913  18.225  15.424  11.019  0.4156 -0.1042  0.0765
24783W        W39914   5.680  11.142  12.977 -0.0784  0.2436  0.1144
24784W        W39915   3.920   3.589   3.455 -0.0779 -0.1799 -0.0182
24785W        W39916   5.757   5.712  11.000 -0.0871 -0.2912 -0.1121
24786W        W39917   4.817   3.718   2.678 -0.0589 -0.1057  0.2419
24787W        W39918   3.869  16.082  10.931 -0.0392  0.2034  0.0116
24788W        W39919   3.502  11.150   2.639  0.0327 -0.3599  0.2157
24789W        W39920  10.612  13.940  11.041  0.6152  0.0530 -0.1657
24790W        W39921  17.731  13.349   0.902  0.1584 -0.0941 -0.1417
24791W        W39922   9.077   4.835   2.345 -0.3776 -0.1496  0.1435
24792W        W39923   2.421  12.025  12.205  0.1060 -0.0976  0.1099
24793W        W39924   0.507   3.135  10.594 -0.1436 -0.1887  0.0367
24794W        W39925  10.976  18.412  10.527  0.2489 -0.0637 -0.2850
24795W        W39926  15.060   4.101   1.416  0.0950 -0.0931  0.1266
24796W        W39927   4.621  11.214   4.015  0.0554 -0.0456 -0.3474
24797W        W39928  15.151  14.626  10.561  0.1215  0.3383  0.1452
24798W        W39929   2.159   7.931   1.694 -0.1705  0.0440  0.0307
24799W        W39930   4.518   0.450   5.001  0.0614  0.0453 -0.0602
24800W        W39931   4.359   8.607   2.212  0.0162  0.2864 -0.0368
24801W        W39932   2.400   2.052  10.195  0.0012  0.1841  0.2498
24802W        W39933   9.706   8.065  10.136 -0.0208 -0.0175 -0.1244
24803W        W39934   9.278  13.635  13.518 -0.2213  0.0389 -0.1553
24804W        W39935   8.415  12.122  11.284 -0.2936 -0.3774  0.2265
24805W        W39936   4.814   9.373   1.565 -0.0255  0.1160  0.1115
24806W        W39937   1.425   5.877   1.767  0.0800 -0.1903 -0.0536
24807W        W39938   7.248  14.006  11.812  0.0296 -0.3345 -0.0606
24808W        W39939  14.858  10.785  15.224 -0.3089  0.0167  0.0195
24809W        W39940   0.685  16.355   3.796  0.2057  0.0763  0.3332
24810W        W39941   7.459   6.133  10.861  0.1411 -0.1512  0.0951
24811W        W39942   7.802  13.883  12.959  0.0823 -0.1127  0.2176
24812W        W39943  14.098  18.259  10.280  0.3611  0.0686 -0.1321
24813W        W39944   0.899   5.548  13.644 -0.0081  0.1463  0.0446
24814W        W39945  17.053  11.929  13.122  0.0801  0.0104 -0.3107
24815W        W39946   4.246   6.923  12.390  0.1281 -0.1309  0.1494
24816W        W39947   3.646  17.975  14.915 -0.0591 -0.1840 -0.1055
24817W        W39948   2.878  16.985  12.809 -0.2368 -0.0806  0.0717
24818W        W39949  15.669   0.994   4.731  0.1238 -0.1192 -0.0428
24819W        W39950   3.154   9.232  11.819 -0.1645  0.3513  0.2017
24820W        W39951   4.925  11.184  13.369 -0.3130 -0.2831 -0.2566
24821W        W39952  18.459   8.124  10.383  0.0724 -0.0992  0.4220
24822W        W39953   1.320  17.434  14.502  0.2263  0.0722  0.1586
24823W        W39954   7.953  10.202   3.310  0.0392  0.0162  0.2817
24824W        W39955   2.976  13.535  13.880  0.1742 -0.0266 -0.1248
24825W        W39956  11.216  12.729  12.369  0.1734 -0.1138 -0.1583
24826W        W39957  10.385  17.247  13.580  0.0862  0.2374 -0.2488
24827W        W39958  12.498   6.013  15.292  0.2760 -0.1344  0.2650
24828W        W39959   9.169   5.035  13.268 -0.2187  0.2718  0.5431
24829W        W39960  10.378   8.786   2.619  0.0892  0.0442 -0.2428
24830W        W39961  17.849  10.633   1.616  0.4391  0.2137 -0.2971
24831W        W39962  16.856  16.611   0.214  0.0156 -0.0727 -0.4210
24832W        W39963  15.528  11.569   4.173  0.1545 -0.1670  0.0544
24833W        W39964   7.213   6.837   2.470 -0.1288 -0.1333  0.1332
24834W        W39965  11.795  11.757  10.985  0.1159 -0.0802 -0.5355
24835W        W39966  14.281  11.620   2.917 -0.1087  0.1054 -0.0882
24836W        W39967  16.144   7.130   3.175 -0.1512  0.2544  0.0795
24837W        W39968   9.290   3.772   1.464 -0.0465 -0.0588  0.0773
24838W        W39969  13.146  13.892   2.540 -0.5398  0.1204 -0.2939
24839W        W39970  11.426   4.407   3.350 -0.0460 -0.0294  0.1407
24840W        W39971  12.968  14.111   4.489  0.2156 -0.3439 -0.2033
24841W        W39972   0.514  15.057   1.561  0.3163 -0.0751  0.0649
24842W        W39973  12.091   2.567  12.277  0.2595  0.0920 -0.4434
24843W        W39974   9.490  18.463   2.764 -0.3162  0.1692 -0.0354
24844W        W39975   1.063  10.755  10.801 -0.1094  0.1455  0.0484
24845W        W39976   6.838  12.469  12.029 -0.1179 -0.0972 -0.1191
24846W        W39977   0.569   0.464   1.976 -0.0750  0.0745  0.0019
24847W        W39978   4.682   2.506  12.458  0.1274 -0.0326 -0.1381
24848W        W39979  11.311  10.383   5.130  0.0924  0.1961  0.4558
24849W        W39980  10.408   0.363  14.516  0.2882  0.1230  0.4273
24850W        W39981   4.836   3.335  12.674  0.2416 -0.1499 -0.0510
24851W        W39982   5.675   2.770  11.386  0.1635  0.3034 -0.2042
24852W        W39983  11.131   6.450  13.565  0.0297 -0.1088 -0.1393
24853W        W39984   0.509   8.794   3.177 -0.0523  0.0602 -0.2146
24854W        W39985  14.171  11.888  13.308 -0.3944 -0.2262  0.1340
24855W        W39986   1.399  11.455   0.808  0.2264  0.1529  0.5983
24856W        W39987   9.039   8.211  10.468 -0.3517 -0.1551 -0.1279
24857W        W39988  14.357   2.627   4.971  0.0853 -0.0270 -0.0690
24858W        W39989  16.628   7.429  11.392  0.0762  0.1764 -0.0875
24859W        W39990  11.525   0.947   0.729 -0.1184  0.1646 -0.2106
24860W        W39991  14.008   1.376   4.930 -0.2899 -0.0209  0.2604
24861W        W39992  18.447  17.909   0.723  0.0235  0.1413  0.3300
24862W        W39993   9.175   4.303   4.199  0.0713 -0.0467 -0.0118
24863W        W39994   2.775   7.575   2.377 -0.2911 -0.1393 -0.3825
24864W        W39995   6.091   3.073   2.829 -0.2153  0.2691 -0.0079
24865W        W39996   5.288   6.125  11.580  0.1899 -0.0588 -0.2811
24866W        W39997   9.635   9.529   3.685 -0.1387 -0.1607  0.1376
24867W        W39998   7.352  13.695  13.183  0.1430 -0.0986  0.1423
24868W        W39999   9.606  10.862   4.420  0.1492  0.0698 -0.2088
24869W        W40000  17.057  17.846   0.940 -0.1419 -0.1512  0.2096
24870W        W40001   1.204  13.829   3.778  0.1514  0.3135  0.0867
24871W        W40002   1.092   0.385  12.120  0.0971 -0.0924 -0.4111
24872W        W40003   0.605  11.192   4.322 -0.4007 -0.1008  0.0034
24873W        W40004  11.350  10.001   4.119  0.2252 -0.1258  0.1707
24874W        W40005  14.290  18.672   0.685  0.0154 -0.1995  0.0748
24875W        W40006  14.404  11.894  13.769 -0.1104 -0.0831 -0.1194
24876W        W40007   2.934  18.200  14.447 -0.1796 -0.1797 -0.0452
24877W        W40008   1.687   8.621   3.546 -0.0243  0.0952  0.1721
24878W        W40009   8.060  18.642  12.323 -0.0876  0.3915  0.0495
24879W        W40010   2.581  16.361   1.505 -0.1587 -0.0262  0.2940
24880W        W40011   8.083  16.088   5.109  0.2306 -0.0033 -0.5779
24881W        W40012  16.177  11.787   1.437 -0.0917  0.1104 -0.0128
24882W        W40013   8.174   5.707  11.771 -0.1416 -0.1290 -0.0282
24883W        W40014   8.670  10.232   1.187  0.2004 -0.0482 -0.1578
24884W        W40015   7.204   9.413   0.167  0.3290  0.0005  0.1689
24885W        W40016   8.063  12.619  12.166  0.3515  0.1838  0.1897
24886W        W40017   1.556   4.195  11.263 -0.0462 -0.3202 -0.1393
24887W        W40018   5.679  12.853  13.314 -0.0144  0.0992 -0.3538
24888W        W40019  14.996   3.518  11.139 -0.0536 -0.0663 -0.0822
24889W        W40020  16.364   9.965   4.014 -0.2430  0.0529 -0.1334
24890W        W40021   0.595  11.196  13.473 -0.4194  0.1219  0.3767
24891W        W40022  12.434   5.634   4.578  0.0363 -0.2099  0.3206
24892W        W40023  14.557   3.778  10.832 -0.1743 -0.2585  0.1245
24893W        W40024   1.249  12.221  12.069  0.0528 -0.2326 -0.1714
24894W        W40025   2.321  10.711  15.232 -0.2711  0.1787 -0.3026
24895W        W40026  16.687  12.691   3.012 -0.3878 -0.0935  0.2708
24896W        W40027   3.920  18.458   1.180  0.0442  0.2818  0.0485
24897W        W40028   9.514  17.987   3.128 -0.1140 -0.1531  0.1569
24898W        W40029   2.381   0.382   2.598 -0.2425 -0.1115 -0.1871
24899W        W40030   3.054  15.494   2.746 -0.0263 -0.1454  0.0500
24900W        W40031  12.360  18.388   2.631 -0.1520 -0.0978  0.0607
24901W        W40032  10.449   3.027  14.642  0.0708 -0.1913 -0.0959
24902W        W40033  14.368  10.979  13.554 -0.2848  0.0411  0.1024
24903W        W40034   5.602  16.886   0.048 -0.0162 -0.0725  0.0961
24904W        W40035  17.476  10.520  15.631 -0.1476 -0.1276  0.2251
24905W        W40036  18.437  11.175  11.464 -0.1278 -0.1902 -0.0688
24906W        W40037   8.228  13.287   2.181  0.1614  0.1666  0.1868
24907W        W40038  15.163  11.485   0.482 -0.0402 -0.0908  0.1994
24908W        W40039   1.373  15.760  14.748  0.0915 -0.0621  0.1497
24909W        W40040   3.703   8.609   0.628 -0.1053 -0.0094  0.0750
24910W        W40041  15.578  13.765  13.473 -0.0753  0.2178 -0.0861
24911W        W40042  12.179   7.724   9.226 -0.0180  0.1797  0.0666
24912W        W40043  17.562  16.266   0.471  0.2354  0.2336  0.3636
24913W        W40044   9.255  11.271   2.455 -0.2252  0.1992  0.4172
24914W        W40045   4.222   6.600   3.057 -0.0780 -0.2537  0.2131
24915W        W40046   2.266   1.100  12.859 -0.2212 -0.0462  0.0371
24916W        W40047  11.532   9.463   0.594 -0.2109  0.0484 -0.0524
24917W        W40048   0.207  13.935  14.805  0.2594 -0.0647  0.5051
24918W        W40049  10.142   1.725  12.333 -0.1369 -0.3090 -0.1997
24919W        W40050   9.421   0.627  14.658 -0.2092  0.1788 -0.1863
24920W        W40051   0.520  10.985  14.425 -0.4456 -0.1426  0.2412
24921W        W40052  13.306   5.273  13.341  0.1616 -0.1022 -0.4504
24922W        W40053   1.293   8.281   1.665  0.0629 -0.1454 -0.2743
24923W        W40054  12.499  11.378   2.404 -0.2408  0.1847  0.2344
24924W        W40055   3.000   0.684   3.234 -0.1393 -0.2964 -0.1383
24925W        W40056   9.502   5.806  10.154 -0.2666 -0.0392 -0.3010
24926W        W40057   2.744  10.675  15.525  0.0535  0.0394 -0.0893
24927W        W40058  15.670   3.365  10.477 -0.0927 -0.1936  0.0803
24928W        W40059  13.579  18.339  14.836  0.1344 -0.1970  0.1896
24929W        W40060  12.195  17.757  11.785  0.0464 -0.1563 -0.3047
24930W        W40061  18.380  14.995  15.369 -0.1441  0.0275  0.0465
24931W        W40062  15.042   8.782   3.776  0.0503 -0.0496 -0.3610
24932W        W40063  15.701   0.945   5.284  0.0664  0.1610  0.0960
24933W        W40064   1.335  13.023  14.808 -0.1898  0.2480  0.0644
24934W        W40065   6.400  15.768   3.989  0.2168 -0.1017 -0.1101
24935W        W40066   2.249   1.493   1.772 -0.1184 -0.0967  0.0940
24936W        W40067  13.991   2.703   3.515 -0.2164  0.0086 -0.2698
24937W        W40068   2.401   9.848  11.512  0.0014 -0.1811 -0.0956
24938W        W40069   4.233  13.475  11.941 -0.0993  0.2501  0.0298
24939W        W40070  16.875  13.654  14.340 -0.4046  0.1930  0.1748
24940W        W40071  10.872   8.036   5.215 -0.1019  0.3199  0.1780
24941W        W40072  10.197   2.626   2.221 -0.0092  0.1873  0.0736
24942W        W40073  12.889  12.878   4.116  0.0056  0.4155  0.2237
24943W        W40074   4.487   8.732  14.290  0.1700  0.1191 -0.2443
24944W        W40075   0.096   1.647   4.476  0.1667 -0.1911 -0.2741
24945W        W40076  10.049  11.307   2.206  0.0021  0.2925  0.2080
24946W        W40077   4.844   7.614   3.220  0.2579  0.0649 -0.2496
24947W        W40078   1.485   7.866   3.031 -0.2589  0.3400 -0.0459
24948W        W40079  11.538   0.313   2.251  0.0762 -0.1842 -0.0029
24949W        W40080   7.888   8.072  12.341 -0.1279  0.0250  0.0892
24950W        W40081  17.996  16.437   4.056  0.1795 -0.2932 -0.3040
24951W        W40082   5.547  14.379   2.534 -0.2206 -0.1480 -0.0254
24952W        W40083  14.783  11.908  14.836 -0.0668 -0.1317  0.2992
24953W        W40084  12.290   1.852   6.238 -0.4220  0.0784 -0.1434
24954W        W40085   1.147   0.451  14.355  0.1593  0.2744  0.0267
24955W        W40086  17.367   2.014  14.494 -0.1386  0.2663  0.0547
24956W        W40087   1.724  13.341  15.000  0.0203  0.2985  0.0377
24957W        W40088   9.815  16.800   4.828 -0.2020  0.2218  0.2590
24958W        W40089   0.923   0.185   0.876  0.4479  0.1076  0.2846
24959W        W40090   5.190   8.397  14.419  0.1092 -0.1314 -0.1531
24960W        W40091  15.791   1.468  13.943 -0.0141  0.2913  0.0719
24961W        W40092   9.170  11.222   3.814 -0.0515 -0.0318 -0.2400
24962W        W40093   6.506   9.277  12.773 -0.2402  0.0521 -0.1026
24963W        W40094  13.918  10.773   5.328  0.1172  0.1060  0.2224
24964W        W40095  16.499   7.763   2.305 -0.0031  0.1275 -0.0583
24965W        W40096  13.715  12.415  12.771  0.3541  0.0853  0.0576
24966W        W40097   1.943   6.632  12.343 -0.2780 -0.2954 -0.0521
24967W        W40098  16.841   8.803  14.832 -0.0958  0.0607  0.3862
24968W        W40099   5.846  16.605   0.399  0.0668 -0.1406  0.0788
24969W        W40100   4.781  13.261   2.016  0.1586 -0.0790 -0.1373
24970W        W40101   6.380  11.095   0.149  0.2423 -0.0503  0.0459
24971W        W40102   4.045   9.761   0.445 -0.2315  0.0382 -0.0682
24972W        W40103  10.263   0.901  14.599  0.0665  0.2771 -0.1945
24973W        W40104  14.140  15.796   0.636 -0.1204  0.0882 -0.0285
24974W        W40105   5.072  17.066  14.910  0.0055 -0.0756  0.1222
24975W        W40106   6.282   8.215  15.632  0.4270 -0.0089 -0.0331
24976W        W40107  10.519   6.644   3.353 -0.3098 -0.2991 -0.3134
24977W        W40108   9.070  17.846   4.082 -0.1490  0.0731  0.0368
24978W        W40109   8.773   9.540   3.705  0.1003  0.0146 -0.0983
24979W        W40110   3.571   3.070  15.277  0.1421 -0.0989 -0.0474
24980W        W40111   0.403   2.833  14.002 -0.0854  0.0132  0.0051
24981W        W40112   4.254   0.164  13.433  0.1557 -0.4105 -0.2309
24982W        W40113  15.332  14.250  12.636 -0.3613  0.1130  0.0977
24983W        W40114  15.149  10.129   5.289 -0.2052  0.0566  0.1035
24984W        W40115   6.912   7.876  14.055 -0.1465  0.0881 -0.1023
24985W        W40116   0.746   2.314  15.772 -0.0712  0.0344 -0.0170
24986W        W40117   4.222   4.798   0.782  0.1919 -0.0916  0.1112
24987W        W40118   2.017   0.303   0.912  0.1215  0.1347  0.2251
24988W        W40119   0.682   7.964   0.813  0.0481  0.2014  0.0027
24989W        W40120   9.484   9.882  14.392 -0.0928  0.0088  0.0164
24990W        W40121   9.043  12.271  13.834 -0.0896  0.0034  0.1130
24991W        W40122  16.407   0.985   5.827 -0.2206 -0.2691 -0.0839
24992W        W40123  15.443   2.668  11.555  0.4321 -0.2000  0.0125
24993W        W40124   8.299   6.256  13.292 -0.0137 -0.1439 -0.0934
24994W        W40125  11.912   8.145   3.044 -0.0938  0.1323 -0.2479
24995W        W40126   2.453   9.520  12.697  0.2955 -0.2251  0.3104
24996W        W40127   7.427   1.982   0.459 -0.1874 -0.0469  0.1887
24997W        W40128   4.432   4.302  12.941  0.2297 -0.3465 -0.1315
24998W        W40129  11.538   9.371  13.872 -0.0259 -0.2337  0.1248
24999W        W40130   6.274   1.087  12.870 -0.1648  0.0126 -0.1838
25000W        W40131   1.016   9.734  12.666  0.2768  0.1898  0.2840
25001W        W40132  18.478  11.505  13.540  0.2491 -0.1834 -0.1850
25002W        W40133  17.800  12.074  12.417  0.0246 -0.3022  0.1687
25003W        W40134  11.669  12.173   1.581  0.0518 -0.0556  0.0414
25004W        W40135   3.236   4.720  14.881  0.3511 -0.0687 -0.2561
25005W        W40136   6.220   0.514  14.198  0.2287 -0.2158 -0.4594
25006W        W40137  16.554  16.309  13.670 -0.0472  0.1518 -0.2620
25007W        W40138   7.011  17.522   4.651 -0.0881 -0.3069  0.0086
25008W        W40139   2.514  14.310   4.963  0.0050 -0.2325 -0.4189
25009W        W40140   9.926  10.206  14.854  0.1425  0.0865 -0.1427
25010W        W40141   8.789   3.121  15.521 -0.1299 -0.1511  0.0660
25011W        W40142   9.931  11.039  12.667 -0.5680  0.2026  0.2538
25012W        W40143  16.385   2.086   4.107 -0.0815  0.1199  0.0279
25013W        W40144  15.830  16.372  11.343  0.1573 -0.1524  0.1701
25014W        W40145  14.588  10.816   3.480  0.0846  0.2464  0.2594
25015W        W40146  14.571  11.907   1.866  0.2361 -0.0135  0.1951
25016W        W40147  10.579   4.924   3.972  0.4103  0.3945  0.2889
25017W        W40148   0.642  15.229  11.738  0.1072 -0.0594  0.1958
25018W        W40149   4.502  16.362   2.905  0.0888 -0.3721 -0.0301
25019W        W40150   2.465   8.222  13.196 -0.3607 -0.0148 -0.0332
25020W        W40151   6.973   9.415  12.716 -0.2497 -0.1380  0.0137
25021W        W40152   6.549  17.049  12.275  0.0842 -0.2577 -0.0551
25022W        W40153  13.429   2.252  11.851 -0.2455  0.2431 -0.2085
25023W        W40154   4.098  18.160   4.740 -0.6020 -0.3240  0.0391
25024W        W40155  15.928   8.567  12.324  0.2441  0.3015 -0.1277
25025W        W40156  18.638   0.517   3.395  0.0278 -0.1215 -0.0260
25026W        W40157   3.418   9.747  12.643 -0.1263 -0.1615 -0.0853
25027W        W40158   0.656  17.609   1.235  0.0168  0.3186  0.1495
25028W        W40159  13.913  15.656   2.683  0.2870  0.0145 -0.1227
25029W        W40160  10.639   3.552   1.965  0.1363 -0.2377  0.1632
25030W        W40161   0.409  17.871   3.765 -0.0804 -0.0503  0.1569
25031W        W40162   1.157  15.860  15.735  0.1721 -0.0955 -0.0464
25032W        W40163   0.120  17.297   4.596  0.2468 -0.1056  0.4189
25033W        W40164   3.237   1.207  13.037 -0.3376  0.1355 -0.0431
25034W        W40165  10.827   2.096  12.558  0.0721  0.0072 -0.1126
25035W        W40166  14.096  14.918   2.565  0.0573 -0.0743 -0.4566
25036W        W40167  15.581   6.986  12.414 -0.1206 -0.1974  0.1917
25037W        W40168   6.300  14.538   0.646  0.2442 -0.0264 -0.2577
25038W        W40169   1.487  10.491  12.703 -0.1303  0.0125 -0.0516
25039W        W40170  18.118  17.734  15.674  0.0132 -0.0880  0.0888
25040W        W40171   5.502  14.291  11.636  0.0176  0.2786  0.0064
25041W        W40172  11.005   6.659   5.722  0.1613 -0.0242  0.0229
25042W        W40173  10.165   8.769  12.395 -0.2952  0.4209  0.0993
25043W        W40174  16.352  15.613   9.921  0.2267 -0.0408  0.0576
25044W        W40175   9.079   0.035   3.629  0.0149 -0.0189  0.2954
25045W        W40176  11.004  15.923  11.940 -0.0024  0.1742 -0.1730
25046W        W40177  18.037   5.100   1.949  0.5203  0.0775 -0.1733
25047W        W40178  12.724  17.932  15.027 -0.2057 -0.2090  0.1528
25048W        W40179  12.502   5.635  13.177 -0.0468 -0.6226 -0.0544
25049W        W40180  14.204  11.958   2.263 -0.1086 -0.0596  0.1414
25050W        W40181   2.125  13.753  12.982 -0.3749  0.5673 -0.3058
25051W        W40182  13.628  11.052   1.198  0.1847  0.0143 -0.4138
25052W        W40183  17.768   8.189  13.144 -0.0294  0.0062 -0.0584
25053W        W40184  10.125   1.831  11.462  0.5037 -0.1131 -0.1242
25054W        W40185   5.444   4.710   2.376 -0.5480 -0.0492 -0.3224
25055W        W40186  12.278  13.617  15.583  0.0915  0.1639  0.1450
25056W        W40187  15.505  14.968   1.586 -0.1038 -0.2218 -0.1572
25057W        W40188   2.169  14.225   0.888 -0.0867 -0.1867  0.1598
25058W        W40189  12.116  14.322  10.050  0.2265  0.0794  0.2372
25059W        W40190  14.914  12.813   2.520  0.0486 -0.4737 -0.2079
25060W        W40191   3.101  16.063   3.391 -0.0026 -0.0993  0.0976
25061W        W40192  16.587   8.447  11.345  0.1274 -0.0485 -0.2270
25062W        W40193  17.539  16.433   4.774  0.1406  0.0728 -0.2107
25063W        W40194   5.909   5.649   3.722  0.4957 -0.0620 -0.4262
25064W        W40195   3.296  10.789   5.211  0.4469  0.2035  0.0699
25065W        W40196   0.884  11.946   4.732  0.1352  0.0011 -0.0938
25066W        W40197   3.354   7.649   4.053 -0.0203  0.0512  0.3860
25067W        W40198   5.038  14.881   0.127  0.1294  0.3635  0.0682
25068W        W40199  14.277  16.693  15.601  0.1217 -0.1074 -0.0898
25069W        W40200  17.542   7.393  12.938  0.0442  0.2667 -0.1172
25070W        W40201  17.661   1.038  14.034 -0.2461  0.1350  0.1555
25071W        W40202  15.634   1.961  11.948 -0.0189 -0.2201 -0.2720
25072W        W40203  11.360  15.942  11.038  0.3420  0.0183  0.4169
25073W        W40204   3.210   1.228   3.319  0.1090  0.2885  0.0095
25074W        W40205   0.681  17.636  11.443 -0.0247  0.0223  0.3292
25075W        W40206  13.696   9.705   2.332 -0.0205 -0.0649 -0.2935
25076W        W40207   1.302  12.375  13.383 -0.0545  0.2259  0.0186
25077W        W40208   7.950  15.732   1.039  0.1368 -0.2010 -0.0730
25078W        W40209  15.315   9.213   4.715 -0.3407 -0.1668 -0.1770
25079W        W40210   6.245  18.589   5.346  0.1215  0.0521 -0.0568
25080W        W40211   7.911   9.816  14.942  0.1603 -0.1757 -0.0589
25081W        W40212  15.767  12.093   4.434  0.0888  0.1835  0.0464
25082W        W40213   5.939  14.069   5.150  0.3355 -0.0085  0.3109
25083W        W40214  13.044   9.535  13.498 -0.1479 -0.1764  0.1414
25084W        W40215   2.220   9.668  14.636 -0.1028  0.1139  0.3020
25085W        W40216  13.765  17.371   3.172  0.3703 -0.0253  0.0019
25086W        W40217   7.313  16.189  14.402 -0.2301  0.0492 -0.1331
25087W        W40218  12.151  16.637   4.561 -0.1462 -0.1547 -0.0163
25088W        W40219  12.219   5.789   4.150  0.2170 -0.1875 -0.0580
25089W        W40220  11.818   6.480   5.554 -0.0747  0.1819  0.3522
25090W        W40221   6.720  12.772  14.425 -0.4403 -0.1404 -0.1859
25091W        W40222   0.581  11.692  14.771  0.1912 -0.1395 -0.2092
25092W        W40223   8.236  16.255  10.632  0.0368 -0.1325  0.1141
25093W        W40224  17.121   0.834  12.454 -0.2074 -0.0390 -0.1482
25094W        W40225   7.443   4.494   3.017 -0.1154 -0.0392  0.1838
25095W        W40226   8.316   3.172   5.197 -0.0968 -0.0857  0.5724
25096W        W40227   5.832  14.845  14.342 -0.3358  0.2176 -0.2018
25097W        W40228  18.690   1.276   5.149  0.0707  0.0539  0.0712
25098W        W40229  13.466  12.866   3.928  0.0322  0.2066  0.2073
25099W        W40230   0.944  10.269  13.248 -0.1834 -0.1399  0.2805
25100W        W40231  13.468  13.084   2.910  0.0358 -0.2095  0.1678
25101W        W40232  17.107   1.206  12.902  0.0141 -0.1937  0.1809
25102W        W40233   9.891  17.885  12.437 -0.0756 -0.3338  0.2860
25103W        W40234   0.343  13.623  13.813  0.1887 -0.1088  0.0453
25104W        W40235   8.414  10.292   5.042 -0.1127 -0.2915 -0.1024
25105W        W40236   1.366   7.473   1.515  0.2597  0.1138  0.1135
25106W        W40237   2.575  15.359  15.703  0.3259 -0.0051  0.2636
25107W        W40238   3.046  11.816   1.562  0.0264  0.0654  0.2551
25108W        W40239   7.172  14.130   3.252  0.3128 -0.2113 -0.1818
25109W        W40240   9.524  16.058  10.538  0.1284 -0.1169  0.0945
25110W        W40241   1.885   1.962  12.370  0.2683  0.0796 -0.0500
25111W        W40242   3.480   5.534  13.165 -0.0389  0.1796 -0.0235
25112W        W40243  10.359  18.361   3.296  0.2629  0.1393 -0.1117
25113W        W40244   7.285   8.305   2.269  0.1977 -0.4230  0.2348
25114W        W40245  13.910   7.447   0.104 -0.1081  0.1517 -0.0869
25115W        W40246  12.648   3.588  13.728 -0.1128 -0.0888  0.2303
25116W        W40247   9.437   8.834  11.797  0.0150  0.1445  0.2314
25117W        W40248   0.301   7.886   2.650  0.0479  0.4952 -0.2673
25118W        W40249  16.220  12.844   0.065 -0.0532 -0.2211 -0.1103
25119W        W40250  12.281  10.073  12.942  0.2862  0.0786  0.0436
25120W        W40251   1.757   5.826  13.291  0.0008  0.0166  0.1444
25121W        W40252   5.897   8.396   0.611 -0.5113  0.3842 -0.1637
25122W        W40253  14.026  17.297   1.973 -0.0242  0.0634 -0.1035
25123W        W40254   3.565  18.101   0.450 -0.0650  0.0108  0.4373
25124W        W40255   9.875  13.080  10.607 -0.0755  0.1912  0.1568
25125W        W40256   7.840   1.329   5.180  0.2954 -0.1195 -0.3030
25126W        W40257  16.391  11.649  12.454  0.0844  0.2421  0.1993
25127W        W40258   2.880  10.968   1.873 -0.1293 -0.1118  0.1104
25128W        W40259  14.892  17.300  12.670 -0.1798  0.0110 -0.2699
25129W        W40260   3.338   0.565  13.131 -0.1611 -0.1955 -0.0633
25130W        W40261  16.737  14.934  10.500 -0.2106  0.0604  0.1902
25131W        W40262   7.602   6.596   2.663  0.2076  0.3937 -0.1084
25132W        W40263   7.228  10.887  11.124 -0.2349 -0.1166  0.1551
25133W        W40264  12.801   6.681   4.841 -0.0522  0.0913 -0.2942
25134W        W40265   8.276  11.320   0.900  0.0472 -0.1225 -0.0322
25135W        W40266   1.665  10.402   3.954  0.1244 -0.0474 -0.2164
25136W        W40267   7.061  10.851   0.370  0.0621  0.1250  0.1317
25137W        W40268   6.807   4.604   1.284 -0.0641 -0.0853  0.5753
25138W        W40269  11.552   2.180  13.844  0.0565 -0.1054 -0.3114
25139W        W40270  14.767  16.518  15.750 -0.0009 -0.2468  0.1141
25140W        W40271   0.710  17.521  14.989 -0.4613 -0.1841  0.0272
25141W        W40272   2.718  18.561  14.186 -0.2105 -0.0095 -0.0516
25142W        W40273  13.608  14.226  14.208 -0.0129 -0.1460 -0.0019
25143W        W40274  13.241  15.992  14.653 -0.0941 -0.0043 -0.1835
25144W        W40275   7.331   3.320   5.732 -0.1768  0.0459  0.1362
25145W        W40276   7.162  16.258   1.364 -0.1640 -0.1178 -0.0311
25146W        W40277   1.909  14.846  15.065 -0.0401 -0.2836 -0.2798
25147W        W40278   0.543   5.946  13.737 -0.0123  0.1762  0.0714
25148W        W40279   9.231   0.237   4.711  0.1408 -0.2502 -0.0115
25149W        W40280  12.404   5.957   2.576  0.0581 -0.3150 -0.1075
25150W        W40281  15.614  14.975  10.479  0.2930 -0.1092  0.2912
25151W        W40282  14.757   7.227   0.497  0.0923  0.1880  0.0143
25152W        W40283  16.791  14.465   0.581  0.0318 -0.0909  0.1233
25153W        W40284   1.485  10.022   1.198 -0.0464  0.1866  0.0916
25154W        W40285   8.901  13.328   3.587  0.0450 -0.0787 -0.2061
25155W        W40286  13.873   6.370  11.044  0.0852  0.0679 -0.1723
25156W        W40287   0.003   2.362   2.970 -0.0645 -0.0083 -0.1500
25157W        W40288  14.115  17.941  15.058 -0.0715  0.2054 -0.2145
25158W        W40289  15.093  13.177  14.157  0.1571 -0.4669 -0.1326
25159W        W40290   7.484  16.830  10.556 -0.0575  0.1674  0.1032
25160W        W40291  18.208  11.413  12.594 -0.1662  0.0414  0.4763
25161W        W40292  12.807  17.614   3.130  0.2310  0.1294 -0.2097
25162W        W40293  13.230  12.049   3.798 -0.2337 -0.3345  0.1160
25163W        W40294  15.400   3.419   4.567  0.0045 -0.0250 -0.1444
25164W        W40295   8.046   2.245   1.958 -0.3334 -0.0387 -0.0848
25165W        W40296  16.686  13.183  13.442  0.1498 -0.2218  0.1402
25166W        W40297  17.883   0.065  12.345 -0.1681  0.1562 -0.0521
25167W        W40298  18.280  10.834  11.170 -0.0475 -0.2589 -0.3731
25168W        W40299  13.553   2.214  12.908  0.1204 -0.2493 -0.0765
25169W        W40300   1.904  13.219  11.581 -0.0049  0.0912 -0.0528
25170W        W40301   4.615  10.340   5.130 -0.1597 -0.0079  0.1114
25171W        W40302  12.620   9.613   0.647  0.2595  0.2454 -0.0167
25172W        W40303   0.594  15.842  12.419  0.2335 -0.1821 -0.0854
25173W        W40304   8.192  11.201   5.329 -0.2310 -0.3803  0.4136
25174W        W40305  18.493   5.020   3.951  0.2119 -0.1186  0.0919
25175W        W40306  11.452  11.309  13.210 -0.0973  0.3203 -0.2303
25176W        W40307  14.065  11.769   5.040  0.1584 -0.0815  0.1280
25177W        W40308   6.621   7.291  12.468  0.0987 -0.0726  0.0311
25178W        W40309  12.211   8.917   0.436  0.0922 -0.4009  0.0560
25179W        W40310   3.925   6.894   1.756  0.1164  0.3143  0.1358
25180W        W40311   6.848   2.089   4.955  0.1325 -0.1237 -0.3713
25181W        W40312   5.895  10.409  14.894 -0.4259  0.1050 -0.0088
25182W        W40313   2.465  13.597   4.204  0.0429 -0.3427  0.2257
25183W        W40314   6.535   5.446   3.861 -0.0253 -0.4179  0.2721
25184W        W40315  14.862   1.465  13.623  0.0086  0.1558  0.0305
25185W        W40316  18.460  15.295  12.044 -0.2255 -0.2575  0.1076
25186W        W40317   8.154  17.424   1.157  0.1453  0.1634 -0.1388
25187W        W40318   7.554  11.532   2.945 -0.2140  0.1071  0.1866
25188W        W40319   1.613  15.828   0.087  0.0265  0.0111 -0.1193
25189W        W40320   6.275  13.498  11.342 -0.1072 -0.0754  0.0603
25190W        W40321  15.562   8.273   5.019  0.3081 -0.0993 -0.1575
25191W        W40322  17.144   0.099  11.330  0.0126 -0.1653 -0.1315
25192W        W40323   3.715   2.156  11.123 -0.0669 -0.0371 -0.1495
25193W        W40324  17.581  10.720  13.922 -0.1068  0.0266  0.1506
25194W        W40325  15.076   7.746  13.676  0.0052  0.0276 -0.1943
25195W        W40326  12.729  12.916  12.223  0.1387 -0.1134 -0.2763
25196W        W40327  10.355  13.654   4.469  0.2204  0.2193  0.0931
25197W        W40328   5.829   9.600   0.731 -0.3235  0.2166 -0.0149
25198W        W40329   2.357   0.217  12.178  0.0342 -0.1621  0.2020
25199W        W40330   9.652   6.908   3.163 -0.2761 -0.1794  0.1053
25200W        W40331   3.455   7.241   4.399 -0.3900  0.4507  0.2930
25201W        W40332   8.073  12.807   0.993 -0.6227 -0.0256 -0.0310
25202W        W40333   1.829   7.687   3.670 -0.2230 -0.3659  0.0768
25203W        W40334   6.380  18.020  10.778 -0.3022  0.8132  0.4429
25204W        W40335   6.665  16.789  13.744 -0.3039 -0.2638  0.0556
25205W        W40336   1.257  14.586   4.421 -0.3860  0.0711  0.2866
25206W        W40337   7.324   8.245  11.818 -0.0590  0.0577  0.4854
25207W        W40338   1.704  15.700  10.311  0.0231 -0.0873 -0.0294
25208W        W40339   5.393   2.560   1.382  0.0566 -0.2906  0.5236
25209W        W40340  15.024  16.334   1.962  0.0213  0.0482  0.1697
25210W        W40341   0.855  10.045  14.557 -0.0973  0.3557 -0.0027
25211W        W40342  10.511  10.511  11.953  0.1886 -0.0090 -0.2376
25212W        W40343   2.319  15.120   2.057 -0.1327 -0.2060 -0.2938
25213W        W40344   1.073   3.241  15.405  0.0879  0.0512 -0.0015
25214W        W40345  16.136  17.220  13.193  0.0532  0.0022  0.1293
25215W        W40346   7.227  12.429   3.143  0.1132 -0.0655 -0.2854
25216W        W40347   1.777  15.052   1.093 -0.1997  0.3307  0.1693
25217W        W40348   7.011  16.551  11.414 -0.1311  0.0636  0.2594
25218W        W40349   2.799   0.621   0.404 -0.1444 -0.2514  0.2221
25219W        W40350  17.545   7.933  12.240  0.3155  0.0150 -0.0445
25220W        W40351  13.756   0.066  11.362 -0.3337 -0.3437 -0.0697
25221W        W40352   5.719   0.131   0.083 -0.0645 -0.2011 -0.1959
25222W        W40353   2.397   1.686  15.698  0.2458  0.2060 -0.0202
25223W        W40354  16.297  12.183   4.111 -0.0167  0.1684  0.0735
25224W        W40355   5.388  11.562   3.314 -0.1356  0.0332  0.0168
25225W        W40356   9.880  17.255   1.838 -0.1752  0.1115 -0.2148
25226W        W40357   7.446   0.219   3.532  0.2245  0.2013 -0.0233
25227W        W40358  11.271  12.222   5.637  0.3003 -0.1186 -0.1240
25228W        W40359  10.005   0.636  11.299 -0.1093  0.0418 -0.1330
25229W        W40360  14.975  15.489   5.742  0.0868  0.0791  0.1949
25230W        W40361   6.996   8.139   2.710 -0.2772 -0.1206 -0.3773
25231W        W40362  16.048   7.726  11.394 -0.0156  0.1308  0.0376
25232W        W40363   4.866   5.892   4.338 -0.1411  0.0238  0.2053
25233W        W40364  11.664   2.826  15.746  0.1401 -0.1047  0.1426
25234W        W40365   1.074  16.205   0.928 -0.1088 -0.0365  0.0443
25235W        W40366  10.016   2.217   5.046 -0.2567 -0.0772  0.3687
25236W        W40367   3.603   6.305  12.946 -0.0068 -0.0285  0.0477
25237W        W40368  17.586   8.867   2.112 -0.0002  0.0710  0.4254
25238W        W40369  11.801   7.925  14.789  0.0374 -0.0575  0.1908
25239W        W40370   7.453  14.906   2.842 -0.1045 -0.1011 -0.0442
25240W        W40371   8.378   5.553  10.067 -0.0571 -0.2779  0.1712
25241W        W40372   8.549   7.463   1.005 -0.2967 -0.0777 -0.0442
25242W        W40373   1.415   4.455   2.281 -0.1677 -0.0840  0.1958
25243W        W40374  18.301   9.141   4.621  0.0111  0.1166  0.2499
25244W        W40375   8.487   4.785   3.241 -0.1376  0.1250 -0.4294
25245W        W40376   7.500   6.140   9.991  0.3411  0.1692 -0.3533
25246W        W40377  16.674  13.485   3.460  0.0063 -0.2256 -0.1136
25247W        W40378   9.182   2.888  15.319 -0.0233  0.2156 -0.0297
25248W        W40379   4.375  18.190  11.173  0.1937 -0.2739 -0.0792
25249W        W40380   1.188   2.619  13.750 -0.0507 -0.3114  0.1123
25250W        W40381   4.656  18.693   5.090 -0.1325 -0.2574  0.2680
25251W        W40382   1.536  18.591   3.776  0.3816  0.0303  0.1744
25252W        W40383  10.409   6.228  12.709  0.0383 -0.0256  0.1917
25253W        W40384  15.151   5.548   3.518 -0.2109 -0.1306 -0.2364
25254W        W40385   8.456   3.836   0.447  0.3781 -0.1724 -0.0452
25255W        W40386   7.851   4.727  10.336 -0.1000  0.3581 -0.0149
25256W        W40387  11.046   3.623   1.518 -0.0664  0.0516 -0.2687
25257W        W40388   4.981  18.028  14.026  0.0813  0.1622  0.1358
25258W        W40389   8.959   2.893   3.195  0.1933  0.2027  0.1116
25259W        W40390   6.996   6.788   2.950 -0.0148 -0.0244  0.0242
25260W        W40391  15.570  12.977  11.950 -0.0825 -0.0305 -0.0590
25261W        W40392   0.701   5.551  13.093 -0.1575 -0.2059 -0.0091
25262W        W40393   5.906  13.441  12.045  0.3203 -0.1673  0.0104
25263W        W40394   4.035  18.647  13.008  0.1550  0.0271  0.0201
25264W        W40395   9.943  11.651  10.740 -0.0729 -0.0635 -0.1824
25265W        W40396   6.772   4.369  12.697 -0.0879  0.2310  0.0089
25266W        W40397   7.614   9.383  12.956 -0.1940  0.0910 -0.2041
25267W        W40398   0.652   8.144  10.597  0.0983 -0.1633 -0.0156
25268W        W40399  12.218  17.604   1.235 -0.0555  0.4085  0.1349
25269W        W40400   4.473   2.780   1.585 -0.1849  0.3158  0.0432
25270W        W40401   5.300   3.460  13.836  0.0434 -0.0126  0.0364
25271W        W40402  14.900   4.126  14.701  0.2086 -0.2125 -0.0642
25272W        W40403   0.292   2.926   4.315  0.2603 -0.1528 -0.0316
25273W        W40404  11.585  16.983   1.605 -0.1523 -0.0418 -0.1567
25274W        W40405   9.855   5.370   0.374 -0.2682 -0.3287  0.0135
25275W        W40406  10.739  18.214  14.639  0.1999  0.1268 -0.0941
25276W        W40407   1.280  11.307  14.103  0.0823 -0.1499 -0.0195
25277W        W40408  12.096  13.165   2.993 -0.2779 -0.1814  0.0799
25278W        W40409  12.927   2.146  11.686 -0.0159 -0.2229 -0.2754
25279W        W40410   5.795  10.106  12.938 -0.2400 -0.0308  0.0730
25280W        W40411   0.393   1.846  11.291 -0.0810  0.0444 -0.2255
25281W        W40412  12.893   8.223  14.575  0.0623  0.0900 -0.4137
25282W        W40413  10.081   3.968   3.554 -0.0089 -0.3168  0.0463
25283W        W40414   6.009  17.259   5.520 -0.1051  0.1502 -0.2068
25284W        W40415   3.896   1.607  11.348 -0.5328  0.0446  0.3537
25285W        W40416   1.020   5.119   0.326  0.1608  0.1469 -0.2113
25286W        W40417   4.440   7.797   1.436 -0.2296  0.1408  0.1716
25287W        W40418   2.224   9.982  12.156 -0.1072  0.0393 -0.0009
25288W        W40419  17.406  14.717  15.662  0.1983 -0.3631 -0.1004
25289W        W40420  17.543  16.534  15.386  0.0939 -0.1293  0.0456
25290W        W40421   3.392  12.098   6.126 -0.0325  0.2734 -0.0069
25291W        W40422   5.773   3.307  12.072 -0.1246 -0.1208  0.0263
25292W        W40423   7.046  17.537  11.260  0.2385  0.0053 -0.3692
25293W        W40424   8.797  12.749   4.307  0.1651  0.3054 -0.2627
25294W        W40425   1.050  13.976  11.469  0.0826  0.2574 -0.1005
25295W        W40426  11.805  10.061   1.074 -0.1936  0.0235 -0.1545
25296W        W40427  17.077  17.920   3.802  0.1448  0.1038 -0.4130
25297W        W40428   5.192  15.706   3.170 -0.0616 -0.1602  0.2239
25298W        W40429  16.430   5.301  13.298  0.0464  0.0378  0.3061
25299W        W40430   4.275   9.179  14.360 -0.0808  0.1409 -0.1348
25300W        W40431  16.987   8.503  11.713 -0.0304 -0.0539 -0.1702
25301W        W40432  16.973   3.262   2.915  0.3127  0.0313  0.0160
25302W        W40433   6.262  11.185   3.745  0.1074  0.0362  0.0071
25303W        W40434  10.698  10.131  11.221  0.1641 -0.2247  0.1916
25304W        W40435   4.353  12.927  13.016 -0.0737 -0.1708  0.0031
25305W        W40436   2.491   5.703   0.464  0.0388 -0.2668  0.3773
25306W        W40437   2.100  12.107  15.559 -0.4575  0.2388  0.0592
25307W        W40438  10.429  10.256  12.644 -0.0807  0.0673 -0.0983
25308W        W40439   8.318   6.880   3.994 -0.0962  0.1207 -0.0278
25309W        W40440   5.252   2.204  13.560  0.1380 -0.4763  0.2262
25310W        W40441  16.798   7.777   1.340  0.0138 -0.2945  0.1018
25311W        W40442   8.308   4.607   4.102  0.1186  0.0706  0.2391
25312W        W40443   1.607   4.636   4.811  0.0061 -0.1106 -0.3005
25313W        W40444  11.096  13.456   4.533  0.1686 -0.2378 -0.1426
25314W        W40445  16.108   3.371  14.118 -0.0699 -0.1223  0.0680
25315W        W40446  16.443  10.796   2.549  0.4202 -0.0313  0.2447
25316W        W40447  17.436  15.954   2.636 -0.3846  0.1599 -0.1210
25317W        W40448  13.171   0.615   0.492 -0.0930 -0.1753 -0.0506
25318W        W40449   1.542   3.240  15.180  0.0188  0.2624 -0.1170
25319W        W40450   2.901  15.402  12.197  0.2449  0.1380 -0.2493
25320W        W40451   1.292  13.244  11.771  0.0656 -0.0802  0.1805
25321W        W40452   1.104  16.425  15.379 -0.1572 -0.0422 -0.0815
25322W        W40453  11.836   5.126  14.668  0.1096 -0.0008 -0.0331
25323W        W40454  11.881   8.978  13.964 -0.2948  0.2056 -0.1653
25324W        W40455   6.702   6.722  13.320 -0.4482  0.0687  0.0126
25325W        W40456   8.630   0.804   5.188 -0.1076  0.1267  0.0834
25326W        W40457  12.717  11.469  11.151 -0.1821  0.2584 -0.1942
25327W        W40458  15.536   0.823   2.557 -0.0448 -0.0031  0.2388
25328W        W40459   5.065   7.209   4.997 -0.1240 -0.0764  0.4933
25329W        W40460   8.929   3.913   4.868  0.1895 -0.1064  0.0780
25330W        W40461   2.979   9.424   2.405  0.2304 -0.0585 -0.1142
25331W        W40462   3.051   2.214   1.839  0.1398  0.1608  0.1013
25332W        W40463  17.195  13.691   4.206  0.1049 -0.0713  0.1522
25333W        W40464   9.030  17.332  11.386 -0.0807  0.2551  0.2562
25334W        W40465   3.863   1.366   0.176  0.0396  0.2814  0.1035
25335W        W40466   3.662   3.070   5.169 -0.0209 -0.0199  0.0220
25336W        W40467  16.446   1.766  11.636  0.0009  0.3112 -0.4292
25337W        W40468  14.998  16.221   5.083 -0.0848 -0.0374 -0.0597
25338W        W40469  16.059  11.703   0.053  0.1603  0.2699 -0.2044
25339W        W40470   4.527   7.498  11.186  0.0552  0.0657  0.4182
25340W        W40471  17.715  10.221   4.055  0.4711 -0.3740  0.0381
25341W        W40472   8.250   1.141   3.592  0.2305  0.0530  0.3256
25342W        W40473   7.630  13.879   1.069 -0.0914 -0.0530  0.1029
25343W        W40474  10.516  13.033   4.264 -0.2291 -0.1888 -0.0509
25344W        W40475   7.092  10.047   1.185  0.0245  0.0885  0.1702
25345W        W40476   6.871  15.840   1.290  0.0726  0.1631  0.1443
25346W        W40477   1.095   3.138  13.606  0.0192 -0.0070  0.2411
25347W        W40478   7.336   3.572   3.285 -0.0204 -0.3289  0.2064
25348W        W40479  12.754  17.421  10.729 -0.3650  0.1440 -0.0837
25349W        W40480  18.514   5.756   3.438  0.0388 -0.3575  0.0736
25350W        W40481   1.829  15.361  13.112 -0.0762  0.3379  0.1494
25351W        W40482  12.257  14.865  14.468  0.0452 -0.0553  0.0090
25352W        W40483  15.943  12.611  11.849  0.2943 -0.3469  0.5466
25353W        W40484   1.504  15.058  12.676  0.0076 -0.1794  0.0049
25354W        W40485  15.002   6.961   2.801  0.1105 -0.2101 -0.2540
25355W        W40486  13.381   0.793   2.282 -0.3402  0.1307 -0.0666
25356W        W40487  16.566   1.433   3.475 -0.0456 -0.1729  0.2015
25357W        W40488  16.360   5.005  15.249  0.2180 -0.2414  0.2314
25358W        W40489   3.046   7.367  11.794  0.1060  0.1128 -0.2377
25359W        W40490  15.543   7.866   0.788 -0.2061  0.3509  0.1240
25360W        W40491  16.390  11.029  10.252  0.0430  0.2320 -0.0772
25361W        W40492   6.434   4.521  14.349  0.4645  0.0381  0.2625
25362W        W40493   2.752   0.167   6.144 -0.0133  0.1138 -0.0286
25363W        W40494   4.669   4.748   3.493  0.0551  0.2548  0.2191
25364W        W40495   7.726   0.090  11.790 -0.2410 -0.1525  0.0509
25365W        W40496   5.660  10.647  15.770 -0.2393 -0.0924  0.0221
25366W        W40497   3.057   2.636  12.765 -0.2307  0.1790  0.0192
25367W        W40498  12.004  10.688   1.518  0.1835 -0.0124  0.2133
25368W        W40499  12.113  18.041   0.428  0.1956 -0.2900 -0.1799
25369W        W40500  14.066   7.877  12.989 -0.2601  0.0044  0.1557
25370W        W40501   1.331  10.885  12.056  0.0127  0.2180  0.3645
25371W        W40502   4.475   8.675  15.556  0.3745 -0.0063  0.4879
25372W        W40503   9.864   6.610   0.121 -0.1344  0.0486  0.1616
25373W        W40504  17.458  15.427   1.263 -0.0800 -0.3589  0.0045
25374W        W40505  17.048  16.831   6.092 -0.2570  0.3854 -0.0474
25375W        W40506   1.966   4.352   4.411 -0.0978  0.0437  0.2947
25376W        W40507  14.361  18.120   0.104 -0.1838 -0.0300 -0.1693
25377W        W40508   0.746   3.073   1.159  0.0764 -0.1609 -0.2902
25378W        W40509  15.998  13.678   1.314 -0.2582  0.4473  0.0555
25379W        W40510   7.060   6.787  14.391  0.2958  0.3654  0.2657
25380W        W40511  14.869   3.159   3.531  0.0097  0.0564 -0.2492
25381W        W40512   5.658   0.286  11.417  0.1107  0.5030 -0.0649
25382W        W40513   2.737   1.273   0.104  0.0098 -0.3644  0.3332
25383W        W40514  12.704  16.950  10.079  0.0688 -0.0742 -0.1045
25384W        W40515  13.454   5.241   0.779  0.0021 -0.1792  0.1831
25385W        W40516   4.587  10.728  12.520 -0.0777  0.1514  0.1169
25386W        W40517   8.999   8.321   0.751  0.1004 -0.0562 -0.0494
25387W        W40518   7.990   4.709  12.646  0.2218  0.0716 -0.1001
25388W        W40519   3.547   0.188   1.143  0.3490  0.3066  0.0272
25389W        W40520  16.270   4.805  13.315 -0.1148 -0.1772 -0.0352
25390W        W40521  13.474   5.603  12.173 -0.0170 -0.0902  0.1181
25391W        W40522  18.422  10.817  13.791  0.0029 -0.0406 -0.1054
25392W        W40523  13.644  17.528  13.599  0.1859 -0.2465 -0.0686
25393W        W40524  13.012  13.298  12.324 -0.0077 -0.2804 -0.5259
25394W        W40525   0.471   2.726  15.539  0.1372 -0.0159 -0.0879
25395W        W40526  16.217   3.919   2.465 -0.0782 -0.1898  0.0640
25396W        W40527   8.726  15.929   0.074 -0.1865  0.1818 -0.2817
25397W        W40528  14.732  18.302  10.024 -0.0161  0.0126  0.3372
25398W        W40529   9.890  17.333  12.685  0.0464 -0.1605  0.2346
25399W        W40530   6.512   6.259   0.420  0.2074 -0.0935  0.0085
25400W        W40531  11.733  13.810   0.550 -0.1753 -0.2294  0.2663
25401W        W40532  12.843  11.982   2.913  0.1817 -0.2400  0.2669
25402W        W40533  12.522  13.143   2.647  0.2269  0.0216  0.0169
25403W        W40534   1.981   5.166   4.167  0.0848  0.2540 -0.0723
25404W        W40535   8.843   7.412  12.016 -0.0026 -0.1443 -0.1985
25405W        W40536  12.715  15.411   3.572  0.0890  0.0047 -0.0834
25406W        W40537  10.322  15.735   3.497 -0.0662  0.5368  0.1891
25407W        W40538  15.050   5.039   3.373  0.0118  0.3300 -0.0395
25408W        W40539   7.634  17.184  15.585  0.3228  0.1010  0.2512
25409W        W40540   5.569   9.091   0.716  0.2295  0.1378 -0.2325
25410W        W40541  17.469   2.963  12.219  0.1941  0.0482  0.4454
25411W        W40542  13.667  10.226  14.380  0.2855  0.0984 -0.0585
25412W        W40543  14.119   9.622   3.312 -0.3233  0.3095  0.1575
25413W        W40544   4.432  11.686  12.227 -0.1161  0.1194  0.0683
25414W        W40545   1.013   8.342  12.669 -0.0031 -0.2250 -0.2109
25415W        W40546  11.885   7.144   2.896 -0.0246 -0.0931  0.0099
25416W        W40547  15.078   3.138  14.806 -0.3052  0.1213 -0.2191
25417W        W40548   9.985   6.459  14.979  0.0317  0.0058  0.0632
25418W        W40549  16.583  18.200   2.828 -0.0684  0.1002  0.1497
25419W        W40550  17.845   4.191  15.503  0.5488  0.2391 -0.0288
25420W        W40551  14.364  12.060   4.613 -0.4261 -0.2621  0.3411
25421W        W40552  17.865   4.588  14.153 -0.0744  0.1016  0.2759
25422W        W40553  14.919   4.311   4.995 -0.4736 -0.2608 -0.2261
25423W        W40554  17.011   6.853  15.640 -0.5096 -0.4697  0.0062
25424W        W40555   7.891  15.617  15.551  0.4218  0.3400 -0.2242
25425W        W40556  18.376   0.727   1.859  0.1522  0.0790 -0.1365
25426W        W40557  18.557  17.899   0.132 -0.0590  0.1885 -0.1900
25427W        W40558   0.228   9.277   0.149  0.0241  0.2828 -0.4437
25428W        W40559  10.709  12.565   4.140  0.1402  0.2091 -0.1074
25429W        W40560  16.790   0.992   3.227  0.1198  0.1667  0.0972
25430W        W40561   5.931   0.976   2.422 -0.5049  0.1441  0.0502
25431W        W40562   4.987   8.491  12.944  0.2465  0.0714  0.0825
25432W        W40563  11.077  16.893  14.524 -0.0916 -0.1160 -0.0428
25433W        W40564   2.950  10.397   1.666  0.1653  0.1656 -0.0582
25434W        W40565   4.252  18.177  12.937  0.3797  0.1360  0.2411
25435W        W40566  12.449   4.108  11.292  0.1504 -0.0594  0.1501
25436W        W40567  18.402  17.519   2.643  0.2949 -0.4635  0.0479
25437W        W40568   0.653   4.223   1.344  0.1542  0.0169  0.3538
25438W        W40569   4.368  18.050  15.169 -0.0246  0.1939 -0.0394
25439W        W40570   6.664  14.835   1.442  0.1189  0.1351 -0.3061
25440W        W40571   8.355  13.137   5.003  0.0715  0.1934 -0.0680
25441W        W40572   6.768  10.372   1.510  0.0024  0.1537  0.1790
25442W        W40573  11.395   6.635   1.633 -0.1713 -0.0372 -0.1726
25443W        W40574  15.364   4.642   1.787 -0.2446  0.2815 -0.0905
25444W        W40575  18.503   7.436  14.872  0.1832  0.2935 -0.0366
25445W        W40576  17.685  13.368  11.088 -0.2862 -0.0221  0.1104
25446W        W40577   9.816   4.466  14.597  0.1364 -0.1144  0.5206
25447W        W40578  10.146  17.267  12.127  0.1153 -0.3852 -0.2247
25448W        W40579  12.959  17.147   5.068  0.2228 -0.0009  0.0898
25449W        W40580  14.128   3.095   5.098 -0.0472 -0.1853  0.0396
25450W        W40581   4.443  11.954   2.783 -0.0867 -0.0961 -0.0747
25451W        W40582  13.727   1.601   2.825  0.3217  0.0090 -0.0942
25452W        W40583  17.983  12.734   2.334  0.2274  0.0585 -0.0418
25453W        W40584  11.332   3.147   2.330  0.2025  0.1840 -0.0503
25454W        W40585   9.081   0.921  11.161  0.2610 -0.0302 -0.1166
25455W        W40586  12.122  10.146   3.395  0.1576  0.1469  0.0198
25456W        W40587  17.033   0.266   1.782 -0.2624  0.2342  0.0805
25457W        W40588   7.377   6.947  11.456 -0.0468  0.0263 -0.0550
25458W        W40589  15.551   4.262  11.666 -0.0554 -0.1237 -0.1715
25459W        W40590  13.639   3.700   0.587 -0.1132 -0.2811  0.2878
25460W        W40591   1.737  12.755   4.272 -0.0382 -0.2067  0.0337
25461W        W40592   1.361  14.762   3.917 -0.2704 -0.2641  0.2791
25462W        W40593  15.368   7.269  13.682 -0.1458 -0.0489 -0.1798
25463W        W40594  12.522  14.123  11.306  0.2406 -0.2727 -0.0180
25464W        W40595  16.268  11.632   3.130  0.1110  0.0253  0.2340
25465W        W40596  18.227   2.329  11.004  0.1778  0.1034 -0.0439
25466W        W40597   4.529  15.143   5.095  0.2115  0.1585 -0.2118
25467W        W40598  11.766  15.735   4.851  0.1259  0.4904  0.2810
25468W        W40599  13.502  14.817   9.960  0.0882  0.0176 -0.3607
25469W        W40600   7.153  14.008  13.665  0.0602  0.2252 -0.2305
25470W        W40601  16.325  18.363   1.993  0.1348 -0.1641  0.0419
25471W        W40602   2.110  16.221   3.862  0.0496  0.2244 -0.0234
25472W        W40603  11.613  18.302   0.659  0.3821  0.3600  0.0905
25473W        W40604   2.632   9.152  11.477 -0.1325 -0.0494 -0.3337
25474W        W40605  13.906   6.014   0.622 -0.0003  0.0881  0.1702
25475W        W40606   1.386  14.775  11.735 -0.4314 -0.0503  0.0470
25476W        W40607   9.332  13.887   4.691  0.0285  0.0871 -0.1081
25477W        W40608   0.578  18.417   5.558  0.1188  0.1781  0.3830
25478W        W40609   4.063   5.388   2.435 -0.0399 -0.0936 -0.3626
25479W        W40610   4.777   1.925   1.938  0.1979  0.0719 -0.0125
25480W        W40611   0.419   9.863   5.054  0.0609  0.3342 -0.1172
25481W        W40612   6.216   7.115   5.165 -0.1434 -0.1571 -0.1832
25482W        W40613   8.111  18.103   4.352  0.2060  0.3331 -0.0510
25483W        W40614  14.167   6.934  11.060 -0.3296  0.3324  0.4515
25484W        W40615   4.160   0.008   2.856 -0.2048  0.4133  0.1043
25485W        W40616  12.569   1.296   2.131 -0.0273  0.0635  0.1461
25486W        W40617   4.660  13.457   2.715 -0.1666 -0.0126 -0.0554
25487W        W40618   1.582   2.032   5.186  0.0647  0.0502  0.0709
25488W        W40619  15.050  11.726  15.384  0.3018  0.0439  0.0920
25489W        W40620   4.405   0.180   2.454  0.2178  0.0867 -0.1050
25490W        W40621  16.534   1.853  12.153  0.0309  0.3747 -0.3502
25491W        W40622   1.171   4.035   2.595  0.1000 -0.3759  0.0294
25492W        W40623  16.307  16.602  11.443  0.4893 -0.5080 -0.1927
25493W        W40624   5.996   6.783  13.988 -0.0161 -0.2051  0.1428
25494W        W40625   5.213   7.806  10.696 -0.1375 -0.3143 -0.0199
25495W        W40626   6.291  18.344   4.308 -0.2887 -0.3634 -0.0653
25496W        W40627   8.313   4.293   2.429 -0.4176 -0.2254  0.3551
25497W        W40628  16.756  11.986  11.542  0.0271  0.2944 -0.0193
25498W        W40629  14.843  16.784  11.134 -0.0203  0.4232 -0.0329
25499W        W40630   0.216  17.916  15.279  0.2687  0.4311  0.1434
25500W        W40631  13.418  12.246   0.779  0.3407  0.2639  0.0206
25501W        W40632   1.546   2.665  13.331  0.0082  0.0252  0.0680
25502W        W40633  18.587  13.627  12.648  0.1945  0.0705  0.1892
25503W        W40634   3.134   6.261   4.801  0.3911 -0.1465  0.1498
25504W        W40635  16.775   0.977  11.737 -0.0204 -0.1700  0.1760
25505W        W40636   1.361   6.024  10.876  0.2222  0.0044 -0.0051
25506W        W40637   8.301   2.383  15.274  0.2021  0.1160  0.2408
25507W        W40638  17.111  10.361   1.082  0.2214  0.2189  0.1305
25508W        W40639  16.162  16.058   0.379 -0.2712  0.1176 -0.3879
25509W        W40640   8.334  15.399   4.574  0.0587 -0.0938  0.1885
25510W        W40641   5.642   9.370   4.947  0.2275 -0.4162  0.2341
25511W        W40642   1.960   1.702   4.399  0.4436  0.1092  0.2091
25512W        W40643  12.172   5.590  14.023 -0.2261  0.1205 -0.0472
25513W        W40644   2.681  14.492   0.295  0.0865 -0.0827  0.1358
25514W        W40645  15.255  14.155   4.952 -0.2095  0.0337  0.0439
25515W        W40646  16.796   5.493   4.568  0.2845  0.2429 -0.0521
25516W        W40647   0.462   9.387   5.311 -0.1443 -0.2280  0.0586
25517W        W40648   3.362   7.877  13.517 -0.2331  0.0711 -0.1713
25518W        W40649  13.119   3.864  13.715  0.2979 -0.0857  0.2736
25519W        W40650   3.932   0.456   1.736  0.0462  0.1880  0.0403
25520W        W40651   5.101  15.120   1.440 -0.1393  0.2508  0.0292
25521W        W40652   9.017   4.714   1.531  0.2145  0.1437  0.0263
25522W        W40653   5.612  15.895  12.473  0.1097  0.1937  0.0007
25523W        W40654  14.205  10.936  13.992 -0.2852  0.1021  0.2639
25524W        W40655   9.596   3.439   4.601 -0.2764 -0.0871  0.0149
25525W        W40656   7.105   0.529   3.385 -0.1328 -0.0000 -0.1270
25526W        W40657   3.718   7.528   4.684 -0.1890 -0.1171 -0.0595
25527W        W40658  13.996  12.554  15.509  0.0440 -0.0375  0.3200
25528W        W40659   3.977  12.672  13.887 -0.0462 -0.0320 -0.0756
25529W        W40660   7.170  18.620  12.899 -0.2647  0.1135  0.1370
25530W        W40661   1.983   1.527  13.645  0.0787 -0.2056  0.0844
25531W        W40662   4.764  11.379  12.481  0.0428  0.0021  0.2400
25532W        W40663   5.402   2.477  15.571 -0.0722  0.1865  0.2928
25533W        W40664  10.696   6.563  14.963  0.0196  0.1708 -0.1179
25534W        W40665   0.351  11.048   5.295  0.0631 -0.0272  0.3141
25535W        W40666   5.280  16.226   6.185  0.3291 -0.1050 -0.1008
25536W        W40667   4.951  12.010   0.122  0.0615  0.0182 -0.1630
25537W        W40668   0.152   8.492   1.877  0.0227 -0.0323 -0.0466
25538W        W40669  17.086  14.318   1.809  0.1800 -0.0942  0.3544
25539W        W40670   0.982  11.352   3.166  0.0457 -0.1396  0.0757
25540W        W40671  10.477  17.216   5.307 -0.2935 -0.0295  0.2200
25541W        W40672  12.443   3.864   2.539 -0.0906 -0.1357 -0.0959
25542W        W40673  10.556   2.027  12.119 -0.0291  0.2916 -0.1002
25543W        W40674   6.142   3.711  15.802 -0.0750 -0.3302 -0.1109
25544W        W40675  14.485  14.915   4.120 -0.3531 -0.0264 -0.0186
25545W        W40676  14.242   0.013  12.125  0.1886  0.0132  0.1426
25546W        W40677   0.913  14.307  12.725 -0.1242  0.0552 -0.0261
25547W        W40678  12.237   1.165  11.981  0.1814 -0.0231  0.0553
25548W        W40679  16.969  18.012  12.355 -0.3716  0.0694 -0.1385
25549W        W40680   2.271   1.029   3.761 -0.1895  0.1538 -0.2572
25550W        W40681  13.637   9.518   3.227 -0.3825  0.1419  0.2041
25551W        W40682   7.540  14.689  12.565  0.1812 -0.0407  0.1992
25552W        W40683   5.708  11.151   4.090 -0.0219 -0.1193  0.0169
25553W        W40684  16.017  16.425   4.193  0.0454  0.2307  0.0060
25554W        W40685   3.211  13.677   4.874  0.0095  0.0429 -0.3898
25555W        W40686  18.140  10.643   4.981 -0.0375 -0.3032  0.0269
25556W        W40687   2.653   4.813   0.263  0.1564 -0.2382  0.0807
25557W        W40688  15.449   9.450  13.844  0.0529  0.2161  0.2955
25558W        W40689  12.440   5.441   5.055 -0.0006 -0.0020  0.0863
25559W        W40690  12.613  17.825  11.458  0.3980  0.3889 -0.1150
25560W        W40691   5.467   1.914   5.087 -0.2257 -0.1819  0.0264
25561W        W40692  12.704   5.419  11.717  0.1026  0.2042 -0.0019
25562W        W40693  13.598   3.030  14.059  0.2074 -0.0455  0.0099
25563W        W40694   1.823  16.330  12.276 -0.3505 -0.0448 -0.1555
25564W        W40695  13.878   0.583   4.574  0.0503 -0.3177  0.3256
25565W        W40696   8.077   7.404   2.333 -0.0041  0.4699  0.0537
25566W        W40697   8.535   0.804  14.047 -0.2102  0.0192 -0.4182
25567W        W40698  17.551  16.158   3.975 -0.1075  0.0287 -0.0517
25568W        W40699   0.627  11.582  12.319  0.0979 -0.0396  0.1544
25569W        W40700   3.010   3.234   3.378  0.2661  0.2777 -0.2851
25570W        W40701   0.451   8.334   1.172  0.0210 -0.0040 -0.1847
25571W        W40702   1.265   7.193   1.088  0.4010 -0.1063  0.1564
25572W        W40703   8.019  10.330  11.016  0.0309 -0.0030 -0.2063
25573W        W40704   7.498   5.233   5.592  0.0531 -0.0030  0.1593
25574W        W40705   6.977  18.689  14.546 -0.4184  0.0023  0.0591
25575W        W40706   7.634  16.316   1.778  0.2202  0.1505 -0.2463
25576W        W40707  16.291  14.035  13.518  0.1298  0.0196 -0.2859
25577W        W40708  15.393  16.734   0.739  0.1762  0.1703  0.3594
25578W        W40709   6.957  15.985   0.525  0.0254 -0.1219 -0.2335
25579W        W40710   9.187   0.032  10.412  0.2483  0.1302 -0.1399
25580W        W40711  11.089   7.208  15.754  0.0061 -0.1634 -0.2218
25581W        W40712   7.910   5.335   0.229  0.1370  0.3595  0.3538
25582W        W40713   6.218   2.446  14.945 -0.3274 -0.2632 -0.1037
25583W        W40714  10.172   6.899   9.631  0.2896  0.4583  0.1785
25584W        W40715  11.422  11.507  14.653 -0.0868  0.0158 -0.1222
25585W        W40716  17.390  13.940   1.074  0.2233 -0.0678  0.0684
25586W        W40717  17.014   9.184  12.486  0.2571 -0.2203  0.1117
25587W        W40718   4.666   4.481   0.875  0.0567 -0.1473 -0.5788
25588W        W40719  17.437  13.596  13.403 -0.0971 -0.0332 -0.1200
25589W        W40720   3.429   7.479  13.220 -0.3879  0.5265 -0.0930
25590W        W40721   8.790   7.027  10.445  0.4202 -0.1556 -0.1501
25591W        W40722  12.044  17.196  15.586  0.1864  0.4413 -0.0135
25592W        W40723   6.845   5.960   4.711  0.2031  0.0874  0.1318
25593W        W40724  11.142   7.254   2.186  0.3084  0.1544  0.1349
25594W        W40725  11.577  17.492  12.136  0.3988  0.3321  0.0378
25595W        W40726  15.484  10.024   4.322 -0.1356 -0.2178 -0.1508
25596W        W40727  12.161   3.050  12.217 -0.0005  0.0702  0.1697
25597W        W40728   7.030   9.805   0.660  0.0274 -0.0811 -0.1588
25598W        W40729   3.334   9.981  11.192  0.1421 -0.0671  0.1619
25599W        W40730   5.042  10.268   5.646  0.2571  0.0428  0.1718
25600W        W40731  18.507  18.434  15.050 -0.0563  0.0804 -0.1484
25601W        W40732  13.545  17.539   0.421 -0.2293 -0.6398 -0.1896
25602W        W40733   4.725  13.727   0.586 -0.0611  0.3344 -0.2472
25603W        W40734   4.902   0.072  14.349  0.0586 -0.0239  0.4189
25604W        W40735  16.209   8.885   2.039 -0.4049 -0.3232  0.2060
25605W        W40736  10.226  14.101  14.433 -0.1817 -0.1837  0.2094
25606W        W40737  15.355   3.399   5.194  0.0020  0.1167  0.0888
25607W        W40738  15.833  16.857   2.816  0.2572  0.2653  0.0956
25608W        W40739   3.212  17.265  13.880 -0.0793 -0.1650  0.1554
25609W        W40740  16.146   8.452   1.209  0.3403 -0.1734 -0.0645
25610W        W40741   1.553   8.249   1.188 -0.2813  0.0469  0.0378
25611W        W40742  10.436   1.211   4.425 -0.2328 -0.5836  0.0628
25612W        W40743   7.744   5.818  12.644  0.1805  0.0916 -0.0038
25613W        W40744  12.376   7.171   1.385 -0.0177  0.0692  0.0774
25614W        W40745   8.072   0.651  14.193 -0.0419  0.1494  0.0102
25615W        W40746  14.642  12.742  10.799  0.0481 -0.3054 -0.2008
25616W        W40747   0.552   9.943  11.830  0.1304  0.0033  0.1764
25617W        W40748  12.875   0.191  15.161  0.0659 -0.1741  0.0609
25618W        W40749   1.350  18.516  11.188 -0.5790 -0.2357  0.2732
25619W        W40750  18.134  16.425  14.055 -0.1234  0.0884 -0.2768
25620W        W40751   2.862   5.811  12.545  0.0299 -0.2036  0.1838
25621W        W40752  17.959   0.962  11.303  0.2290  0.0635 -0.2702
25622W        W40753   0.839   2.732   4.116  0.0343  0.2515  0.1744
25623W        W40754   4.545  14.780  14.826  0.1340  0.0145 -0.0711
25624W        W40755   9.148   8.766   2.024 -0.0861  0.1936 -0.4949
25625W        W40756   6.434  12.636  14.870 -0.0651 -0.0512 -0.1090
25626W        W40757  17.787   0.238   2.306 -0.0534  0.2996 -0.0385
25627W        W40758   0.013   7.435   2.540  0.0106 -0.1369 -0.0723
25628W        W40759  18.533   5.094  15.205 -0.0292 -0.2544  0.1212
25629W        W40760  12.394  15.478  12.227  0.2040  0.0659 -0.0296
25630W        W40761  11.157   5.389   1.302  0.0738 -0.3839 -0.1650
25631W        W40762   1.620  11.583   0.009 -0.1372  0.3025 -0.0694
25632W        W40763   9.937   9.721   9.748 -0.1932 -0.0990  0.0622
25633W        W40764  10.434  11.516  11.053  0.2953  0.0052 -0.1781
25634W        W40765   1.354  11.559   2.318  0.0098  0.1920  0.1135
25635W        W40766   5.059   3.170  14.295  0.0043  0.0947 -0.1591
25636W        W40767   5.791  14.970  13.871  0.0361  0.1358 -0.0377
25637W        W40768   2.246   5.272   3.719  0.2048  0.1640  0.1298
25638W        W40769   7.868   7.916  15.294 -0.0914  0.0826  0.2837
25639W        W40770   6.141   8.770   3.135  0.0423 -0.1209 -0.0167
25640W        W40771  15.790   1.684   5.829  0.0301  0.0771  0.2290
25641W        W40772   0.177   4.853   3.639 -0.1732  0.0778 -0.0574
25642W        W40773   2.776  17.781   4.173  0.0684 -0.0334  0.0044
25643W        W40774  12.850   6.551   4.350  0.1265 -0.1460  0.2451
25644W        W40775  12.264  15.206   2.071 -0.0135  0.0321  0.2151
25645W        W40776   1.495   8.408   4.472 -0.1901  0.0906  0.1181
25646W        W40777   6.485  17.645  10.473  0.1216 -0.3094 -0.3837
25647W        W40778   2.498  15.622   4.149 -0.0024 -0.1248 -0.2730
25648W        W40779   5.667   9.362  12.343 -0.1624  0.2435 -0.0595
25649W        W40780   1.745   0.686  14.976 -0.0669 -0.0238  0.1235
25650W        W40781  13.174   6.412  13.149  0.4338 -0.1667 -0.0478
25651W        W40782  17.359  12.464   3.993  0.1935  0.2601 -0.0987
25652W        W40783  15.153   9.619   0.159 -0.1696 -0.0781  0.1790
25653W        W40784   8.258  16.676  14.582  0.0198 -0.3411  0.3290
25654W        W40785  16.856  10.295   3.764  0.1041  0.0190  0.0970
25655W        W40786   4.148   6.566  12.703 -0.0176  0.3476 -0.1912
25656W        W40787   8.329  12.234  11.797 -0.0307  0.2041 -0.1236
25657W        W40788  16.531  10.772   3.043 -0.0221 -0.0922 -0.0174
25658W        W40789   3.382   6.785  15.647  0.2799  0.4437 -0.1388
25659W        W40790   0.445  14.596   3.494  0.0185  0.0229 -0.0410
25660W        W40791   0.270   2.751  15.033  0.2467 -0.3924  0.0811
25661W        W40792   1.336  10.458   1.419 -0.0580  0.1164  0.3458
25662W        W40793   7.254   5.708  15.303 -0.1744 -0.2470  0.2259
25663W        W40794   5.061  12.789  13.804  0.0457 -0.2488  0.1439
25664W        W40795  13.054  17.976   0.873 -0.0880  0.0787 -0.0599
25665W        W40796   3.071   1.131  14.441  0.0878 -0.1074  0.0878
25666W        W40797  13.972  14.187   4.073 -0.0639  0.3727  0.1004
25667W        W40798  14.418  11.238   0.625 -0.1774 -0.3980 -0.3118
25668W        W40799  11.145  12.682  15.183  0.0370 -0.0931 -0.0608
25669W        W40800  18.554   6.154   2.013  0.2746 -0.0873 -0.0034
25670W        W40801   8.875  10.356  14.045 -0.0441  0.2066  0.2497
25671W        W40802  14.992   6.158  15.472 -0.0242  0.3460  0.0509
25672W        W40803   6.167  10.229  11.324 -0.2570  0.4168  0.0090
25673W        W40804   4.943   4.980  13.537 -0.1506  0.0526 -0.2234
25674W        W40805  17.934  14.824   4.895 -0.0689  0.2616  0.0753
25675W        W40806   5.430   1.839   0.461  0.3174 -0.0870  0.0628
25676W        W40807   1.949  15.679   5.982  0.1691 -0.0645  0.1495
25677W        W40808   7.453  13.605  13.743  0.1806 -0.0312  0.0532
25678W        W40809  12.656  14.958   2.772 -0.0450  0.0276  0.3413
25679W        W40810   9.551  15.248  12.818  0.0419 -0.2498  0.2285
25680W        W40811  18.458   9.157  13.288 -0.1563  0.1986 -0.3815
25681W        W40812  12.687  12.485  12.515  0.1825 -0.0321 -0.0480
25682W        W40813   5.430   9.099   4.545 -0.0864  0.0231  0.0644
25683W        W40814   5.157  16.834  12.286 -0.1167 -0.0728  0.0577
25684W        W40815  17.401   0.057   5.386  0.0085 -0.0497 -0.0804
25685W        W40816  16.646  12.276  13.779  0.1582 -0.0176 -0.0538
25686W        W40817  13.974  12.793   4.106 -0.0872 -0.1190 -0.1440
25687W        W40818   4.292   9.263   1.720  0.0108 -0.1089 -0.1294
25688W        W40819  10.459  10.915   1.505 -0.1558 -0.1973 -0.2053
25689W        W40820  13.732  17.832  14.733 -0.1669  0.3002  0.0462
25690W        W40821   1.832  11.574   5.580 -0.4052 -0.0758  0.2084
25691W        W40822   8.710   1.152  13.636 -0.2490  0.0164 -0.1025
25692W        W40823   9.879   6.989  10.886 -0.1413  0.0895  0.1998
25693W        W40824  16.579  13.942  11.316 -0.2419 -0.2671  0.1739
25694W        W40825   9.271   8.071   4.827  0.0056  0.2922  0.3646
25695W        W40826   5.805   1.776   3.430  0.1212 -0.1376  0.6342
25696W        W40827  17.664  14.680   2.530 -0.1708  0.0830 -0.0276
25697W        W40828   2.497  17.994  15.667 -0.1898 -0.1648  0.0288
25698W        W40829   4.939   1.558  14.189  0.0801  0.0316 -0.1574
25699W        W40830  13.591  17.195   3.633 -0.2861  0.1655  0.3865
25700W        W40831  13.961  17.548   0.917 -0.0640  0.1555  0.0184
25701W        W40832  12.229   0.355   4.218  0.0437 -0.2185  0.3738
25702W        W40833   8.845   7.844  11.413 -0.0351  0.1062  0.2768
25703W        W40834   7.065   2.783  14.172  0.0319  0.0291 -0.1760
25704W        W40835   9.321  14.043   1.944 -0.0432 -0.0659 -0.1870
25705W        W40836  12.232  17.502   4.426 -0.3938 -0.2105 -0.0726
25706W        W40837   7.920  18.118  13.171  0.1340  0.1104  0.2244
25707W        W40838   5.874   4.385  11.078  0.1288 -0.0433 -0.3406
25708W        W40839  16.615   9.176   2.051  0.0074 -0.1618  0.4544
25709W        W40840  17.194   1.851   5.427 -0.3219 -0.3210 -0.2409
25710W        W40841  12.968   4.894   5.146  0.0179  0.2858 -0.0265
25711W        W40842  12.309   1.716   3.717 -0.1543 -0.0854  0.2208
25712W        W40843  16.480  11.598  11.005  0.1046  0.0752  0.2377
25713W        W40844  10.420  17.256   0.859 -0.2040 -0.0463 -0.0668
25714W        W40845   8.762   6.484  10.337 -0.2057 -0.2973 -0.0800
25715W        W40846   1.426   5.479  12.768 -0.1079 -0.0852  0.2159
25716W        W40847   5.365  12.614  14.170  0.3198 -0.1723 -0.3120
25717W        W40848   3.959   9.704  12.872  0.0790 -0.0660 -0.3416
25718W        W40849  14.563  14.453   1.112 -0.1654 -0.1688  0.0072
25719W        W40850  11.619   3.363  13.815 -0.0155 -0.1281 -0.1402
25720W        W40851   9.148  12.597  14.223 -0.0080 -0.1942 -0.3076
25721W        W40852  16.158  14.143   2.748  0.0813  0.0674 -0.4098
25722W        W40853   5.013   0.158  11.314 -0.0388 -0.1156 -0.0139
25723W        W40854   9.115  16.173   0.925 -0.1684  0.0110  0.1005
25724W        W40855  18.684   2.550   4.397  0.2334  0.0611  0.0882
25725W        W40856  12.648  12.344  11.715  0.2305  0.2941  0.1556
25726W        W40857   3.457  16.294   4.321  0.0193  0.3681 -0.0293
25727W        W40858   3.224   8.267   0.554 -0.2381  0.1113  0.2391
25728W        W40859  13.153   1.874   2.324  0.2172 -0.3279 -0.0702
25729W        W40860   3.179  11.274   4.135 -0.1398 -0.0222  0.1771
25730W        W40861   4.367   8.101  12.976  0.4188 -0.0023 -0.0699
25731W        W40862  13.089   2.238  12.726 -0.1818  0.1927 -0.0803
25732W        W40863   8.686  13.626   5.116  0.0420  0.1526 -0.1936
25733W        W40864  16.284  12.221   0.059  0.4456  0.1230  0.2084
25734W        W40865  10.862   0.256   4.148  0.3679 -0.0922 -0.1027
25735W        W40866   4.747  17.968  13.174  0.2617  0.3099  0.3562
25736W        W40867   5.895   7.118  13.380  0.0569  0.2674 -0.0737
25737W        W40868  13.265  10.178  15.214 -0.2971  0.1891  0.0217
25738W        W40869  14.984   2.934   0.582  0.0401  0.1974 -0.0776
25739W        W40870   4.017  10.255  15.226  0.2594  0.0437 -0.1229
25740W        W40871  11.126   4.115   1.434  0.0100  0.2727  0.2260
25741W        W40872  16.545   6.632   0.313  0.2717 -0.2883 -0.0512
25742W        W40873  14.185  16.266  12.105 -0.1304 -0.0678 -0.3998
25743W        W40874   5.648  16.362   0.010  0.2867 -0.1914 -0.0443
25744W        W40875   2.991  11.161  14.666  0.1618 -0.4061 -0.2460
25745W        W40876   7.543  16.978   4.363 -0.1469 -0.0289 -0.0177
25746W        W40877   7.604  18.112  15.742  0.2076  0.1355  0.1286
25747W        W40878   4.783   8.667  12.438  0.3096  0.4130  0.0934
25748W        W40879  17.102   6.990   2.559  0.3472  0.2456  0.0608
25749W        W40880  17.579   2.700   2.446  0.0038 -0.0040 -0.0941
25750W        W40881  17.106  14.445   3.011 -0.0462  0.1146  0.4250
25751W        W40882  16.521   3.958  10.840 -0.0628  0.0715 -0.0091
25752W        W40883   1.875   3.131  12.605 -0.2353 -0.0133 -0.1952
25753W        W40884   2.686   2.943   4.793  0.1125  0.0067  0.0192
25754W        W40885   9.269  12.584   4.263 -0.0852  0.4332 -0.0618
25755W        W40886  16.055   8.068   2.431  0.1021 -0.0203  0.2896
25756W        W40887   7.543   2.774   2.348 -0.1500  0.1786 -0.1020
25757W        W40888   2.283  10.152  14.546  0.0308 -0.0449  0.1722
25758W        W40889  16.170  10.750   0.146 -0.1803  0.0812  0.1456
25759W        W40890  16.146  13.850   4.435 -0.1082 -0.0053 -0.0215
25760W        W40891  16.740   0.107   4.349 -0.2992 -0.1768 -0.0626
25761W        W40892  11.447  16.489   1.592  0.0347 -0.2472  0.2265
25762W        W40893   9.073   0.185   5.158  0.0263 -0.0256 -0.0652
25763W        W40894  17.562  12.378  11.993 -0.2252 -0.3460 -0.2304
25764W        W40895   7.224   3.496  12.050 -0.2690 -0.1741 -0.0986
25765W        W40896  17.831  17.031   2.933  0.0245 -0.1106  0.1021
25766W        W40897  10.206  13.736   1.598  0.0827 -0.1532 -0.0612
25767W        W40898   8.244   8.291  13.345 -0.2148 -0.0099 -0.1508
25768W        W40899   4.064   4.328   0.844 -0.1370 -0.1192 -0.2091
25769W        W40900   7.703  18.574   4.202 -0.0991  0.1201  0.1564
25770W        W40901  17.359  11.966  12.716 -0.0902  0.0140 -0.1179
25771W        W40902   4.033   0.138  10.069  0.1059 -0.3737  0.0036
25772W        W40903   7.366  12.643  14.036 -0.0248  0.3927  0.2210
25773W        W40904   7.839  15.593  10.882  0.6646  0.2440 -0.1903
25774W        W40905   1.513  15.677   2.995  0.0835 -0.1106  0.0762
25775W        W40906  12.227  13.578  14.648  0.1814 -0.4586  0.0352
25776W        W40907  16.147   9.842   2.956 -0.0806 -0.0029 -0.0784
25777W        W40908   6.032  13.016   2.512  0.0204  0.3077 -0.0380
25778W        W40909   4.448   1.071   2.979  0.3016 -0.1517 -0.0058
25779W        W40910  18.026   2.079   0.858  0.0052  0.2737 -0.1890
25780W        W40911   3.448  12.494   3.027  0.1831  0.0795  0.2631
25781W        W40912   0.964  17.277   4.102 -0.1477 -0.1440 -0.1050
25782W        W40913   6.593   3.918  13.587 -0.1775  0.0814  0.0833
25783W        W40914  11.533  15.378  12.860  0.0229 -0.3606  0.1541
25784W        W40915   9.932  15.032   4.844  0.0621 -0.1391 -0.4410
25785W        W40916   7.986  17.664  11.045 -0.2071  0.1301  0.1047
25786W        W40917  17.474   6.778   4.353 -0.1338 -0.1163  0.0848
25787W        W40918   4.804  15.871  14.600  0.3509 -0.2211 -0.0294
25788W        W40919  15.266   5.613   5.042  0.3027 -0.0602 -0.3258
25789W        W40920   2.166   4.915   2.279  0.4310  0.3566  0.2730
25790W        W40921  18.037   2.623  14.826  0.2390  0.0527 -0.1508
25791W        W40922   3.043   9.455   9.877 -0.3273 -0.0366 -0.0865
25792W        W40923  18.027   0.003   0.074 -0.4659 -0.2546 -0.1580
25793W        W40924  15.638  11.419  12.743  0.1455 -0.0499  0.0761
25794W        W40925   9.337   6.847  13.572 -0.2624 -0.1790  0.0588
25795W        W40926   1.217   2.761   3.696 -0.0765  0.2615  0.6693
25796W        W40927   0.893   0.748  13.445 -0.2132 -0.1397  0.2200
25797W        W40928  17.955   1.788  14.751 -0.2595  0.1160  0.0885
25798W        W40929  15.686   3.685   0.195  0.1024 -0.2637 -0.0880
25799W        W40930   6.879   5.977   5.284 -0.1002  0.1148  0.2838
25800W        W40931   4.871   3.514  13.150 -0.0180  0.1713  0.2972
25801W        W40932  15.838   3.035  15.302 -0.1663 -0.1871  0.1690
25802W        W40933   2.063  12.780   3.510  0.2121  0.0723 -0.0884
25803W        W40934  13.092   4.350  15.000 -0.2170  0.3001 -0.0120
25804W        W40935   8.977   2.297   3.726 -0.1950  0.0336 -0.0258
25805W        W40936   4.505  12.560   1.426 -0.1483 -0.0692  0.0878
25806W        W40937   4.358   2.934  12.790 -0.6037 -0.0238  0.1417
25807W        W40938  13.491   2.156  14.770 -0.0770 -0.1141 -0.1895
25808W        W40939  18.112  11.436  11.192  0.2603  0.1992 -0.2346
25809W        W40940   8.988   8.948   4.557 -0.1507 -0.0852  0.1340
25810W        W40941  17.520   0.584  12.268 -0.1391  0.0324  0.1377
25811W        W40942  11.588   9.404  11.892  0.4854  0.0589 -0.0677
25812W        W40943   0.672   8.672  12.707  0.0154 -0.2237 -0.1980
25813W        W40944  11.613  12.501   3.431 -0.1061 -0.1995 -0.0998
25814W        W40945   6.546   4.596   4.847 -0.3827  0.1093  0.0354
25815W        W40946   4.211  12.647   3.512 -0.0287  0.0998  0.2401
25816W        W40947   1.135  18.076  12.676 -0.1548  0.0196 -0.0213
25817W        W40948   9.685   8.792   0.106 -0.2352 -0.4161  0.2962
25818W        W40949  13.203  10.003  11.823 -0.1306  0.1442  0.0029
25819W        W40950  11.368   1.478  12.260 -0.0447  0.2716  0.2378
25820W        W40951   9.574   5.870  12.247 -0.0076 -0.3108 -0.0552
25821W        W40952  15.344   8.766  12.528  0.2899 -0.0314 -0.0020
25822W        W40953  11.095  10.333   4.570  0.0631 -0.0066  0.0519
25823W        W40954   8.731   3.609  11.386  0.4196 -0.0039 -0.0138
25824W        W40955   3.214   6.978   9.507  0.1581  0.4297 -0.1188
25825W        W40956   6.130   7.827   0.112  0.0710 -0.0466 -0.4822
25826W        W40957  14.062   4.812   3.117  0.0911 -0.0765 -0.0198
25827W        W40958  12.512   5.050  12.830 -0.3285 -0.4265 -0.1748
25828W        W40959  12.715   4.084   4.042  0.2970 -0.3569 -0.0375
25829W        W40960   5.803   1.451   4.327 -0.0963 -0.0724 -0.3286
25830W        W40961  17.990   5.877  12.058  0.2668  0.2221 -0.0332
25831W        W40962   9.173  16.006  12.466 -0.0713  0.1103  0.3987
25832W        W40963   1.088  11.619   1.730  0.0945 -0.2215  0.2151
25833W        W40964   5.502  11.464   1.014  0.3939 -0.0568  0.3045
25834W        W40965   7.679   6.047   4.954  0.2133 -0.3544 -0.0325
25835W        W40966   0.860  14.993   4.166  0.0953  0.1534  0.1328
25836W        W40967   5.283  10.913   0.178 -0.0015  0.0854 -0.0157
25837W        W40968   2.406  10.779   3.619  0.1286 -0.0471 -0.1874
25838W        W40969  12.759  15.240  13.660 -0.2049  0.0650  0.2894
25839W        W40970   3.499   4.391   0.315 -0.5486  0.4252  0.0427
25840W        W40971  10.309  12.863   0.605 -0.1725 -0.1411  0.1772
25841W        W40972  10.071  17.599  13.701 -0.1639  0.1244 -0.3855
25842W        W40973  11.342   5.280  10.390 -0.1121 -0.0489 -0.0416
25843W        W40974  15.562   3.792  14.605  0.1779  0.0281 -0.2732
25844W        W40975   3.785  12.161  13.777  0.1500  0.0123 -0.1830
25845W        W40976  14.878  17.680  11.826  0.1908  0.1460 -0.1417
25846W        W40977   7.648   5.548   4.849  0.4233 -0.4051  0.0471
25847W        W40978  13.679  13.954  15.365 -0.1853  0.1777  0.0002
25848W        W40979   0.777  12.253  14.810  0.0584 -0.1063 -0.0822
25849W        W40980  13.494   2.452  12.361  0.2025  0.1232 -0.0392
25850W        W40981   0.615  17.665  12.087 -0.2275 -0.1442  0.0651
25851W        W40982   4.125   1.673  14.494  0.1370  0.0852 -0.1490
25852W        W40983  12.339   3.951  14.205 -0.0049 -0.2449 -0.0655
25853W        W40984  12.808   7.797   3.505 -0.0115 -0.1187  0.0386
25854W        W40985  10.307  10.114   2.172 -0.0800 -0.2445 -0.1587
25855W        W40986   5.102   8.872  14.215 -0.0111 -0.1077  0.1044
25856W        W40987   7.546   8.726   2.433  0.4683 -0.1579 -0.3918
25857W        W40988  10.256   2.665  14.328  0.0008 -0.0664  0.0631
25858W        W40989  18.663   2.549   0.284  0.2179  0.2151 -0.2747
25859W        W40990   8.922   5.793   4.746  0.0629 -0.1890  0.1661
25860W        W40991  10.679   8.793  15.714 -0.4351  0.1567 -0.1744
25861W        W40992   9.277  18.694  11.962 -0.0686 -0.0385  0.0417
25862W        W40993  15.433  17.126   9.926  0.0117  0.1507 -0.0526
25863W        W40994   8.850  16.467   4.562 -0.0377 -0.1001 -0.0421
25864W        W40995   2.302  16.886   5.319  0.2033 -0.2642 -0.2854
25865W        W40996   0.721  10.609   3.572  0.1373 -0.0603  0.1654
25866W        W40997  13.619   2.141   2.352 -0.0885 -0.0062 -0.2583
25867W        W40998   7.865  16.761  12.008 -0.0208  0.0671  0.1996
25868W        W40999  14.898   2.323   1.451 -0.0643 -0.2245  0.2203
25869W        W41000  14.464   6.843   3.645 -0.4206 -0.0204 -0.1420
25870W        W41001   3.234   3.852   2.732  0.0373 -0.0545 -0.2367
25871W        W41002   4.456   8.695  12.967 -0.0238 -0.2015  0.0318
25872W        W41003   7.616  17.561   4.425 -0.0385 -0.2675  0.1547
25873W        W41004  10.855  14.883  14.398 -0.2926 -0.0401 -0.0036
25874W        W41005  11.530  14.552   4.589  0.0573  0.1092  0.5215
25875W        W41006   2.388   5.861  14.384 -0.2037 -0.0144  0.2008
25876W        W41007   4.127   5.665   1.455  0.0870 -0.2220  0.1176
25877W        W41008  14.697  18.138   2.582  0.1780  0.1111 -0.2544
25878W        W41009  17.142  14.720  14.444 -0.1955  0.0287  0.0380
25879W        W41010   0.361   7.109   2.536 -0.3613  0.1123  0.3788
25880W        W41011  13.278   7.541  12.759  0.1945  0.1025  0.0103
25881W        W41012   4.413  14.177  12.659  0.0556 -0.0595  0.1429
25882W        W41013   4.753  18.396  11.513 -0.0659 -0.2986 -0.0998
25883W        W41014  16.827  18.538  12.132 -0.4244 -0.1474 -0.3933
25884W        W41015   3.129   3.678   3.705  0.2082 -0.3650 -0.2479
25885W        W41016   7.626  13.475   0.216  0.0279 -0.0166  0.1277
25886W        W41017  13.555   8.401   2.005 -0.0423  0.1434  0.1293
25887W        W41018  11.544   0.260   2.886  0.0228  0.0307 -0.3447
25888W        W41019   3.231  15.914   4.642  0.2118 -0.0038 -0.0403
25889W        W41020   2.762  17.839   4.653  0.1256  0.1086  0.1118
25890W        W41021  16.609  13.058   0.934  0.0137  0.0104  0.1655
25891W        W41022  13.261  14.752  10.821 -0.0917 -0.2929  0.0355
25892W        W41023   9.144  18.161   2.661 -0.2756 -0.1977 -0.0089
25893W        W41024  18.260   0.064   0.574 -0.1688  0.1706 -0.1395
25894W        W41025   0.566   8.145  13.440  0.1787 -0.0176 -0.0160
25895W        W41026   1.252   0.236  13.577 -0.0447  0.1691  0.1880
25896W        W41027   1.690  18.546  13.391 -0.0766  0.0409  0.1075
25897W        W41028  14.473   3.244  14.596  0.0112  0.0471 -0.1850
25898W        W41029  12.563   9.929   1.133  0.1865  0.0241  0.0389
25899W        W41030   1.753   9.923   3.679  0.4253  0.1725 -0.2966
25900W        W41031   6.871   3.172   0.323  0.2295 -0.1626 -0.2321
25901W        W41032  13.519   8.442  14.945 -0.2112  0.4362  0.0418
25902W        W41033   8.896   0.812   2.737 -0.1427  0.0049  0.1484
25903W        W41034   4.182   6.581   4.172 -0.2239 -0.1344 -0.0473
25904W        W41035  17.530  14.336  14.399  0.0157  0.0741  0.0383
25905W        W41036  18.071   6.842   4.372 -0.1564 -0.3198  0.0458
25906W        W41037  15.960  10.406   4.748  0.2573  0.1845  0.0166
25907W        W41038   3.818  16.463  10.545 -0.1391 -0.2011 -0.3173
25908W        W41039   8.660  13.027   2.335  0.0242  0.3199 -0.2242
25909W        W41040  12.382   3.706   2.040  0.3342 -0.0622 -0.3423
25910W        W41041   9.213   9.731  11.984 -0.1568  0.0946 -0.0110
25911W        W41042   3.336   2.803  13.489 -0.3074  0.2878  0.0416
25912W        W41043   1.134   6.198   0.517 -0.0591  0.1836 -0.4674
25913W        W41044   1.700  17.778   4.103 -0.1363 -0.1039  0.2566
25914W        W41045  10.859  14.871  11.410  0.2159  0.0343  0.1433
25915W        W41046  13.431  17.320  11.672 -0.0642  0.0228 -0.1841
25916W        W41047   3.534  14.873  10.564  0.0851 -0.1143  0.0968
25917W        W41048   2.715   3.043  14.608  0.1327 -0.0648  0.4629
25918W        W41049   6.256  16.521  12.567 -0.0200  0.1111 -0.2721
25919W        W41050   4.932   9.447   4.384  0.0219 -0.0188 -0.1336
25920W        W41051   2.092   1.070   1.940 -0.1450  0.0909  0.3519
25921W        W41052   1.434   8.616   2.961 -0.1243 -0.0027 -0.0723
25922W        W41053   1.234  16.076  11.556  0.1554  0.5145  0.2016
25923W        W41054   9.346   9.919   2.830 -0.0754  0.0925  0.2445
25924W        W41055   8.531   4.243   5.924 -0.2889 -0.0790 -0.3959
25925W        W41056  17.185  17.877  14.796  0.1443  0.0589 -0.0341
25926W        W41057   0.453   3.107   3.842 -0.4530  0.1505  0.0161
25927W        W41058   2.742  12.065   1.911  0.0325  0.0092  0.3493
25928W        W41059  11.060   3.798  10.683 -0.1818 -0.1674  0.1023
25929W        W41060  17.766  17.702  11.796 -0.1434  0.3542 -0.2030
25930W        W41061   7.446   1.294  12.344 -0.0368  0.2736 -0.2063
25931W        W41062   7.123   5.375  14.664  0.0032  0.2269 -0.0166
25932W        W41063  18.618  10.998   0.694  0.2780  0.0672 -0.0716
25933W        W41064  12.464  12.131  12.160 -0.1395 -0.1515  0.0749
25934W        W41065  16.846   1.338  13.277 -0.1127  0.0562  0.0961
25935W        W41066   6.519  17.967   3.907  0.2462 -0.0678 -0.0340
25936W        W41067   2.109   4.911   3.312 -0.1820 -0.1288 -0.1688
25937W        W41068  16.593  15.069  15.190  0.2280  0.1597 -0.0650
25938W        W41069  14.005  14.457   2.784  0.1539 -0.1391  0.1005
25939W        W41070  18.278   6.920  15.553  0.0843  0.0763 -0.1318
25940W        W41071   6.285   5.151   2.532  0.2973 -0.0215 -0.0028
25941W        W41072   8.792  17.262  11.916  0.1232 -0.1902  0.1867
25942W        W41073   5.321   1.668   2.750 -0.1143 -0.2351  0.0130
25943W        W41074   9.705  16.515  10.614  0.2001 -0.2249 -0.0655
25944W        W41075   7.190   8.200   3.667 -0.1233  0.1927  0.0501
25945W        W41076   5.536   7.028   1.554  0.2687 -0.2885 -0.0300
25946W        W41077  12.357  11.358   0.904  0.1848 -0.1084  0.1339
25947W        W41078   0.415  16.701   2.470  0.2020  0.0067  0.0434
25948W        W41079  16.734   5.252   0.490 -0.0160 -0.1326 -0.1412
25949W        W41080   9.690  12.540  14.805 -0.0890 -0.1690 -0.1839
25950W        W41081  14.984   8.854   2.278 -0.0363 -0.2680  0.1938
25951W        W41082   1.434   2.003   1.302  0.3721  0.1168 -0.0838
25952W        W41083  16.105  12.557  14.441  0.0238 -0.0275  0.0679
25953W        W41084  11.232   0.098  15.638 -0.1005  0.0117  0.1503
25954W        W41085  12.028  11.363  11.537 -0.0409 -0.1581 -0.1866
25955W        W41086   7.726   5.576  11.483 -0.4310  0.1768  0.1139
25956W        W41087  13.622   6.460   0.897  0.2642 -0.2402  0.2104
25957W        W41088  12.326   0.918  11.340  0.1528  0.0070 -0.3661
25958W        W41089  12.675  17.104  13.271 -0.0588  0.1369  0.0020
25959W        W41090  10.992  11.918  11.879  0.0383 -0.3011 -0.3001
25960W        W41091   7.402  11.857   3.229  0.1633  0.1824 -0.1558
25961W        W41092  11.962   0.418   5.976 -0.0765 -0.0029  0.0818
25962W        W41093   7.036  15.916  11.391 -0.0286  0.0255  0.4617
25963W        W41094  14.430   9.784  15.401  0.3727 -0.2206  0.2068
25964W        W41095   4.047  13.028  11.100 -0.0187 -0.2353  0.2581
25965W        W41096   1.026  10.582   5.043  0.2172  0.2032  0.2445
25966W        W41097   8.717   4.463   4.514  0.0182  0.0009  0.1727
25967W        W41098  13.687   3.126  13.081  0.1136  0.3281  0.2274
25968W        W41099  10.073  13.811   2.878  0.1562  0.1001 -0.3097
25969W        W41100   4.542   6.192  12.023 -0.0265  0.0313 -0.1364
25970W        W41101  15.440  17.184   4.117  0.2790 -0.2148  0.0247
25971W        W41102  12.249  14.416  11.627 -0.4074 -0.1159 -0.1232
25972W        W41103  11.601  15.325  15.633 -0.0135  0.0927 -0.0910
25973W        W41104   3.625   4.708  10.594  0.2352 -0.0267 -0.0589
25974W        W41105  16.649  16.738  13.055 -0.0151 -0.1009 -0.1973
25975W        W41106   1.747  16.677   2.319 -0.0066 -0.1335 -0.1809
25976W        W41107   1.147   8.949   4.282  0.1560 -0.1136  0.2558
25977W        W41108   2.930  14.031  11.328 -0.0170 -0.0940 -0.2766
25978W        W41109  10.807  15.357   2.381  0.1221  0.0822  0.3235
25979W        W41110   1.048   6.196  10.463 -0.3212 -0.0101  0.4155
25980W        W41111   2.394  12.263   6.092  0.2569 -0.0053  0.0922
25981W        W41112  13.090  17.226  11.287  0.0590 -0.3179  0.1900
25982W        W41113   4.894   7.790   1.262  0.2413 -0.1953 -0.1196
25983W        W41114   7.585   8.892  13.543 -0.0185 -0.0988 -0.0221
25984W        W41115  15.344   5.136   0.830  0.2491  0.1523 -0.1436
25985W        W41116   1.435   0.672   2.621 -0.2455  0.1011 -0.2761
25986W        W41117   6.091   6.845   1.684 -0.3219  0.0942  0.2294
25987W        W41118  18.535   2.098  10.595  0.0099  0.1453  0.1910
25988W        W41119  11.731   4.193  10.377 -0.1604 -0.4492 -0.1192
25989W        W41120   5.680  17.934   4.563 -0.2687  0.0841 -0.0317
25990W        W41121  18.124  16.997  14.435 -0.1312  0.3025  0.2680
25991W        W41122  10.847  15.777  10.840 -0.0176  0.1058  0.1848
25992W        W41123   0.853   2.073   1.168  0.0063 -0.0844 -0.0488
25993W        W41124   9.755  14.685   2.790  0.2610  0.2940 -0.2272
25994W        W41125  14.577  13.654  14.276 -0.0114 -0.1146  0.1765
25995W        W41126   1.913   9.344   4.032  0.0934 -0.0845 -0.1626
25996W        W41127   8.033   0.596   0.159 -0.0290  0.3394 -0.2074
25997W        W41128  11.481   0.364  10.948 -0.1937  0.0547 -0.1262
25998W        W41129   0.909   5.856  11.786  0.1394  0.4593 -0.2864
25999W        W41130   0.368   6.480  11.042  0.1037 -0.1884 -0.0723
26000W        W41131  17.626   8.532  15.326 -0.3466  0.3223  0.1275
26001W        W41132  15.999   6.757  13.938  0.1979  0.1499 -0.3665
26002W        W41133  12.828   1.940   0.275 -0.0878 -0.3323  0.0701
26003W        W41134   5.480  17.814   3.076  0.0134 -0.0299 -0.0825
26004W        W41135  10.420   1.619  14.175 -0.1882 -0.3281  0.2325
26005W        W41136  14.688  11.311  15.416 -0.0344 -0.0029  0.0170
26006W        W41137   5.866  15.879  12.037  0.1780 -0.0228 -0.2004
26007W        W41138  11.555  11.511   3.225 -0.3041  0.0035 -0.3046
26008W        W41139   7.521  18.019   1.212 -0.1677  0.4377 -0.2327
26009W        W41140   3.283   9.992   5.071 -0.1666 -0.2665 -0.2122
26010W        W41141   4.581   3.323   4.908  0.0388  0.1040 -0.0151
26011W        W41142   5.237  12.738  14.612 -0.0256  0.0477 -0.2063
26012W        W41143   6.069  16.319   2.197 -0.0251  0.3458  0.0627
26013W        W41144  17.894  10.105   4.989 -0.0557  0.0818  0.2043
26014W        W41145  15.389   0.725  13.743  0.3954  0.1632  0.2286
26015W        W41146  18.713  13.950   2.291  0.3124  0.2514 -0.2400
26016W        W41147  12.642  14.644   0.696  0.3135 -0.0780  0.0553
26017W        W41148  16.702   8.150   4.823 -0.0376  0.1867 -0.0160
26018W        W41149  17.305  12.465  14.780  0.0523 -0.1481 -0.3100
26019W        W41150   8.847   0.687   3.486  0.1040 -0.3269 -0.1672
26020W        W41151  12.147   4.646  12.962  0.1919  0.1869 -0.0992
26021W        W41152  10.259  12.549  13.975  0.1224 -0.1142  0.1594
26022W        W41153   2.236  10.243   3.997 -0.2546 -0.2702  0.0442
26023W        W41154   1.255  14.444  11.382 -0.0924  0.1673  0.0544
26024W        W41155  18.065   4.880   2.956 -0.1191  0.0885  0.1379
26025W        W41156   8.371  13.217   1.459  0.0917 -0.1138  0.0874
26026W        W41157   1.941  10.388  10.707 -0.3158 -0.0029 -0.1899
26027W        W41158   9.268  16.811   2.451 -0.3614 -0.2051 -0.3053
26028W        W41159   5.568  18.102  12.877 -0.2170  0.0663 -0.2466
26029W        W41160   5.296  18.053   1.144 -0.2058 -0.1224 -0.1639
26030W        W41161  17.167   7.735  11.358  0.2769 -0.0001  0.0280
26031W        W41162  12.825   5.538   1.327  0.1893  0.2754 -0.0063
26032W        W41163   8.210  16.927   1.967 -0.0053 -0.1493  0.1158
26033W        W41164  13.997  12.196  14.581  0.0722  0.0099 -0.4128
26034W        W41165  14.134   9.161  12.690  0.0922 -0.1232  0.1383
26035W        W41166   4.049  10.632  12.703 -0.3812  0.2090 -0.1793
26036W        W41167   7.647   2.555  13.649 -0.0974 -0.3790 -0.0445
26037W        W41168   5.735   1.531  15.301  0.2649  0.3780  0.4217
26038W        W41169  17.701   7.654   0.692 -0.1440  0.1723 -0.0859
26039W        W41170  17.237   9.569   3.633  0.4761  0.2216  0.0206
26040W        W41171   2.427  15.208   4.618  0.0373  0.1112 -0.1011
26041W        W41172   0.579  15.753   2.129 -0.1173 -0.2007  0.0325
26042W        W41173  13.692   2.437   1.843  0.0830 -0.1975  0.0244
26043W        W41174  16.226   1.698  13.043  0.4690  0.0426  0.0874
26044W        W41175  13.788  18.654  12.926  0.1039  0.1290  0.3384
26045W        W41176   3.591  12.318  12.259  0.2399 -0.0018 -0.1356
26046W        W41177   4.229   6.320   0.801 -0.0958  0.3060  0.2704
26047W        W41178   6.959  10.874   2.302 -0.0145 -0.0560  0.2401
26048W        W41179   4.012   1.831   3.962 -0.1561  0.0728 -0.0094
26049W        W41180   7.852  15.215   3.075 -0.1257  0.3234 -0.0773
26050W        W41181  10.888  12.832   9.530  0.1930 -0.0292 -0.1646
26051W        W41182  18.604   8.631   0.354 -0.2007  0.1070 -0.1403
26052W        W41183   0.923   0.498   3.782 -0.0309 -0.0045  0.0057
26053W        W41184  15.272  12.216   5.502 -0.0863  0.1797  0.0615
26054W        W41185   2.233   4.245  11.862 -0.2766 -0.2754 -0.3068
26055W        W41186   6.056  12.995   3.589 -0.1683  0.0469  0.2359
26056W        W41187  10.827   1.873  14.157 -0.0005  0.0197  0.0371
26057W        W41188  16.667  16.565  10.249 -0.1356 -0.0224  0.2640
26058W        W41189  18.532   6.062   3.070 -0.4206  0.2009 -0.2996
26059W        W41190  12.206  13.024   9.282 -0.0745  0.0603 -0.1376
26060W        W41191   5.017   7.793   5.142 -0.0241  0.2654 -0.0143
26061W        W41192  10.270  12.337   3.687  0.3733  0.1406 -0.0230
26062W        W41193  14.160   8.866   1.531  0.1617  0.0289 -0.0623
26063W        W41194   1.487   0.756  13.614 -0.0263 -0.0301 -0.1432
26064W        W41195   5.269   4.851  14.580 -0.1417 -0.1314  0.1890
26065W        W41196  15.714   9.101   5.886 -0.0656 -0.2225  0.0068
26066W        W41197  17.063   8.455  13.424 -0.0475  0.2129 -0.2660
26067W        W41198   7.245   4.003  10.983 -0.1074  0.1115 -0.2470
26068W        W41199  14.075  18.531  14.992  0.0932 -0.0765 -0.1359
26069W        W41200   3.753  17.620  14.589 -0.0269 -0.0418  0.3279
26070W        W41201  10.273   0.760   1.401 -0.0361  0.1207 -0.1440
26071W        W41202   9.058   7.095   0.213 -0.0865 -0.1977 -0.0946
26072W        W41203  16.489  12.114  11.083 -0.0800  0.2435 -0.2295
26073W        W41204  14.500  10.852  13.083 -0.1831  0.0030 -0.2275
26074W        W41205  17.403   8.604  14.222  0.0954  0.1858  0.1169
26075W        W41206   4.305   4.498  14.095 -0.2453  0.1458  0.0491
26076W        W41207   1.140  11.335  13.602  0.1039  0.0287 -0.1273
26077W        W41208   2.085  15.509   4.916  0.1265  0.2470 -0.4659
26078W        W41209   0.036  15.907  12.725  0.3992  0.0517 -0.2165
26079W        W41210   0.714  10.173   2.466  0.0937 -0.0838  0.1960
26080W        W41211   3.020   4.924   4.185 -0.1270  0.1374  0.0647
26081W        W41212  16.402   9.025   2.508  0.3053  0.1666 -0.1743
26082W        W41213   5.525   9.137   5.482 -0.1133 -0.0687  0.2518
26083W        W41214  18.110  18.292  12.299  0.0177 -0.2973  0.0647
26084W        W41215   7.000  18.142   5.692 -0.0941 -0.1552  0.1297
26085W        W41216   5.387   8.315   3.471  0.0858  0.1227 -0.0111
26086W        W41217  15.269  11.123  11.405  0.0720 -0.1797  0.0655
26087W        W41218  11.931  11.151   2.308  0.0459 -0.3904 -0.2033
26088W        W41219  16.103   2.127  15.511 -0.1374  0.0378  0.0573
26089W        W41220  15.704   9.280   0.138 -0.1606  0.1301 -0.1119
26090W        W41221  10.363  12.924   5.492  0.1733 -0.0827  0.2580
26091W        W41222  18.182   2.894   1.736  0.1554 -0.2169  0.0101
26092W        W41223  15.101   5.592   4.575  0.3464 -0.0667  0.2431
26093W        W41224  17.067  11.523   2.995 -0.1634  0.3593 -0.3551
26094W        W41225  15.144  10.371   2.006  0.0655  0.2396 -0.0956
26095W        W41226  14.945  11.970   0.474 -0.3022 -0.0152  0.0891
26096W        W41227   9.801  18.078   0.842 -0.0857  0.1367 -0.1670
26097W        W41228  15.173   2.398  12.026  0.0280 -0.4456  0.0517
26098W        W41229  12.202  10.241   1.456  0.0157 -0.1435  0.2589
26099W        W41230   6.019   5.131   2.995  0.1940 -0.2569  0.2683
26100W        W41231  12.145   6.155  12.000 -0.1250  0.1956  0.0353
26101W        W41232  16.083  12.252   4.926  0.0138  0.1470 -0.2512
26102W        W41233  14.454  10.080   1.418  0.3438 -0.2265 -0.2649
26103W        W41234   2.659  14.345   0.931 -0.1913  0.0135  0.0642
26104W        W41235   2.068  13.137  15.797 -0.0256 -0.2001  0.1114
26105W        W41236  18.340  18.406   0.890 -0.0111  0.1369  0.4186
26106W        W41237  15.480   6.417  13.524 -0.1800  0.3492  0.0333
26107W        W41238   5.331   0.627   4.531 -0.1886  0.0927  0.2736
26108W        W41239   6.717  16.146  11.752 -0.0410 -0.2001 -0.0377
26109W        W41240   3.242   1.375   3.898 -0.2935  0.0862 -0.0496
26110W        W41241   0.461   0.945   2.056  0.3793  0.2784 -0.0962
26111W        W41242  14.113   1.177   2.919 -0.0044  0.1431  0.1943
26112W        W41243  17.523  14.675  13.516 -0.7072  0.0622  0.2567
26113W        W41244   1.479   9.344  15.415  0.1657 -0.2614  0.2341
26114W        W41245   1.235  14.232  12.360  0.4131  0.2017 -0.3008
26115W        W41246   9.739   2.015  13.174  0.0057 -0.0143 -0.0822
26116W        W41247  18.178   1.116   2.219 -0.0017  0.0812  0.0239
26117W        W41248  18.476   8.327  10.981 -0.1917  0.1676 -0.0033
26118W        W41249  11.039  11.282  13.521 -0.0333 -0.3914 -0.2029
26119W        W41250   6.611  18.607   0.353  0.0847 -0.0047 -0.1821
26120W        W41251  13.511  16.251  11.777  0.0787 -0.1753 -0.0888
26121W        W41252  14.007   9.755   4.511 -0.0015  0.1504  0.0698
26122W        W41253   0.825  10.137   5.234 -0.0852 -0.2230  0.2712
26123W        W41254   1.434  18.671   3.228  0.1369 -0.2172  0.0242
26124W        W41255  14.707  11.633   5.857  0.0757 -0.1542 -0.1090
26125W        W41256   1.881   7.148  15.747 -0.0012 -0.1149  0.0153
26126W        W41257  18.264   1.107  11.657  0.0583  0.0017 -0.0402
26127W        W41258  18.506  17.373   4.224  0.0258  0.1265  0.0194
26128W        W41259  10.152  11.789   2.150 -0.0168 -0.0220 -0.1680
26129W        W41260   7.554  13.017  15.398 -0.4272 -0.4331  0.0276
26130W        W41261  11.160   0.469   0.943  0.1519  0.0881  0.3706
26131W        W41262  11.503  14.549  15.029  0.0471 -0.0422 -0.1678
26132W        W41263   2.409   2.945  11.369  0.0012  0.1127  0.0685
26133W        W41264  18.714   6.549   3.319 -0.0030  0.1132  0.1154
26134W        W41265   3.477   7.308   0.512  0.1376 -0.0234  0.1587
26135W        W41266   3.725   2.428   6.336  0.2512  0.1707 -0.1327
26136W        W41267  17.032   8.806  11.008  0.0446  0.1568 -0.0576
26137W        W41268  14.952  12.925  15.167  0.3097 -0.0083  0.0222
26138W        W41269   8.083  10.862   3.120  0.0555  0.1628  0.3100
26139W        W41270   2.237  18.323   3.036 -0.1276  0.1992 -0.0844
26140W        W41271   6.894   4.015   4.100 -0.3780 -0.0052  0.0981
26141W        W41272  14.145  16.315  13.046 -0.0464 -0.0639 -0.2656
26142W        W41273   0.495  13.077  13.472  0.0078 -0.0336 -0.1790
26143W        W41274   9.625  18.185  11.127  0.0614 -0.0410 -0.3218
26144W        W41275   5.159   3.336   1.314  0.1548  0.0251  0.0254
26145W        W41276  11.539  12.705  10.913  0.0511  0.1807  0.1554
26146W        W41277   4.174  15.096  13.837 -0.2527 -0.1880 -0.0746
26147W        W41278  16.882   2.652   4.662 -0.1917 -0.0537  0.0147
26148W        W41279   4.241  10.345  12.272 -0.1764  0.0169 -0.0451
26149W        W41280  14.211  10.198  14.429  0.1262  0.3118  0.0102
26150W        W41281  11.337   2.219   4.310  0.3514  0.0745  0.0573
26151W        W41282   5.633   0.828  11.527  0.0939  0.2419 -0.0293
26152W        W41283   8.691  15.729   4.450  0.2140  0.2588 -0.1823
26153W        W41284   4.962  10.689   5.268 -0.1712 -0.1436  0.1678
26154W        W41285  10.786  11.113  11.149  0.1116 -0.2355 -0.0661
26155W        W41286   8.755   3.187  15.019 -0.0050  0.1423 -0.0237
26156W        W41287  14.508  13.480   4.267  0.2690 -0.0971 -0.4686
26157W        W41288   4.335  17.611   0.766  0.0487 -0.0849  0.0876
26158W        W41289  13.370   3.884   2.430  0.0212 -0.1080 -0.1730
26159W        W41290  12.565   9.015  15.187 -0.1367 -0.0375  0.0037
26160W        W41291   7.186   0.188   4.085 -0.2657  0.1011  0.1049
26161W        W41292  16.619  16.055  15.049  0.2224 -0.0165 -0.0687
26162W        W41293  12.554   8.788  13.406 -0.1729  0.1086 -0.2552
26163W        W41294   3.190   4.278  11.662 -0.2049  0.1864  0.5360
26164W        W41295  16.733  18.077  15.652  0.2698  0.1578  0.0949
26165W        W41296  14.908   9.385  12.416  0.3101  0.1103  0.0451
26166W        W41297  16.454   4.192  12.689  0.1071  0.1731  0.2293
26167W        W41298   7.224  16.209  11.804  0.4400  0.0455  0.3577
26168W        W41299   1.290   3.331  11.903 -0.3035 -0.0709  0.0864
26169W        W41300   1.356  16.890   2.616  0.0159 -0.0668 -0.0961
26170W        W41301   5.117   7.059   3.297  0.0224  0.0753 -0.0306
26171W        W41302  15.899  17.362  15.141  0.1008  0.1110 -0.3899
26172W        W41303  17.950  14.069   0.324  0.1694 -0.0381  0.1523
26173W        W41304  16.456  12.275  15.116 -0.0897 -0.1259  0.3501
26174W        W41305  16.160  13.665  11.091 -0.1724  0.0547 -0.0325
26175W        W41306  17.715   6.587   3.113 -0.2643 -0.2422 -0.1471
26176W        W41307   7.138  14.566  14.969 -0.0015 -0.0685  0.2475
26177W        W41308   0.852   1.175  14.196  0.0330  0.2122 -0.1076
26178W        W41309  14.131   3.515   1.571 -0.1723  0.2567  0.1067
26179W        W41310   9.232   7.275   5.292 -0.0934 -0.1845  0.4927
26180W        W41311  17.247  11.867  12.282  0.2317 -0.2862 -0.0422
26181W        W41312   0.542   7.389   2.167 -0.0678 -0.2112  0.0032
26182W        W41313  10.655   5.350   0.942 -0.4238 -0.3199 -0.0758
26183W        W41314  16.949  16.807   2.373 -0.3026 -0.0438 -0.3761
26184W        W41315  12.419  11.674   4.565  0.2468 -0.1742  0.1521
26185W        W41316   8.020  11.957  14.053  0.2643 -0.0014 -0.1267
26186W        W41317  16.965   8.814   0.365 -0.0173 -0.1571 -0.1617
26187W        W41318   4.043  10.712   1.934  0.0678 -0.1227 -0.1059
26188W        W41319  12.574   1.199   2.637  0.2883  0.2140 -0.4918
26189W        W41320   1.159   7.260  12.605 -0.0172  0.0422  0.3190
26190W        W41321   9.002   0.252   6.141  0.1894  0.3248  0.1353
26191W        W41322  13.482   3.574  14.022  0.1738 -0.2878 -0.2549
26192W        W41323  10.501  15.084  10.545 -0.0148  0.0450 -0.2091
26193W        W41324  10.471   4.668  13.275 -0.2307  0.0105 -0.1027
26194W        W41325  12.023   9.855  15.603 -0.0767  0.0636 -0.4249
26195W        W41326   9.486  17.680   1.111  0.0338 -0.1651 -0.0247
26196W        W41327   5.308   0.458  15.165  0.1899  0.2200  0.1599
26197W        W41328  12.962  17.623  15.378  0.0293 -0.1586  0.1770
26198W        W41329  18.315  14.366  11.304  0.1535  0.0610 -0.0231
26199W        W41330   2.237  18.542  14.106  0.1127  0.1288  0.0518
26200W        W41331  15.458  10.725  13.475  0.0598 -0.0779  0.2225
26201W        W41332  12.090   4.325   2.582  0.1883 -0.1482  0.4195
26202W        W41333  14.880   1.330  14.065  0.2745  0.2835  0.2375
26203W        W41334  13.352   9.722   4.985  0.1623  0.1595  0.2943
26204W        W41335   4.383  12.190   2.309 -0.0945 -0.0198 -0.0905
26205W        W41336   5.911  14.318  14.525  0.1969  0.0254  0.1555
26206W        W41337  13.369  14.800  11.301  0.3305  0.6131  0.1310
26207W        W41338  17.948  11.471   3.006  0.1787  0.0415 -0.3635
26208W        W41339   8.416   3.548  10.606  0.2261  0.1018 -0.1021
26209W        W41340   7.971   1.815  13.024  0.1608 -0.0482  0.2688
26210W        W41341  11.093   3.287  13.041  0.3814  0.1943 -0.2192
26211W        W41342   9.234  16.088   3.194  0.1701  0.4164 -0.1292
26212W        W41343  13.632   6.624  13.008 -0.2865 -0.0537  0.1464
26213W        W41344  12.900  15.970  12.681  0.0000  0.2494  0.0343
26214W        W41345  17.881   6.941  15.248  0.2122 -0.2160  0.0213
26215W        W41346   5.559   5.230  13.828  0.1491  0.0368  0.2058
26216W        W41347   7.566  18.396  13.325  0.0028  0.2406 -0.1256
26217W        W41348  12.247   6.293   1.247  0.1250  0.2819 -0.0402
26218W        W41349   2.487  11.243   3.764 -0.0327  0.3353 -0.1086
26219W        W41350  12.150   8.719   2.119  0.2106 -0.0006  0.1226
26220W        W41351  13.217   5.694  15.577 -0.3253 -0.0146  0.0154
26221W        W41352   2.378   3.750   1.667  0.0557 -0.0039 -0.0879
26222W        W41353   2.743   3.127   5.579  0.1405 -0.0642  0.2687
26223W        W41354   8.823  12.290  10.890  0.2668  0.1367 -0.0532
26224W        W41355   3.184  14.328   1.986  0.4507 -0.1622 -0.3078
26225W        W41356   6.105   5.336  14.189 -0.3903 -0.2087 -0.2519
26226W        W41357   5.720   1.237  14.618  0.1852  0.2042 -0.1724
26227W        W41358   9.502   4.387  15.362 -0.0222 -0.2957 -0.1823
26228W        W41359  10.147  18.708   2.938  0.0566  0.0094  0.1453
26229W        W41360   6.927   1.491  11.362 -0.0159  0.0665 -0.4305
26230W        W41361   8.541   0.191   5.884 -0.2236 -0.0401 -0.0179
26231W        W41362  14.453   2.937   2.746 -0.3248  0.1956  0.0580
26232W        W41363   3.680   2.624  11.110 -0.1162  0.0898 -0.1050
26233W        W41364   6.784   9.352  13.346  0.1554  0.1562  0.0392
26234W        W41365   5.242   9.147   2.910 -0.2907 -0.1317 -0.4035
26235W        W41366   2.559  14.077  14.750 -0.0956 -0.1316 -0.2444
26236W        W41367  14.317  13.853   1.045  0.1259 -0.0168  0.0937
26237W        W41368   1.863  13.904   3.295  0.2691  0.1007  0.0281
26238W        W41369  16.680   9.335  14.532 -0.3042 -0.0063 -0.3106
26239W        W41370  16.432  13.803  10.262  0.0068 -0.2317  0.0822
26240W        W41371   1.764  12.741  14.864  0.0420 -0.4375 -0.0870
26241W        W41372   1.431   0.021   5.634  0.1392 -0.1286 -0.0384
26242W        W41373  14.382  11.189  12.209 -0.0578 -0.0237 -0.0249
26243W        W41374  15.192  11.071  13.148  0.0201 -0.0800 -0.2630
26244W        W41375   5.435  17.148   3.343  0.0413  0.0227  0.1003
26245W        W41376  13.892  13.688  12.006  0.1612  0.3819 -0.0734
26246W        W41377   8.343   5.197  15.802 -0.1049  0.0410 -0.1142
26247W        W41378   0.938   2.892  14.152  0.1486  0.0608  0.1466
26248W        W41379  17.092  10.112  15.399  0.1643  0.1758  0.2494
26249W        W41380   4.189  11.729  10.332 -0.0630 -0.1995  0.1319
26250W        W41381   8.497   7.746  11.737 -0.1873 -0.3573 -0.4411
26251W        W41382  14.441  11.684   1.338 -0.0218 -0.4349  0.0479
26252W        W41383  12.206  18.125   1.419 -0.1806 -0.0262 -0.1586
26253W        W41384   7.630  13.525   3.752 -0.1088  0.1789 -0.0777
26254W        W41385   2.469  11.170   1.586  0.5083  0.2367 -0.1348
26255W        W41386  16.732  15.651   5.219  0.1203 -0.0267  0.0348
26256W        W41387  11.882  13.300   3.928  0.3118 -0.0779  0.1813
26257W        W41388   9.867   9.075   2.249  0.0015  0.2173 -0.5575
26258W        W41389  15.704   4.757  10.325 -0.0083 -0.1406  0.1558
26259W        W41390   3.537  12.761  10.033 -0.1628  0.3357  0.4266
26260W        W41391  17.776   2.413   4.230  0.0395 -0.2278 -0.1283
26261W        W41392  14.097   5.281   9.502  0.0650  0.2043  0.0690
26262W        W41393   6.798   5.384  11.465  0.0820 -0.0029 -0.1204
26263W        W41394  12.911  11.508   3.059 -0.0214 -0.1935  0.0779
26264W        W41395   4.424   1.479  14.157  0.1378  0.5936 -0.0666
26265W        W41396  11.698   7.159  11.595  0.1655  0.0638 -0.3087
26266W        W41397  16.963   0.361   5.854 -0.1542 -0.1499  0.1075
26267W        W41398  13.263  11.074   4.180  0.0398 -0.5185  0.0817
26268W        W41399  10.338  14.561   1.278 -0.3284  0.0156 -0.1404
26269W        W41400  10.061   8.234  12.260 -0.0462  0.2061  0.0356
26270W        W41401   1.629  12.335  11.357 -0.0579 -0.3896  0.1915
26271W        W41402  12.679   7.170   1.777  0.5898  0.1273  0.0060
26272W        W41403  11.432   1.174   5.172 -0.4378 -0.1051 -0.0119
26273W        W41404  13.646  11.969   4.113  0.1458  0.0481  0.1024
26274W        W41405   4.354  10.160  12.792  0.0888  0.1183 -0.0491
26275W        W41406  17.445  10.076   0.273 -0.0619  0.0596 -0.1740
26276W        W41407  13.209   2.833  10.968 -0.0184 -0.1853  0.4415
26277W        W41408   9.849   9.009  12.915  0.5319 -0.2598  0.1800
26278W        W41409  13.765  17.359   4.532  0.1216  0.0067 -0.1920
26279W        W41410   0.753  16.196   1.300  0.0526 -0.0061 -0.1450
26280W        W41411  13.861  10.412  11.463 -0.1905 -0.0766  0.0067
26281W        W41412  10.078   7.982   4.155 -0.0215  0.0658  0.0737
26282W        W41413   1.128  16.798   4.487 -0.0519 -0.0044  0.0293
26283W        W41414   9.494   4.748   1.496  0.1134  0.2881 -0.0231
26284W        W41415   1.501  15.267  11.625 -0.1116  0.1053  0.0715
26285W        W41416  13.431  12.815   0.115  0.0105  0.1593 -0.0927
26286W        W41417   4.841   1.033  14.148 -0.1300  0.1944  0.2358
26287W        W41418   3.842   9.834  11.310  0.1514  0.1298  0.0960
26288W        W41419   3.804  14.289   4.474 -0.1678  0.0669 -0.0733
26289W        W41420   3.491  14.079  15.072  0.2721  0.3255 -0.3964
26290W        W41421   4.873   2.581  11.108 -0.4165 -0.0097 -0.1185
26291W        W41422   3.701  15.838   3.455  0.0495  0.2891 -0.0237
26292W        W41423   4.447  12.741   5.929 -0.0584  0.0558 -0.1705
26293W        W41424  11.433   8.988  10.545 -0.0031 -0.6853  0.5647
26294W        W41425  11.437  13.017  10.385  0.0950  0.0817 -0.2399
26295W        W41426   2.455   3.905   3.643 -0.0982 -0.0420  0.3787
26296W        W41427  10.723  13.754  13.051 -0.1661 -0.3018  0.0634
26297W        W41428   9.449   0.333   1.325 -0.0592 -0.2247  0.1657
26298W        W41429   2.371  13.050   0.507 -0.0052  0.2437  0.0072
26299W        W41430  14.177   0.140   3.270 -0.3685 -0.2884  0.0446
26300W        W41431   2.749  13.910  13.655 -0.0154 -0.1240 -0.0888
26301W        W41432   6.883  16.878   1.234 -0.0691 -0.0246  0.3680
26302W        W41433   4.080   0.609   0.414  0.1165  0.2472  0.2127
26303W        W41434   7.071   7.194   4.221 -0.3258 -0.0570  0.0031
26304W        W41435   9.309   3.211   0.168 -0.3678  0.4211  0.0804
26305W        W41436   0.094   6.700  15.398 -0.0931  0.1846 -0.0552
26306W        W41437   5.551   0.654  12.846 -0.1777 -0.1712 -0.1333
26307W        W41438  15.850   6.145  11.293  0.4417 -0.0945 -0.0786
26308W        W41439   3.800   5.972  14.037  0.1147  0.0086 -0.3839
26309W        W41440  17.069   2.617  10.994  0.1425 -0.3020 -0.0673
26310W        W41441   3.099   7.018  15.269  0.1771 -0.1062  0.0517
26311W        W41442   1.335  12.519  14.938  0.3117  0.4159  0.0124
26312W        W41443   3.530   4.566   5.168 -0.0752  0.0752 -0.3236
26313W        W41444   8.767  15.093  12.188  0.1636 -0.1274  0.0481
26314W        W41445  10.108   2.125  11.872  0.0799  0.4039  0.1222
26315W        W41446   3.960   6.679   0.454 -0.1796  0.0860  0.1039
26316W        W41447   8.479   6.030  11.491  0.0437 -0.3518  0.2454
26317W        W41448   1.998  17.635  12.526 -0.1580 -0.0440  0.0174
26318W        W41449  11.496   4.802   1.967  0.0861  0.0261 -0.0345
26319W        W41450   3.018  15.465   4.043  0.0308  0.1063  0.1608
26320W        W41451  16.323  10.997   3.796 -0.0703  0.2676 -0.0461
26321W        W41452  12.769   6.041   5.744 -0.0855  0.0516  0.2416
26322W        W41453   7.028  15.368  14.232 -0.1044  0.0924  0.3516
26323W        W41454   1.691  14.498   3.614  0.0113  0.3704  0.1239
26324W        W41455  16.792  14.705   1.612 -0.2973 -0.0444  0.0242
26325W        W41456  17.087  10.574  13.990 -0.0035 -0.1295  0.2071
26326W        W41457  13.272   9.695   0.986 -0.0031  0.1975  0.3316
26327W        W41458  12.836   1.660  14.455 -0.0561 -0.1739  0.1151
26328W        W41459   0.848   9.128  10.803 -0.1419  0.1261  0.0860
26329W        W41460   7.877  14.964  12.788  0.1255  0.1205 -0.3174
26330W        W41461  10.339  17.919  11.681 -0.1397 -0.1393  0.1551
26331W        W41462   0.020  18.546   1.289 -0.1274  0.0918 -0.2429
26332W        W41463  17.582   7.561   4.992  0.1765 -0.0722  0.0767
26333W        W41464  11.855  13.464  12.795 -0.0803  0.0741  0.0783
26334W        W41465  15.226  11.296   1.712 -0.1421  0.0223 -0.2606
26335W        W41466  12.005  13.816   3.699 -0.0875  0.2578  0.1554
26336W        W41467   8.805   2.534   2.441  0.2462 -0.3033 -0.1485
26337W        W41468  15.478   9.753  11.664 -0.1776  0.2669 -0.0788
26338W        W41469   7.694  15.261  14.075  0.7379 -0.0600  0.0893
26339W        W41470   8.497  15.955   2.489 -0.2703 -0.2353  0.3053
26340W        W41471  11.003  14.154  12.834 -0.2101  0.1140  0.0605
26341W        W41472   1.844  11.872   2.297 -0.3508  0.2101  0.1540
26342W        W41473   7.238  15.294   3.894  0.0478 -0.3457  0.3501
26343W        W41474   3.243  14.429  14.162 -0.0134 -0.2822  0.0893
26344W        W41475   5.112   3.870   1.324  0.1959  0.0957  0.0811
26345W        W41476  17.243  12.818   3.062 -0.0551  0.4360 -0.1598
26346W        W41477   3.138   9.496   3.645 -0.0161 -0.2809 -0.4505
26347W        W41478  14.149  13.978  14.285 -0.3102 -0.0014 -0.2390
26348W        W41479   8.090   5.073   3.412  0.1303  0.1443  0.0335
26349W        W41480   1.568  13.957  15.189 -0.2417 -0.0455  0.0138
26350W        W41481   1.868   3.074   3.885  0.2971  0.0121 -0.1150
26351W        W41482   1.458   2.499   1.208  0.1838  0.0162  0.1168
26352W        W41483   1.586   0.461  13.234 -0.3112 -0.1380 -0.0846
26353W        W41484  16.826   8.007  13.471 -0.0599 -0.1591  0.0448
26354W        W41485  14.689   9.763   5.276 -0.2905 -0.0138  0.0946
26355W        W41486   1.039   8.054  12.242  0.2620  0.0150 -0.2208
26356W        W41487   3.127   0.459   1.266  0.0949  0.2360 -0.4606
26357W        W41488  11.424   8.075  15.289  0.0515  0.2285  0.1362
26358W        W41489   2.860  14.328  12.721  0.2835  0.3745  0.0100
26359W        W41490   7.139   6.014  11.194  0.1039  0.0557 -0.1291
26360W        W41491  15.745  11.384  14.698  0.2518 -0.3834  0.1406
26361W        W41492  13.320   5.591  10.721 -0.0630  0.1684 -0.1410
26362W        W41493   2.619  11.798   9.837 -0.4583  0.1827  0.0423
26363W        W41494  17.378  13.286  14.828 -0.1940 -0.1275 -0.0471
26364W        W41495   3.011   1.742  15.715  0.0278  0.2627 -0.2198
26365W        W41496   2.832  12.986  15.178  0.0895  0.0729  0.1227
26366W        W41497   9.701  14.735   0.394  0.1681 -0.3785 -0.3553
26367W        W41498  17.490  11.356  14.566 -0.1476 -0.1565 -0.0829
26368W        W41499   8.845  10.001   3.004  0.1597  0.0252  0.1811
26369W        W41500   6.331   8.782  12.753 -0.0176 -0.1437  0.2680
26370W        W41501   2.769   8.303   0.697  0.0639 -0.1960 -0.0726
26371W        W41502  16.120   2.856   4.842  0.2098  0.2430 -0.0803
26372W        W41503  16.449  18.649   1.100 -0.1026  0.1337 -0.1049
26373W        W41504   3.834  17.131   2.079 -0.1531  0.2111  0.0942
26374W        W41505   7.393  10.792   5.018  0.1605 -0.0989  0.0661
26375W        W41506   4.099   4.022   4.885  0.4278 -0.0631  0.0730
26376W        W41507   2.303  15.707   3.676  0.1746 -0.1136  0.0697
26377W        W41508   0.151  12.351   1.911 -0.0734  0.0881 -0.3396
26378W        W41509  12.380  16.067   0.116 -0.0014  0.1333  0.0130
26379W        W41510  11.240  14.222  14.649  0.1717 -0.0425 -0.0032
26380W        W41511   4.574   5.407  12.385  0.1108  0.3235  0.2668
26381W        W41512   9.319   0.401   4.002 -0.1952  0.0844  0.3345
26382W        W41513  18.111  17.795   0.347 -0.0991  0.0482  0.2334
26383W        W41514  12.916   8.651   3.943  0.4102  0.2044  0.0039
26384W        W41515   9.234   7.616   1.954  0.0996 -0.0861 -0.1266
26385W        W41516   0.607   2.937   5.041  0.2997 -0.0736 -0.4523
26386W        W41517   4.180  18.568  12.550 -0.2029  0.3421  0.0929
26387W        W41518  13.351  18.587   5.193 -0.2417  0.0830  0.3299
26388W        W41519  18.701  13.210   3.831  0.1626 -0.0204  0.0190
26389W        W41520   1.539  16.388   0.852 -0.1281 -0.0810  0.1811
26390W        W41521   5.081  17.117   5.534 -0.0384  0.2245  0.7615
26391W        W41522   6.573   4.141   4.662 -0.1222  0.0361  0.4693
26392W        W41523  13.389  18.167   4.418 -0.0694  0.1702 -0.1039
26393W        W41524   7.072   1.305   1.736  0.0554 -0.3148  0.1043
26394W        W41525   1.364  13.351  14.450  0.2056 -0.2273  0.2662
26395W        W41526  18.399   4.023  15.057 -0.0313  0.0776  0.0369
26396W        W41527   0.049   4.519  10.892  0.1192 -0.1827 -0.0757
26397W        W41528   0.846   0.093   0.333 -0.1623 -0.0393  0.1989
26398W        W41529  15.813   5.938   1.499  0.3080 -0.2228  0.2394
26399W        W41530  14.591   3.838  14.953  0.1249  0.2504  0.0467
26400W        W41531   2.745  11.912   3.327  0.1369 -0.0104 -0.1595
26401W        W41532   9.210   4.846   0.590 -0.0279  0.0891  0.1789
26402W        W41533   7.233  10.847   1.293  0.3125 -0.2454 -0.1731
26403W        W41534   6.400  18.649   3.436 -0.0604  0.1743 -0.0150
26404W        W41535   5.703   6.512   5.991 -0.0947 -0.3590  0.2418
26405W        W41536  10.346   1.337  15.434 -0.0294  0.2040  0.2905
26406W        W41537  11.849   2.642   0.956  0.5720 -0.1218 -0.0916
26407W        W41538   0.205  18.701  11.603 -0.2958 -0.0175  0.1248
26408W        W41539   3.185   2.207   2.445  0.4901  0.0974  0.3433
26409W        W41540  18.324  10.862   2.296  0.3082  0.3131  0.4140
26410W        W41541   9.673   1.459  12.363  0.1761  0.1807 -0.2040
26411W        W41542   9.317   2.985   4.168  0.0487  0.1604  0.0906
26412W        W41543   0.054   9.462  11.910 -0.0562 -0.0494 -0.1343
26413W        W41544   4.469   1.967  13.912 -0.0242  0.1799  0.0957
26414W        W41545   6.416  17.545  12.446  0.0244  0.0089  0.1354
26415W        W41546   5.882   4.194   3.397  0.1390 -0.0019 -0.3102
26416W        W41547  12.426  14.013   5.448  0.2038 -0.2460  0.0996
26417W        W41548  12.670   0.884  11.843 -0.1670 -0.2252  0.0069
26418W        W41549  16.142   9.432  12.377  0.4478  0.0597  0.1347
26419W        W41550   7.513  11.498   1.394  0.0440 -0.0711  0.0418
26420W        W41551   4.845  10.561  15.686 -0.0551 -0.1331 -0.2136
26421W        W41552   8.214   5.058   1.040 -0.0198  0.0331  0.2430
26422W        W41553   4.596   8.191   0.890  0.1686 -0.4086 -0.3257
26423W        W41554   7.445  17.293   0.710  0.0962 -0.0170  0.2626
26424W        W41555  18.627  13.989   3.745  0.5492  0.1694 -0.1835
26425W        W41556  10.358  14.589  14.336  0.0727 -0.0782 -0.2302
26426W        W41557   6.738  10.645   3.262 -0.0631  0.1233 -0.0003
26427W        W41558  14.308  13.784   5.367  0.1243 -0.1172 -0.2529
26428W        W41559   2.225   0.696  15.274 -0.1195 -0.2012  0.2507
26429W        W41560  18.099   7.050   2.310  0.1669  0.3315  0.3839
26430W        W41561   8.807   5.666   1.647  0.1849  0.1067 -0.0807
26431W        W41562   4.397  18.400  12.114 -0.1329  0.0843 -0.0090
26432W        W41563  12.392  10.144  14.042  0.0284 -0.1786 -0.0079
26433W        W41564   7.118   1.524  15.494  0.0280 -0.4906 -0.0726
26434W        W41565   8.061  16.382  13.119 -0.0338 -0.0889  0.0995
26435W        W41566   5.901   4.462   6.214 -0.0772 -0.0294 -0.2152
26436W        W41567  18.540   4.795  11.546 -0.0936  0.0394  0.4031
26437W        W41568  18.628   4.388   3.461 -0.2337  0.0670 -0.0446
26438W        W41569  15.746  15.754  11.424 -0.1150 -0.0423  0.0218
26439W        W41570   4.163  12.671  13.437 -0.1084  0.0498  0.2227
26440W        W41571   6.815  11.042  14.242 -0.1376  0.2269 -0.0928
26441W        W41572   9.459  17.323   3.039  0.2288  0.0706 -0.3935
26442W        W41573   5.836   2.011   1.880 -0.1103  0.0718  0.0256
26443W        W41574  15.059   5.431   6.344 -0.2493 -0.1083  0.1117
26444W        W41575   7.002   8.694   3.740  0.2576  0.0411 -0.1706
26445W        W41576  12.216   0.672   5.079  0.1751 -0.1324  0.1779
26446W        W41577   3.061  18.004  14.938  0.0410  0.0056  0.0747
26447W        W41578   7.418  16.325  15.396  0.0877 -0.1257 -0.0779
26448W        W41579  15.111  12.345   0.752  0.0973 -0.0350 -0.4134
26449W        W41580  12.624   2.295  13.669  0.1937 -0.1857 -0.5652
26450W        W41581   9.678  15.736  15.682  0.0465  0.0238 -0.0666
26451W        W41582  17.991  11.495  14.679 -0.2549  0.3737 -0.4755
26452W        W41583   7.396   9.523   4.070 -0.0084 -0.1479  0.1139
26453W        W41584  13.581  10.773  14.165  0.2313 -0.2078 -0.2227
26454W        W41585   6.414  16.839  13.317  0.1616  0.0212  0.0603
26455W        W41586  15.167  15.407   0.535 -0.1707  0.1202 -0.2753
26456W        W41587  11.475  15.892  13.271 -0.1875  0.0582 -0.0381
26457W        W41588   7.166   0.832  13.338 -0.0958 -0.0094  0.1865
26458W        W41589  15.164   1.861   2.302 -0.2312  0.2255 -0.0444
26459W        W41590  14.152  10.661   3.005  0.2342 -0.3041 -0.0656
26460W        W41591  16.261  14.829   0.736 -0.0967 -0.3738  0.1738
26461W        W41592   6.652  14.072   2.078 -0.1989  0.0128 -0.2083
26462W        W41593  13.397   8.343   4.605 -0.0966  0.0245 -0.1604
26463W        W41594   4.756  14.695   3.934  0.1405 -0.2166 -0.0970
26464W        W41595  18.440  12.151  12.152 -0.1432  0.1661 -0.0203
26465W        W41596   0.271   1.781   5.671 -0.2082  0.0042 -0.0088
26466W        W41597   2.787  12.006  12.620 -0.1805 -0.0110  0.1168
26467W        W41598  15.249   2.911   4.781  0.0788  0.1588 -0.0530
26468W        W41599   2.025   9.604  11.837 -0.0281  0.2727 -0.2354
26469W        W41600  12.271   6.442  14.916 -0.1532  0.3399  0.5105
26470W        W41601   2.659   2.612   1.025  0.0763  0.2961 -0.2592
26471W        W41602   8.196   6.371  11.238  0.0024 -0.0480 -0.0757
26472W        W41603   1.026   9.091   1.473 -0.4028  0.0739  0.0290
26473W        W41604  10.005  14.473  15.603  0.1954  0.2169  0.0165
26474W        W41605  10.336   6.245  11.057  0.2474  0.0448 -0.0025
26475W        W41606  12.033  16.744  10.878  0.0276  0.0289  0.1718
26476W        W41607  12.959   5.443   3.789 -0.2029  0.2974  0.1049
26477W        W41608   4.000   5.281  15.138 -0.0585  0.3346  0.2299
26478W        W41609  16.623  17.453  10.617 -0.3164  0.0859  0.3586
26479W        W41610   0.025   8.460   3.236  0.0667  0.1929  0.1436
26480W        W41611  14.924   1.100  10.638 -0.4301 -0.0791  0.0487
26481W        W41612   2.722  15.453  10.251  0.3031 -0.1040 -0.1466
26482W        W41613  17.781   3.445   5.343  0.3486 -0.1336  0.4455
26483W        W41614  16.486  10.440  15.251  0.1353 -0.0669 -0.0769
26484W        W41615   2.723   3.442  11.337  0.5605  0.0839  0.3293
26485W        W41616   9.457   1.621   5.559  0.1797 -0.1249 -0.1793
26486W        W41617  11.749   9.471  15.472 -0.2143 -0.2300 -0.2887
26487W        W41618   1.905   7.465  12.140  0.0792 -0.4723 -0.1007
26488W        W41619   3.424   0.346  14.472 -0.0641 -0.0597 -0.3446
26489W        W41620   5.925  14.089  15.057 -0.0130 -0.0750 -0.1385
26490W        W41621  11.533   8.848  11.178  0.2838 -0.2353  0.3294
26491W        W41622  17.504   2.906   3.975  0.2045  0.0995  0.0120
26492W        W41623   8.032  18.652  13.241  0.4357 -0.2906 -0.0140
26493W        W41624   6.173   4.605   3.396 -0.2982  0.0570 -0.1317
26494W        W41625   0.745   6.761  11.999 -0.0551 -0.0441 -0.0635
26495W        W41626   8.580   6.197  15.162 -0.1404  0.0601 -0.1783
26496W        W41627  13.449   0.979   0.268  0.1431  0.1133 -0.2859
26497W        W41628   1.267  15.457   4.322  0.0449  0.1031 -0.0530
26498W        W41629   7.991  15.347   1.884 -0.0450  0.0835 -0.2795
26499W        W41630   3.315  14.800   2.134  0.1331  0.2190  0.2336
26500W        W41631  13.002   3.657  10.864 -0.1607 -0.1107 -0.1828
26501W        W41632   5.592  13.569  12.666  0.2558  0.0591 -0.2368
26502W        W41633  10.552   9.088  10.110  0.0479  0.0376 -0.1188
26503W        W41634  16.024  16.080  12.422  0.2630  0.0264  0.2527
26504W        W41635  10.955  12.107  15.302  0.2084  0.0921  0.3921
26505W        W41636  13.228   7.381   0.674 -0.2069 -0.1398  0.0230
26506W        W41637   4.356   2.870   2.034  0.0885 -0.1264 -0.0149
26507W        W41638   4.645   0.373  11.651 -0.2780  0.0424 -0.4067
26508W        W41639  13.526  14.838   2.989  0.1959  0.3311  0.4644
26509W        W41640   0.001  11.854  12.950  0.0438 -0.0888  0.2445
26510W        W41641   1.059   4.678   4.734 -0.0243  0.3738  0.1934
26511W        W41642   9.984   4.073  15.284  0.0020 -0.1563 -0.0298
26512W        W41643   9.037   4.854  14.502 -0.2026  0.0512 -0.2728
26513W        W41644  13.468   8.762  11.150 -0.0925 -0.0322 -0.0787
26514W        W41645   4.768   4.554  11.380 -0.0086  0.0076 -0.5003
26515W        W41646  13.756  15.683  14.266  0.1554  0.1864  0.1501
26516W        W41647  10.892   4.937  12.446 -0.0811  0.0930 -0.1989
26517W        W41648   6.583   5.881   4.259 -0.0040 -0.1021  0.0487
26518W        W41649   5.341  13.454   3.942  0.2675 -0.1933 -0.2914
26519W        W41650   5.559   6.291  15.805 -0.4175  0.2667 -0.2068
26520W        W41651   1.829  15.489  12.597 -0.0414 -0.1514 -0.1804
26521W        W41652   0.020   5.649  11.446  0.1254 -0.0935 -0.1774
26522W        W41653  15.308   6.617   1.583  0.0517  0.0779  0.1023
26523W        W41654   0.878  15.519  11.095 -0.1570  0.1956  0.0666
26524W        W41655   1.285   4.761   5.170  0.1205 -0.2178  0.2636
26525W        W41656  18.560  18.556   0.012 -0.4975  0.2352  0.2375
26526W        W41657   9.988   8.134   5.051 -0.0827  0.2048  0.0135
26527W        W41658   4.095  15.544  14.118 -0.3298 -0.1305  0.2843
26528W        W41659  14.592   9.057  14.891 -0.0253 -0.2733 -0.0113
26529W        W41660   3.188  13.256   2.891  0.3502  0.2376  0.2818
26530W        W41661   8.681  11.326   0.005 -0.0900 -0.1890  0.3036
26531W        W41662   8.584   7.443  13.809  0.1891  0.2554  0.4326
26532W        W41663  14.945   4.899  11.359  0.2635  0.1246  0.4130
26533W        W41664  14.926   5.086   4.391 -0.2203 -0.1697 -0.1775
26534W        W41665  14.109  11.054   3.559 -0.2624  0.0027 -0.0507
26535W        W41666  16.976   0.318  12.323  0.5577 -0.1136  0.1748
26536W        W41667  15.704  15.667  13.598 -0.0486  0.1543 -0.2929
26537W        W41668  10.903  10.702  14.725  0.0295  0.1425  0.2989
26538W        W41669   1.927   8.698  15.512 -0.0392 -0.3712 -0.0879
26539W        W41670  13.182   3.398   2.461 -0.1075  0.4499  0.2559
26540W        W41671   0.524  14.497   5.832  0.2988 -0.0929 -0.0781
26541W        W41672   7.283  13.116  12.704  0.3268  0.1602 -0.3305
26542W        W41673   8.531  10.259  12.366 -0.1086 -0.0873 -0.0330
26543W        W41674   9.645  13.590  12.090  0.2711 -0.0900  0.3815
26544W        W41675  17.152   0.011  12.839 -0.3744  0.0141 -0.0745
26545W        W41676  17.554  12.819  12.348 -0.2159  0.1380 -0.0742
26546W        W41677   7.575  16.074   4.196  0.2748 -0.1275 -0.1123
26547W        W41678  18.084   4.262   1.992  0.1018  0.2558 -0.1561
26548W        W41679  18.225  11.069   4.165 -0.2071 -0.2285  0.2859
26549W        W41680  10.475  10.490   2.442 -0.5411 -0.0946  0.1231
26550W        W41681  12.448  16.407  14.912  0.1489  0.0611  0.0724
26551W        W41682   2.610  14.914   0.567  0.2237  0.1429  0.0550
26552W        W41683  10.116   2.284  12.350 -0.0038 -0.2812 -0.0427
26553W        W41684  12.057   6.205  14.512  0.0400  0.2653 -0.1683
26554W        W41685   8.687  15.120   1.348  0.0474  0.3283  0.1995
26555W        W41686  13.163  14.663   0.579 -0.0365 -0.0655 -0.3243
26556W        W41687  13.607  12.829  15.182  0.3151  0.4524 -0.2346
26557W        W41688  12.796  14.588   2.305  0.0567  0.1965  0.0672
26558W        W41689   1.495   9.463   3.753 -0.1189  0.0892 -0.2579
26559W        W41690   0.975  15.879   1.629 -0.0486  0.1025  0.1732
26560W        W41691   5.955  13.503   1.002  0.0263  0.1494  0.1273
26561W        W41692   8.037   7.458   9.770  0.2241 -0.4203  0.2791
26562W        W41693  16.482  12.497   3.678  0.0331  0.0253  0.0989
26563W        W41694   0.665  16.338  12.209  0.2233 -0.1222  0.0017
26564W        W41695   3.175   1.611  14.506 -0.2592  0.0443  0.2063
26565W        W41696   6.426   2.427   6.669 -0.1041  0.4157 -0.0236
26566W        W41697  11.659  13.702  13.372  0.2074  0.4660 -0.0506
26567W        W41698  13.438  11.321   0.634  0.1444  0.0485  0.1780
26568W        W41699  14.056  14.220   5.472 -0.2214 -0.0647 -0.2709
26569W        W41700   6.114  16.599   2.876 -0.1135  0.1574  0.0589
26570W        W41701   1.617  14.443   2.482  0.3473  0.1248  0.1445
26571W        W41702   7.092   6.436  12.393  0.1878 -0.2500  0.1642
26572W        W41703  17.154  18.283  11.417  0.1749 -0.1622  0.1977
26573W        W41704  17.960  10.929   4.599 -0.1826  0.0874  0.1798
26574W        W41705   8.781  12.799   3.033  0.0314  0.1492 -0.0214
26575W        W41706  12.274  13.082   9.873  0.4978 -0.2312  0.0112
26576W        W41707   9.552   2.548   1.503  0.1762  0.0495 -0.3916
26577W        W41708  17.586  11.342   5.844 -0.0165 -0.2578  0.0994
26578W        W41709   1.660  12.324   1.453 -0.0181  0.1797  0.1028
26579W        W41710   5.943  10.443  13.523  0.0573 -0.0611 -0.0008
26580W        W41711   7.938  11.926   3.202 -0.0709  0.3210 -0.3573
26581W        W41712  13.436   7.357  13.446  0.4105 -0.2342 -0.2364
26582W        W41713   0.287   4.697  14.593 -0.0940  0.0416 -0.2526
26583W        W41714  10.537   9.835   0.464 -0.1673  0.1107 -0.4180
26584W        W41715  15.734   4.441   4.284 -0.4623  0.3826 -0.1146
26585W        W41716   0.807  13.144  12.119  0.2254  0.2292 -0.0279
26586W        W41717   0.540   6.498   3.959  0.1737 -0.0652 -0.2746
26587W        W41718   4.675   8.671  11.704  0.0169  0.1195 -0.0150
26588W        W41719   0.434   9.271   1.281  0.0275  0.2767 -0.1526
26589W        W41720   9.413  16.044  15.393  0.1036  0.1448 -0.1004
26590W        W41721  14.838  10.936  12.320  0.1268  0.0237 -0.3040
26591W        W41722  13.134  16.415   4.564  0.0898  0.1981 -0.2126
26592W        W41723  11.420  17.376   2.908  0.0956 -0.0906 -0.0679
26593W        W41724   6.694  17.699   4.328 -0.0391  0.0067  0.4378
26594W        W41725   7.187   4.856   5.513  0.2939 -0.0657  0.0013
26595W        W41726   5.538   6.768  13.808 -0.0109 -0.0483 -0.0633
26596W        W41727   2.523   8.490   2.467 -0.1848 -0.0715  0.2234
26597W        W41728   3.034   5.336  12.472  0.1472  0.2956 -0.0844
26598W        W41729   3.738  14.737   5.895  0.1463 -0.3927 -0.2806
26599W        W41730  16.753  13.652   9.929 -0.1335  0.3074 -0.2388
26600W        W41731   5.394  17.749   2.029  0.0346 -0.1180  0.0142
26601W        W41732  11.001   4.702  13.420  0.1369 -0.0599  0.0436
26602W        W41733   6.980  12.292   0.655  0.0104 -0.3725  0.0869
26603W        W41734  18.192   1.316  15.406 -0.2734 -0.3605 -0.1873
26604W        W41735   0.338   7.586  15.464  0.0254 -0.0763 -0.1210
26605W        W41736  13.594  14.308   1.416 -0.1256  0.0005  0.1342
26606W        W41737   8.323   6.973   3.529 -0.2627 -0.0299  0.0548
26607W        W41738  17.114  16.163   0.619  0.2050  0.0266 -0.3666
26608W        W41739   6.861   7.112   1.837  0.1988  0.0477 -0.1531
26609W        W41740   4.488  12.082  15.751 -0.5109  0.0724 -0.5898
26610W        W41741  13.205  14.630   1.332 -0.0381 -0.1728 -0.1851
26611W        W41742   2.535  11.392  14.595  0.2210 -0.0871 -0.0907
26612W        W41743   9.325   5.170   4.341  0.0323 -0.0918  0.1479
26613W        W41744  10.148  10.186   0.120  0.3573  0.2320 -0.3657
26614W        W41745  17.472   1.826  10.772 -0.1255  0.3355 -0.3166
26615W        W41746   6.162   0.329   4.650 -0.3400 -0.3478 -0.0225
26616W        W41747   8.792   3.888  10.459  0.0372  0.2239 -0.0206
26617W        W41748  11.526   1.905   5.138 -0.1964  0.2696 -0.2163
26618W        W41749   2.999   7.324   4.249  0.0131 -0.0394  0.0742
26619W        W41750   9.556   9.740  15.024  0.1123 -0.1471 -0.1501
26620W        W41751  10.764  13.370   2.388 -0.0700  0.2127  0.2130
26621W        W41752  17.700  13.688   2.007  0.2692 -0.4313 -0.0431
26622W        W41753   5.046  15.499  14.441 -0.0782  0.1507  0.2369
26623W        W41754  13.209   5.009  14.889 -0.2621 -0.0621 -0.3741
26624W        W41755  10.187  10.654   2.853  0.1863 -0.0819  0.1103
26625W        W41756   1.747   8.631   0.260  0.0144 -0.0179  0.0934
26626W        W41757   2.091   6.539  15.765  0.0752  0.1653  0.0367
26627W        W41758   6.586  18.658  13.401  0.1046 -0.0653 -0.2376
26628W        W41759   8.444  16.727   5.491 -0.3539  0.2194 -0.1065
26629W        W41760  10.855   3.976  12.089 -0.0544  0.0905 -0.1125
26630W        W41761   9.501   7.056  14.360 -0.0076 -0.1886 -0.0407
26631W        W41762  14.626  17.043  15.736 -0.0378 -0.0786 -0.1178
26632W        W41763   5.712   4.669   1.908  0.2266  0.0864  0.2150
26633W        W41764   0.641  13.574   1.562 -0.1040  0.0332  0.3223
26634W        W41765  17.088   3.999  15.422  0.0421 -0.1754 -0.1522
26635W        W41766  11.326  12.498  11.414 -0.2407 -0.1028 -0.1543
26636W        W41767  17.606   4.153  10.511  0.1210  0.0527 -0.0555
26637W        W41768   2.709   1.969  15.415 -0.3289  0.1745 -0.1009
26638W        W41769   9.915   7.864   0.439 -0.1334 -0.0306 -0.3621
26639W        W41770  12.427   5.306   0.054 -0.1101  0.1110  0.3793
26640W        W41771  13.234   6.970   0.318 -0.3595 -0.2424 -0.0032
26641W        W41772  12.870  12.139  15.524  0.0589  0.0632 -0.2401
26642W        W41773  12.261  16.380  11.254  0.2242 -0.4388  0.0927
26643W        W41774   8.044   3.132   3.173  0.0416  0.0006 -0.0882
26644W        W41775   1.905   4.658  14.718 -0.0254 -0.2239  0.0952
26645W        W41776   9.610   8.087   2.408  0.0424 -0.1488  0.0802
26646W        W41777  11.309  13.889  13.659  0.0107 -0.2312  0.1000
26647W        W41778   1.370  12.427   4.108  0.0974 -0.1245 -0.1337
26648W        W41779   7.078  13.268   2.600  0.1424 -0.0791 -0.1251
26649W        W41780  11.489  12.520  10.111  0.1526  0.2641  0.1044
26650W        W41781   3.032   5.559   0.374  0.0969  0.0034  0.0442
26651W        W41782  15.620  11.938  14.861  0.4105  0.1329 -0.1639
26652W        W41783  18.285  17.045  12.157  0.0838 -0.0915  0.0012
26653W        W41784   8.053   0.767   4.026  0.0611  0.2441  0.3463
26654W        W41785  12.782  11.681   0.876  0.2933 -0.1064  0.7097
26655W        W41786  14.590  17.247  13.957 -0.0634 -0.2220  0.0308
26656W        W41787   0.224  16.870   0.524  0.3815  0.1761 -0.0493
26657W        W41788   5.866  17.418  11.243 -0.1217 -0.0149 -0.2449
26658W        W41789   5.101   2.447   6.406 -0.1515 -0.0367 -0.0106
26659W        W41790  17.533   2.247   2.837  0.2153 -0.2527 -0.0358
26660W        W41791   9.635   1.799   2.706  0.1660 -0.0741  0.2467
26661W        W41792  12.051   3.362  15.540 -0.0544  0.2449 -0.1505
26662W        W41793  15.893   4.767   5.780 -0.2341  0.0220 -0.0043
26663W        W41794   6.918   8.008  13.018 -0.4184 -0.1327 -0.1416
26664W        W41795   3.519  18.583   4.701 -0.0823 -0.2933  0.3494
26665W        W41796  17.553   6.992   2.353 -0.0463 -0.2150 -0.0338
26666W        W41797   1.152   3.576  12.415  0.2210  0.1663 -0.2847
26667W        W41798   0.802   1.660  14.385  0.0723 -0.1246  0.0351
26668W        W41799  16.150   3.428   1.064 -0.0460 -0.1449  0.0857
26669W        W41800  14.492  12.589   4.146  0.4563 -0.1100  0.0963
26670W        W41801   2.569  16.702   2.293  0.0903  0.2124  0.1135
26671W        W41802  11.041   4.009   2.614  0.2893  0.2754  0.1337
26672W        W41803   7.163   1.958   2.436  0.1536 -0.0323 -0.0483
26673W        W41804   3.696   1.610   3.603 -0.0058  0.0517  0.1168
26674W        W41805  12.382   8.428  12.490  0.0598 -0.0831 -0.0874
26675W        W41806   8.596  14.969  14.504  0.0026 -0.0195  0.2550
26676W        W41807   2.351   0.578   3.459  0.0704  0.2536 -0.1119
26677W        W41808  10.940   0.824  11.973  0.2997 -0.1659 -0.0680
26678W        W41809  12.142  17.848  15.734  0.1355 -0.0147 -0.0334
26679W        W41810  13.035   5.729  14.079 -0.1708  0.2275  0.0451
26680W        W41811  11.693   7.045   4.389 -0.0519  0.4102 -0.1835
26681W        W41812   0.647   4.508  14.893 -0.2204  0.3396 -0.3321
26682W        W41813   1.513  13.235  10.946  0.1022 -0.0281 -0.1026
26683W        W41814  17.917  14.466  11.043 -0.2290 -0.0790 -0.3214
26684W        W41815   1.614   8.919   4.040 -0.0991  0.0677 -0.3410
26685W        W41816  15.212   1.931  13.591  0.2454 -0.1082 -0.1042
26686W        W41817  10.455   4.254  13.770  0.3587 -0.2232  0.1470
26687W        W41818  11.315   3.382  10.804 -0.2361  0.3652  0.2763
26688W        W41819   8.406   5.100  12.792 -0.0545 -0.1916 -0.5555
26689W        W41820   1.742  14.362  15.602  0.1936  0.3355 -0.2424
26690W        W41821   9.728   3.421   3.162  0.2924  0.0473 -0.1241
26691W        W41822   0.874  11.674  13.856  0.1938  0.3702  0.0103
26692W        W41823   1.402   3.725  11.507  0.1900  0.0754 -0.4265
26693W        W41824   2.870  10.132  14.607 -0.2303  0.1596 -0.0182
26694W        W41825   2.500   0.844   2.575  0.1175 -0.2062 -0.1907
26695W        W41826   6.649   6.629  12.080  0.1110  0.1673 -0.1330
26696W        W41827   3.731  11.925   1.003  0.2661  0.1047  0.2499
26697W        W41828  14.196   7.890  12.481  0.1630 -0.2823 -0.0291
26698W        W41829  17.343   0.480   4.918 -0.1212  0.2067  0.0373
26699W        W41830   9.390   5.450   2.808  0.1260  0.3438 -0.1935
26700W        W41831   9.216   5.854   0.836 -0.0671 -0.0105 -0.4471
26701W        W41832   4.412   5.437   4.167  0.0889 -0.0284  0.0031
26702W        W41833   0.557  17.555   1.766  0.1359 -0.3632  0.4283
26703W        W41834   7.337   7.657  15.614  0.0170 -0.1408 -0.0979
26704W        W41835   9.690  12.810  13.184 -0.0758  0.0248 -0.0117
26705W        W41836   1.863   3.338   4.332 -0.0380  0.1621  0.1476
26706W        W41837  11.971  14.933  15.665  0.0524 -0.1804  0.0830
26707W        W41838   0.687  13.659   1.012  0.1360 -0.0993  0.1419
26708W        W41839  11.479  18.211   4.967 -0.1593  0.0097 -0.2180
26709W        W41840   6.102  14.129  12.730 -0.0120 -0.1520  0.1886
26710W        W41841   4.796   5.712   3.895  0.1075 -0.2783 -0.1704
26711W        W41842   0.113  11.188   2.737  0.1585 -0.1404  0.1006
26712W        W41843   2.173   8.036  13.769  0.3441  0.2725  0.1007
26713W        W41844   2.739  13.266   9.929  0.2045  0.0260 -0.0285
26714W        W41845  11.044  18.637  12.790 -0.2161 -0.2242 -0.1396
26715W        W41846   8.003  18.314   1.235 -0.2189 -0.0706 -0.0271
26716W        W41847   8.144   8.087   4.620 -0.1704 -0.1688 -0.0451
26717W        W41848  15.033   7.651  12.487  0.1054  0.0871  0.1281
26718W        W41849   9.220   5.563   2.000 -0.0731  0.0847 -0.1685
26719W        W41850   8.272   4.753  13.548  0.0212 -0.0417  0.2381
26720W        W41851  17.459   9.026  15.333 -0.2653  0.1766 -0.0230
26721W        W41852   5.731   1.126   0.892  0.3540  0.4382 -0.0033
26722W        W41853  15.535  15.689  12.370 -0.1399 -0.5131 -0.3649
26723W        W41854  17.221  10.492   3.497 -0.1557 -0.1242 -0.0907
26724W        W41855   7.116  16.101   5.086  0.1990 -0.0800  0.0826
26725W        W41856  15.765  13.470  11.725  0.1339 -0.3451 -0.1479
26726W        W41857  13.504   3.832  12.008 -0.2155 -0.1428 -0.1327
26727W        W41858   1.368  11.818   4.593  0.3610  0.0791 -0.0648
26728W        W41859  14.387  15.421  13.445  0.0009  0.3400 -0.3037
26729W        W41860  18.243  11.507   1.185  0.2082  0.1229 -0.0533
26730W        W41861   3.072   5.104   3.325 -0.0232 -0.4052 -0.3022
26731W        W41862   3.832   1.888  10.543  0.0172 -0.0413  0.4630
26732W        W41863  15.773   6.889   2.338 -0.0309 -0.2118 -0.1180
26733W        W41864   5.845   6.640  11.383  0.0392  0.3021  0.2513
26734W        W41865   8.456  16.035   3.985 -0.1523  0.1692 -0.1614
26735W        W41866  14.078  10.944  11.415 -0.2022 -0.1410 -0.0232
26736W        W41867  11.050  17.185   2.688 -0.2677 -0.2038 -0.1304
26737W        W41868   9.238   9.737  13.873  0.2728 -0.1049  0.0324
26738W        W41869  16.916   2.414  10.601  0.1486  0.0415  0.2146
26739W        W41870   9.747  10.910   0.127  0.1931  0.1160  0.0422
26740W        W41871   0.014  14.960   5.300  0.1249  0.0077 -0.0013
26741W        W41872  11.162   6.769  11.564  0.2814 -0.3471  0.3500
26742W        W41873  12.504  11.052  12.490  0.3476  0.1419  0.2978
26743W        W41874   6.981  16.746  11.980  0.0711  0.0375  0.0809
26744W        W41875   9.570   7.987  12.284  0.2048 -0.2337  0.0435
26745W        W41876  16.209  12.867   0.602 -0.0440  0.0125 -0.0620
26746W        W41877   5.038   1.406  14.654 -0.3447 -0.5063 -0.0695
26747W        W41878   8.366   5.181   3.814 -0.1448  0.0125 -0.0342
26748W        W41879   3.468   9.509  11.154  0.0524 -0.1664  0.0809
26749W        W41880  16.426   1.147   0.083  0.4144  0.3073 -0.2308
26750W        W41881  10.312  10.239  14.489 -0.2069  0.0066  0.1770
26751W        W41882  15.763  13.227  13.550  0.1636  0.0990  0.2133
26752W        W41883   7.847  10.392   4.431 -0.2955  0.0366  0.0015
26753W        W41884   1.971   2.530   0.900  0.1881 -0.2096  0.1307
26754W        W41885  11.339  14.040   5.362  0.1972  0.1606 -0.5313
26755W        W41886  10.603  12.281   0.549  0.0307  0.3681  0.1822
26756W        W41887  13.358   6.431  15.173 -0.0418  0.0255  0.1027
26757W        W41888   1.091   1.665   1.092  0.0956  0.2245  0.4039
26758W        W41889  17.865  15.222   3.247 -0.1622  0.0685 -0.0696
26759W        W41890   7.911   8.977  10.829  0.4913 -0.1861 -0.1155
26760W        W41891  18.293   6.517  10.598 -0.1785  0.1540  0.0180
26761W        W41892   7.962  11.720   1.122 -0.2156  0.1829 -0.2926
26762W        W41893   2.354   4.961  13.256 -0.0952  0.1986 -0.0961
26763W        W41894   3.763  17.493  13.569  0.1768 -0.0018 -0.0058
26764W        W41895   8.972   4.025  12.082  0.0173 -0.4159 -0.2233
26765W        W41896  15.255   3.780   0.416  0.1122  0.0987 -0.2866
26766W        W41897  12.567   1.301  11.125  0.0549 -0.0088  0.1922
26767W        W41898  12.893  13.979   3.530 -0.1318  0.1483  0.1277
26768W        W41899   5.609   4.254  14.593  0.0838  0.1164  0.0699
26769W        W41900   9.440  12.352   4.725 -0.0924  0.0329  0.1401
26770W        W41901   5.324  16.721  10.939 -0.0919  0.1082 -0.1617
26771W        W41902  14.629  15.333   3.807  0.1387  0.2991 -0.2005
26772W        W41903   0.160   7.560  14.594 -0.1227  0.0228  0.2855
26773W        W41904   8.224   3.371   3.740 -0.1915  0.0915  0.1896
26774W        W41905  11.631  15.162  11.033 -0.1173  0.0658 -0.3907
26775W        W41906  18.155   3.962  11.346 -0.0963  0.0475  0.0548
26776W        W41907   3.644   3.869  12.755 -0.1237  0.0854  0.1850
26777W        W41908  18.317  16.724   2.228  0.2318 -0.2724  0.0930
26778W        W41909   1.193   6.845   3.654  0.0122 -0.0617  0.0604
26779W        W41910   3.313   9.199  10.746  0.1001 -0.4321 -0.2000
26780W        W41911  10.334   2.924   0.355  0.2762  0.1096 -0.1238
26781W        W41912   5.553  16.063   0.466  0.1420 -0.2114 -0.0424
26782W        W41913   7.143  13.646  10.504  0.3789 -0.2944  0.2733
26783W        W41914   6.755   9.689   1.063  0.4519 -0.1433  0.2055
26784W        W41915   5.914  14.830  15.565 -0.1631  0.2390  0.1831
26785W        W41916  10.327  17.627  10.713  0.1116  0.1818  0.0890
26786W        W41917   0.482  15.245   2.018  0.0768 -0.4816 -0.0648
26787W        W41918   6.101  17.566  11.628  0.2893 -0.3038 -0.0397
26788W        W41919  17.739  13.246   5.140 -0.2126 -0.0210  0.1949
26789W        W41920   5.555   6.086   5.519 -0.5986  0.1305  0.0334
26790W        W41921   5.673   2.650   4.571  0.0611  0.0697 -0.5490
26791W        W41922  13.437   6.163  15.593  0.3330  0.1652 -0.0594
26792W        W41923   1.926  18.591   2.515 -0.2255 -0.1342 -0.0492
26793W        W41924  14.523  17.132   2.657 -0.1263  0.1266 -0.2873
26794W        W41925   5.354   8.182  13.017  0.0190 -0.5801 -0.3351
26795W        W41926   1.650  16.869   4.617 -0.0016  0.0662  0.1338
26796W        W41927  12.398   2.748   2.834 -0.0276 -0.1942 -0.0519
26797W        W41928   6.163   5.301  15.681 -0.1067 -0.0167  0.1398
26798W        W41929   9.104  11.619   3.388 -0.0096 -0.1899 -0.1058
26799W        W41930   5.602   2.321   0.893 -0.2669  0.2124 -0.1018
26800W        W41931   2.251   6.840   0.998  0.0245  0.0691 -0.1073
26801W        W41932   4.419   7.531   5.770 -0.0879  0.2423 -0.0169
26802W        W41933   4.229   5.539   0.548  0.0291  0.0210 -0.1893
26803W        W41934  10.325  10.261  15.461  0.0952 -0.5354 -0.0979
26804W        W41935   7.104   5.582   0.705  0.0648 -0.1948 -0.1066
26805W        W41936   9.052  14.722   4.320 -0.1892  0.0879  0.0381
26806W        W41937  12.824  15.474   5.018 -0.1104 -0.3073 -0.0829
26807W        W41938   4.563  15.400  14.161  0.2020 -0.1645  0.1519
26808W        W41939   0.194  11.557  13.293 -0.0435 -0.3546  0.0936
26809W        W41940   4.891   1.830  13.649 -0.3481 -0.0748 -0.0940
26810W        W41941  16.998   2.329   1.944 -0.3788  0.0196 -0.2101
26811W        W41942   9.653   2.494   2.067 -0.0642  0.0515  0.1067
26812W        W41943  10.494   0.159   3.272 -0.4354  0.0198  0.1717
26813W        W41944   2.759   8.034   2.643 -0.2204  0.0487 -0.2333
26814W        W41945   8.629   5.894  11.972 -0.1619 -0.1115 -0.0800
26815W        W41946  11.693  16.030   2.481 -0.0487 -0.0369  0.4566
26816W        W41947  14.507  10.723  12.613  0.0170 -0.0721  0.2404
26817W        W41948   6.683   5.880  11.316  0.0452 -0.0985 -0.3115
26818W        W41949  14.574  14.185  11.927  0.4364 -0.1611 -0.2675
26819W        W41950  11.198   3.604   0.279  0.0533 -0.1014  0.0970
26820W        W41951  17.262   5.480  14.076  0.0065 -0.0498 -0.0854
26821W        W41952  11.601  17.532   2.456 -0.0547  0.2992 -0.0852
26822W        W41953  14.455   1.217  10.549  0.1310 -0.0043  0.3743
26823W        W41954   3.560   2.306   1.572 -0.1994  0.1109  0.2255
26824W        W41955   9.180  16.757  12.545  0.0102  0.2485 -0.2660
26825W        W41956  14.989  18.335   1.919 -0.3166  0.0953 -0.0371
26826W        W41957   0.094   4.368  14.066  0.0686  0.0772 -0.0594
26827W        W41958  13.222  17.617  10.669  0.2831 -0.0839  0.0296
26828W        W41959   4.576  13.696  15.782 -0.0358  0.0249  0.0497
26829W        W41960   5.185   4.583   1.762 -0.3542 -0.0605  0.2751
26830W        W41961   9.485   4.130  12.077  0.0144  0.0939  0.0756
26831W        W41962  18.183   1.428   3.211 -0.0930 -0.3244  0.0710
26832W        W41963  11.197   4.262   2.033  0.0948 -0.1335 -0.0439
26833W        W41964   3.097   0.078   4.104 -0.1535 -0.3236  0.0767
26834W        W41965  17.721  18.466  14.478 -0.0359  0.1966 -0.2264
26835W        W41966   0.159   6.372  15.031 -0.1048 -0.2098 -0.2920
26836W        W41967  12.557   6.644   0.772 -0.1619 -0.6480  0.1377
26837W        W41968  11.915  10.572  10.732 -0.2115  0.1343 -0.2217
26838W        W41969  13.078   7.609   5.166  0.2261 -0.0478 -0.1842
26839W        W41970  11.711  13.150  10.733 -0.0723 -0.0894  0.0372
26840W        W41971  10.665  12.813  12.693  0.2961 -0.1489  0.0340
26841W        W41972  17.090  12.801   1.748  0.2587  0.2008 -0.4107
26842W        W41973  16.055   3.731  14.464  0.0233 -0.3960 -0.1143
26843W        W41974   1.126   7.510   2.986 -0.0160  0.0784  0.0505
26844W        W41975  11.299  17.558  10.639  0.1579  0.0850 -0.1903
26845W        W41976  15.838  12.209   5.388  0.1035  0.0743  0.2131
26846W        W41977   2.863   1.368  13.389  0.0602 -0.1666  0.2681
26847W        W41978   3.914  17.793   3.189 -0.2331 -0.2648 -0.2062
26848W        W41979  16.795   9.561   0.267  0.0883  0.1453  0.0743
26849W        W41980  18.688  10.294  10.070 -0.2411 -0.3274  0.2537
26850W        W41981  16.196   1.645  14.085 -0.0571 -0.1956  0.2853
26851W        W41982   9.371   7.961  11.762  0.1635  0.0360  0.1203
26852W        W41983   0.220   7.956   0.337  0.0685  0.0005 -0.1156
26853W        W41984   4.012  11.182   2.117 -0.1767  0.0361  0.1930
26854W        W41985  14.214   1.713   1.509  0.5319 -0.0699 -0.0680
26855W        W41986   6.554   2.765  15.234 -0.2871  0.2296 -0.2583
26856W        W41987  18.089   2.960  11.687  0.1059 -0.2034 -0.2457
26857W        W41988   2.472  11.806   1.600  0.1378  0.0580  0.0503
26858W        W41989   3.482  16.050  14.807  0.0973 -0.0471 -0.1194
26859W        W41990   3.278  15.322   5.311 -0.0298  0.0826  0.1315
26860W        W41991   3.706   4.214   4.135  0.0815 -0.2087 -0.0298
26861W        W41992  15.817  16.892   4.295 -0.0130 -0.0185  0.1517
26862W        W41993   5.516  10.946  14.140  0.1155  0.2491 -0.4025
26863W        W41994  18.161  18.360   4.765  0.0638  0.0388  0.2252
26864W        W41995   5.240   4.206   0.375 -0.0185  0.2709  0.0454
26865W        W41996  11.706  12.762   4.856 -0.0238 -0.2403 -0.1243
26866W        W41997   8.788  14.354  14.002  0.1662  0.0898 -0.2366
26867W        W41998   4.848  14.138  10.949 -0.2589 -0.0713 -0.2038
26868W        W41999   9.839  16.220  15.545  0.1452 -0.0688 -0.2946
26869W        W42000   0.985   0.136  15.486  0.1184  0.0387  0.1369
26870W        W42001   2.080   6.301   1.139 -0.2288 -0.1509 -0.2708
26871W        W42002  15.251  16.231   0.789 -0.2779  0.2527 -0.2375
26872W        W42003  11.900  10.448  12.603  0.0472 -0.2485 -0.0592
26873W        W42004  18.408  14.795  12.020 -0.0515 -0.0143 -0.1585
26874W        W42005  16.368  11.129   1.816  0.0883  0.0759  0.3717
26875W        W42006   3.913  16.241  14.990  0.1163 -0.1089 -0.0125
26876W        W42007  13.637   0.720   5.424 -0.1792 -0.1424  0.0786
26877W        W42008  17.074  15.884   2.279 -0.2126  0.0162 -0.5286
26878W        W42009   7.645  11.261   1.033 -0.4166 -0.0644 -0.1440
26879W        W42010  12.222   8.928  12.546 -0.1308  0.0786  0.1600
26880W        W42011   5.148  10.736   9.928  0.1260  0.1433 -0.3809
26881W        W42012  17.226  13.949   5.591 -0.0552 -0.3261  0.1373
26882W        W42013   7.704   5.959  13.161  0.0039 -0.3952 -0.3079
26883W        W42014   6.290   5.249   2.049 -0.4038  0.1770 -0.0272
26884W        W42015   1.084  13.374   3.076  0.1961  0.4630 -0.2549
26885W        W42016  15.187  17.151  11.044  0.1826 -0.2344  0.1199
26886W        W42017   2.175   5.586  14.997  0.0551 -0.0341 -0.2579
26887W        W42018   7.060   4.897  10.573 -0.2316  0.1619 -0.4081
26888W        W42019  13.987  17.084  10.549  0.0032 -0.3410 -0.1655
26889W        W42020   8.893  13.552   0.900  0.3539  0.1521 -0.2558
26890W        W42021  17.097   4.010   4.714  0.2032 -0.1586  0.1189
26891W        W42022   9.686   5.156  12.942  0.1049  0.1492 -0.1118
26892W        W42023   2.586  17.072  13.250 -0.2047  0.0141  0.2551
26893W        W42024   6.391  16.626   0.101  0.3172  0.2875 -0.0768
26894W        W42025  10.136  12.292   4.582  0.2860 -0.1205 -0.1351
26895W        W42026   1.272  12.924  15.789 -0.1668 -0.2640 -0.2338
26896W        W42027   7.506   2.112  11.089 -0.0524 -0.0925  0.0703
26897W        W42028  15.774  17.902   5.907 -0.1573 -0.5203  0.0264
26898W        W42029  13.002   8.744   4.529 -0.0636  0.2383  0.1557
26899W        W42030   9.580   3.321  11.320  0.1976  0.1833  0.0979
26900W        W42031  18.014  16.124  11.615  0.0231 -0.0369  0.0421
26901W        W42032   5.056   1.945   4.801 -0.0064 -0.1776  0.1342
26902W        W42033   2.933   3.940  15.387 -0.1424 -0.3649  0.0927
26903W        W42034   9.476  13.108  12.377  0.0693 -0.1721  0.0970
26904W        W42035  13.295  17.119  14.918 -0.0331 -0.1636  0.0658
26905W        W42036   0.123   9.464  13.618  0.0010  0.1407  0.1574
26906W        W42037  10.438  13.289  13.388 -0.0237  0.2896  0.0335
26907W        W42038  13.742  18.078   9.905 -0.0970 -0.3608 -0.3189
26908W        W42039  16.471   0.874   4.549 -0.1606 -0.1563  0.0647
26909W        W42040  13.892   0.010   2.431  0.0233 -0.0889 -0.2032
26910W        W42041   8.942  15.606   3.235 -0.2475  0.2416 -0.0807
26911W        W42042   8.457   7.712   3.568 -0.0229 -0.1351 -0.0860
26912W        W42043  13.886   5.323  12.453  0.0489  0.0466 -0.3317
26913W        W42044  15.171  13.748   2.837 -0.0532  0.4119  0.4078
26914W        W42045   7.641   9.441   5.460  0.1579 -0.1356 -0.1159
26915W        W42046  13.199   2.936   0.975 -0.3944 -0.2592  0.0082
26916W        W42047  12.928  17.533   2.046  0.1160 -0.1390  0.1908
26917W        W42048   8.850   6.166   0.940  0.0439 -0.1622  0.1292
26918W        W42049  10.441   4.490   0.121 -0.1885 -0.0386  0.1764
26919W        W42050  17.822  11.962  14.508 -0.2821 -0.0432  0.1172
26920W        W42051   0.929   3.817  12.886 -0.3132 -0.1029 -0.1745
26921W        W42052  14.457   8.044   2.090 -0.2173 -0.2689 -0.1804
26922W        W42053   2.302  16.568  15.370 -0.0177  0.1694 -0.1742
26923W        W42054   5.825  11.158  11.359  0.1575  0.0142 -0.0147
26924W        W42055  16.528  15.516  15.366 -0.1722  0.0516 -0.1292
26925W        W42056   2.109  12.905  11.197 -0.3105  0.0274  0.0070
26926W        W42057  13.698  18.185   3.977  0.1859  0.1194 -0.2783
26927W        W42058  14.289  10.005   5.440 -0.1344 -0.3569  0.2266
26928W        W42059   2.878   5.842  10.841  0.1995  0.0363  0.1289
26929W        W42060   4.367   5.873   0.084  0.1248 -0.2950 -0.1656
26930W        W42061   4.704  11.928   1.894  0.0515  0.0070 -0.0953
26931W        W42062  17.871  13.500  15.440  0.0751 -0.1814  0.2219
26932W        W42063   8.797  13.944  11.210  0.1353  0.0620 -0.1677
26933W        W42064   8.816  16.961   5.755 -0.3068 -0.1806  0.2688
26934W        W42065  11.176  16.607  10.366  0.5839  0.1190  0.3766
26935W        W42066  12.027  15.413  11.484 -0.1181 -0.1969  0.1426
26936W        W42067   7.117   8.456  15.173  0.0362 -0.2151  0.2352
26937W        W42068   2.877  16.643  13.388  0.3086  0.4356 -0.1400
26938W        W42069  12.714   3.123   0.351 -0.3353  0.1913  0.0149
26939W        W42070  17.187   9.532  13.878 -0.1549 -0.1209  0.1392
26940W        W42071   6.781  14.044  11.970 -0.1812 -0.0760  0.0041
26941W        W42072  15.950   7.571   1.428  0.3058 -0.0912  0.0435
26942W        W42073   7.336   5.519  12.886 -0.1668  0.2983 -0.0979
26943W        W42074  15.908  10.849   1.767 -0.1309  0.3346 -0.2942
26944W        W42075   2.818   2.100   5.437  0.0130 -0.0735 -0.0853
26945W        W42076   3.281  10.053  15.581  0.1136 -0.0628  0.1361
26946W        W42077   3.185  17.512  14.852  0.0116  0.2679  0.1336
26947W        W42078  10.858  18.353   0.859 -0.2106  0.1371 -0.2309
26948W        W42079   4.816  18.375  11.037 -0.4142  0.0345 -0.3734
26949W        W42080   5.347   2.661  13.250 -0.0795 -0.1807  0.1473
26950W        W42081  14.714  12.196  10.963  0.2451 -0.5749 -0.3738
26951W        W42082   4.014   1.535   1.478  0.1222 -0.0171  0.0842
26952W        W42083  11.723   9.302  12.573 -0.0379  0.1535 -0.1624
26953W        W42084  10.070   6.518  12.393 -0.3418  0.1534  0.2802
26954W        W42085   0.990   9.610   5.443 -0.0680  0.1743 -0.2141
26955W        W42086   4.618   5.660  13.676  0.0421 -0.1169  0.0897
26956W        W42087   6.047   5.748   4.860 -0.2664 -0.0612 -0.2930
26957W        W42088  17.535  15.082  12.898 -0.0280  0.2382  0.0630
26958W        W42089   3.152  16.789  10.625  0.0792 -0.2141  0.1509
26959W        W42090  13.156   3.825   1.566  0.1987 -0.1381 -0.0552
26960W        W42091  15.493  15.675  14.574  0.0024  0.1734 -0.0633
26961W        W42092   9.500  12.899   0.807  0.0391  0.0453 -0.0569
26962W        W42093   4.521  12.593  11.980 -0.0981 -0.0930 -0.1970
26963W        W42094   6.650   6.220   1.399 -0.1650  0.3194  0.4268
26964W        W42095   8.461  15.568   1.164 -0.3310 -0.4130  0.2801
26965W        W42096  16.694  17.071  10.912 -0.4306 -0.1186  0.2092
26966W        W42097   7.715  14.448  15.497  0.5063  0.2526 -0.1993
26967W        W42098  15.575   9.503   4.098 -0.1413 -0.3853 -0.2569
26968W        W42099   3.839  11.452  12.984 -0.0861 -0.0734  0.0978
26969W        W42100   7.327  17.733   2.621  0.0779  0.0325 -0.0192
26970W        W42101   0.780  11.671  15.706  0.0069  0.1754  0.2695
26971W        W42102   9.721   6.313  13.552 -0.0334  0.1218 -0.1708
26972W        W42103   6.427  10.726  14.591  0.0356 -0.1239 -0.0956
26973W        W42104  12.196   2.505  11.419  0.1559 -0.1310 -0.3019
26974W        W42105   2.148  14.246  10.687 -0.5600 -0.0927  0.0448
26975W        W42106  15.786   1.032  12.466 -0.1013  0.0227 -0.0337
26976W        W42107  15.889  15.454   5.356  0.1776 -0.0352  0.4057
26977W        W42108  14.837   2.738  15.030  0.2712  0.0612  0.0925
26978W        W42109   6.562  16.663   3.212 -0.1613  0.2711  0.0679
26979W        W42110  11.508   7.473   3.022 -0.2350  0.1694 -0.1939
26980W        W42111  13.844   3.717  14.604  0.0616 -0.3330  0.3010
26981W        W42112   3.409  11.283  12.950 -0.2604  0.0687  0.1947
26982W        W42113   0.890  11.121  14.824  0.4101 -0.1511  0.0655
26983W        W42114   0.617   7.170  14.602 -0.2128 -0.1979 -0.4458
26984W        W42115  15.165   0.888   4.795 -0.0834 -0.2587  0.0451
26985W        W42116  17.412   6.759  13.686  0.1225 -0.0268 -0.0708
26986W        W42117  16.357  14.800   5.030 -0.0287  0.5833  0.2519
26987W        W42118  16.563  16.826  12.318 -0.0459  0.1115  0.4500
26988W        W42119  10.420   8.100   3.195 -0.3592 -0.2169 -0.2242
26989W        W42120   5.434  13.892  11.948 -0.0188  0.2286  0.0687
26990W        W42121   3.118  10.788   2.291 -0.0657  0.3393  0.1509
26991W        W42122   3.641  13.492  11.896 -0.2649  0.2818  0.1089
26992W        W42123  10.193  18.460  14.433  0.0011  0.3526 -0.3041
26993W        W42124  18.068   7.421  11.793 -0.0181 -0.1791  0.4901
26994W        W42125  12.551   1.163  14.967  0.0821 -0.1931  0.2117
26995W        W42126   0.918  12.984  15.417  0.1765 -0.2052  0.3513
26996W        W42127   8.304  17.732   3.003 -0.0137  0.2564 -0.1850
26997W        W42128  14.640   6.369  15.659  0.1423  0.1395 -0.0830
26998W        W42129   8.262  17.260  12.825 -0.4004 -0.0280 -0.0292
26999W        W42130   4.060   2.467   1.787 -0.3074  0.2002  0.2401
27000W        W42131   8.346   9.979  10.948 -0.1764  0.0026  0.1526
27001W        W42132   9.654   7.895   1.242 -0.3970 -0.2125  0.1766
27002W        W42133  11.390   6.973   1.276  0.0577  0.0116  0.1882
27003W        W42134  15.586  16.042   3.283 -0.1081 -0.0594 -0.3335
27004W        W42135   7.502   7.849  14.434 -0.4559  0.0201 -0.1900
27005W        W42136   3.852   1.063   1.650 -0.0023  0.0096  0.3015
27006W        W42137  11.697   9.582  13.025  0.2187  0.2836 -0.2483
27007W        W42138   9.563  14.671   4.873 -0.0933  0.1821 -0.2529
27008W        W42139   2.847  15.618   4.560  0.0979 -0.1886 -0.0504
27009W        W42140   8.330   5.077  14.284 -0.1729  0.0699  0.2319
27010W        W42141   9.968   9.230  12.456  0.1781 -0.0675  0.2098
27011W        W42142  17.742   0.745  10.844 -0.0603 -0.0180  0.1656
27012W        W42143   9.084   5.801  13.329  0.3598  0.1835 -0.0260
27013W        W42144   9.396  18.522  13.967 -0.1581  0.3199  0.1856
27014W        W42145  10.759  11.012   0.204  0.0447 -0.1949  0.2572
27015W        W42146  11.889   2.975   2.573  0.3384 -0.0867  0.0989
27016W        W42147  13.555  11.174  15.220 -0.2345 -0.0923 -0.0782
27017W        W42148   4.090  16.179   2.584 -0.1014  0.3247  0.2266
27018W        W42149  12.470   3.625   0.045  0.0368 -0.2144 -0.1580
27019W        W42150   1.708   1.975  15.542  0.0736 -0.2583  0.1996
27020W        W42151   5.242  11.332   2.855 -0.0099  0.1015  0.3063
27021W        W42152   3.282  16.341  13.406 -0.0815  0.1670  0.0547
27022W        W42153  15.262  12.798   2.007 -0.0266 -0.1910 -0.1854
27023W        W42154   4.521   0.968   3.915 -0.2605  0.0587  0.2874
27024W        W42155  17.836   1.686   2.008  0.2529  0.0270  0.4264
27025W        W42156  16.087   9.302  14.736 -0.2949 -0.0493  0.2593
27026W        W42157  11.651   8.772  11.738 -0.0726 -0.1897 -0.0057
27027W        W42158   7.493  10.267   2.748  0.0143 -0.1722  0.4405
27028W        W42159  12.007  11.069  12.589 -0.3841  0.1646  0.2077
27029W        W42160  11.628  15.808  10.522 -0.1771  0.0995 -0.1662
27030W        W42161   4.023   8.018   3.725 -0.0912  0.1557  0.1808
27031W        W42162   0.785   9.739  15.003 -0.3382  0.1526  0.0867
27032W        W42163  13.996  14.561  12.175  0.0790  0.0649 -0.5528
27033W        W42164   3.333   0.165   1.635 -0.3075  0.0751 -0.3107
27034W        W42165  11.493   8.091  11.740 -0.1626 -0.2612  0.1725
27035W        W42166   0.650   0.655  12.139 -0.2395  0.0170 -0.0571
27036W        W42167   3.362  18.467  14.875  0.0511 -0.1614 -0.3341
27037W        W42168   6.377  11.575  13.343  0.2563  0.0192 -0.0722
27038W        W42169   6.753   2.508   4.720  0.1061 -0.0560 -0.0752
27039W        W42170  13.735   4.890  10.391  0.1342  0.1282  0.4086
27040W        W42171  13.641   2.739   5.304 -0.0377 -0.0377 -0.4908
27041W        W42172   2.720   5.152   3.656  0.2432  0.1256  0.0811
27042W        W42173  13.402  15.880  15.220 -0.0781 -0.0825  0.0611
27043W        W42174   6.528   6.422  13.746 -0.1550  0.1251  0.0199
27044W        W42175   0.135   1.146   3.606  0.1097 -0.0185 -0.0843
27045W        W42176   6.207   3.401  14.811  0.3478  0.0858 -0.1220
27046W        W42177  14.699   6.128   5.190 -0.2297 -0.0643 -0.1661
27047W        W42178   6.917  10.500  10.252  0.0177 -0.0097 -0.4119
27048W        W42179  14.802  15.398   3.019 -0.2471 -0.1840  0.1160
27049W        W42180  13.434   4.338  14.654  0.1371  0.1533  0.2739
27050W        W42181   8.877  10.002  11.023  0.2050  0.1705 -0.2862
27051W        W42182   3.282  17.687  12.522 -0.3311  0.1006 -0.0617
27052W        W42183  17.093   4.870  10.856 -0.1937  0.0060 -0.0946
27053W        W42184   3.749  13.054  15.026 -0.1557  0.0156  0.0856
27054W        W42185   7.650  14.973   3.512 -0.0901  0.0113  0.0744
27055W        W42186  15.031  17.740  11.147 -0.0541 -0.1796  0.1574
27056W        W42187  14.700  11.412  13.783 -0.0252  0.0159 -0.0390
27057W        W42188  13.867  17.744  12.528  0.1196  0.0945 -0.0925
27058W        W42189  17.397  17.503   1.091 -0.1322  0.2160 -0.0389
27059W        W42190   0.084   0.020  14.263  0.1735 -0.3193 -0.3821
27060W        W42191   1.941  13.872   1.391 -0.0694 -0.2383  0.1296
27061W        W42192  18.269   5.608  11.697  0.1057 -0.2199  0.2253
27062W        W42193   5.668   6.564   1.636  0.2333 -0.0620 -0.0631
27063W        W42194  15.867   0.846   0.014  0.0448  0.0368 -0.0775
27064W        W42195  14.466   9.828  14.170  0.2198 -0.1240  0.0209
27065W        W42196   1.705   1.287   2.563 -0.1300 -0.0094 -0.3258
27066W        W42197   6.039   5.799  15.430  0.2871  0.1617  0.1003
27067W        W42198   8.412  12.238  10.634  0.2113 -0.1460 -0.3562
27068W        W42199  12.215   4.842  11.364  0.0194  0.0408  0.1016
27069W        W42200  16.470   2.378  13.005 -0.1452 -0.5447 -0.2034
27070W        W42201   0.399  12.792   2.023  0.5340 -0.0783 -0.0278
27071W        W42202   6.468  15.159   4.690  0.2670 -0.1992 -0.1788
27072W        W42203   7.774  10.819   4.093  0.0997  0.1295 -0.0753
27073W        W42204   5.927   5.658   0.561  0.0729 -0.1598  0.0721
27074W        W42205   1.153   9.279  13.509 -0.0673 -0.2427  0.2735
27075W        W42206  18.192   8.621  14.096 -0.0113 -0.0979  0.4392
27076W        W42207   4.061   8.973   5.388  0.4078 -0.0008 -0.1308
27077W        W42208   2.956   1.763  15.027 -0.1794 -0.1878  0.0765
27078W        W42209   5.518   6.692   4.552  0.0214 -0.2631 -0.0996
27079W        W42210   6.640  17.225   1.892 -0.0402  0.1498 -0.1064
27080W        W42211   2.103  10.035   4.707  0.1447 -0.0145  0.0707
27081W        W42212   8.553   4.269  15.079 -0.2667  0.1010 -0.1459
27082W        W42213   8.862   1.442  12.011  0.0859  0.0850  0.4177
27083W        W42214  13.517   1.328   4.805 -0.3005 -0.0748 -0.2069
27084W        W42215  11.420  12.166  10.999  0.1389  0.3092  0.0156
27085W        W42216  16.895   6.299  14.501 -0.2754  0.0361 -0.0332
27086W        W42217  15.467  15.332  14.087 -0.0467  0.0796  0.1049
27087W        W42218  18.483   4.420   0.855 -0.3364  0.0385  0.1080
27088W        W42219   0.251   5.778  10.542  0.2834 -0.2725  0.0350
27089W        W42220  15.979  12.770  13.197 -0.0342 -0.1546 -0.0467
27090W        W42221   3.653   4.028  13.359 -0.3348 -0.0137  0.2602
27091W        W42222   4.257   6.357  14.776  0.2400 -0.0000  0.0529
27092W        W42223  11.150   2.273   2.606  0.3755 -0.1899  0.1816
27093W        W42224   2.303   2.318   5.306 -0.4075  0.1912  0.1793
27094W        W42225  10.156   8.068  10.485 -0.0691 -0.0812 -0.1048
27095W        W42226   0.750  13.578   0.405 -0.1090 -0.1902  0.2420
27096W        W42227   7.578   4.399  12.009  0.0592  0.2123 -0.0790
27097W        W42228   8.330  13.730  15.410 -0.0788 -0.1707  0.0702
27098W        W42229  14.305   7.069   0.012  0.1521 -0.1681 -0.0617
27099W        W42230   0.171  10.621   4.991 -0.1635  0.2537 -0.0180
27100W        W42231  18.264  14.073  10.345 -0.2397 -0.0908 -0.0755
27101W        W42232  16.308   0.336   2.305 -0.0369 -0.0982  0.0542
27102W        W42233  16.128   9.739   3.505  0.0105 -0.2508 -0.1874
27103W        W42234   9.986  17.811   4.462 -0.1980  0.0722  0.0485
27104W        W42235   8.492  14.965  12.682  0.0845 -0.0617  0.2015
27105W        W42236  12.432  16.124   5.703 -0.1303  0.0750  0.1333
27106W        W42237  18.458   8.898   1.856  0.2626 -0.1156 -0.0134
27107W        W42238   0.837  15.824  14.647  0.1743 -0.0634 -0.0503
27108W        W42239   9.212   2.265  14.249 -0.0826  0.0952  0.2726
27109W        W42240   7.859  16.715   0.320 -0.0508 -0.3126 -0.2122
27110W        W42241   2.791  10.727   0.926 -0.3046 -0.1146 -0.0756
27111W        W42242   3.199   8.750  10.598  0.0243 -0.1428  0.5010
27112W        W42243  10.058  11.150   2.969  0.3391 -0.2128 -0.1444
27113W        W42244   4.411   4.808  10.995 -0.0051 -0.2045 -0.1950
27114W        W42245  14.633   3.266  15.051 -0.1933 -0.1379 -0.2464
27115W        W42246  11.504  10.141   4.707  0.1040 -0.1224  0.1591
27116W        W42247   5.186   5.676   2.901 -0.1441  0.2143  0.1126
27117W        W42248  10.380  16.132   2.588  0.0496  0.0579 -0.1626
27118W        W42249  15.953   6.949   0.986  0.0197 -0.1667 -0.5006
27119W        W42250   1.811  13.074   4.765  0.1348  0.0886  0.0900
27120W        W42251   9.650   5.287  12.109 -0.3944 -0.2663 -0.0217
27121W        W42252  15.177  10.764   3.539  0.1561 -0.1669 -0.0515
27122W        W42253  13.805  10.961  10.958  0.1244 -0.1681 -0.2174
27123W        W42254   4.276   4.369  14.982 -0.0805 -0.1149  0.1196
27124W        W42255  12.231  12.723   0.031 -0.0925 -0.2265  0.1576
27125W        W42256   4.174  16.420  13.197 -0.2784 -0.3380  0.2225
27126W        W42257   6.911   5.893  15.806 -0.3248  0.0043  0.1245
27127W        W42258   2.780  18.674  12.551 -0.1120 -0.1783 -0.1202
27128W        W42259  10.940   8.813  15.079 -0.3038  0.1784  0.0642
27129W        W42260   4.213   6.876  13.176  0.0309 -0.1261 -0.1324
27130W        W42261   0.235   9.392   3.740 -0.3084  0.0017 -0.2826
27131W        W42262  17.207   4.305  13.476 -0.1825 -0.3879  0.2518
27132W        W42263  16.389   4.739   2.292 -0.3267 -0.2448 -0.1363
27133W        W42264   5.909  15.972  14.340 -0.2975 -0.2363 -0.2128
27134W        W42265   5.022  12.199   2.709 -0.1276  0.0281 -0.2148
27135W        W42266   8.657   8.520  14.991 -0.1407  0.0519  0.2117
27136W        W42267  15.378   0.685   2.124 -0.0684  0.0696  0.2057
27137W        W42268  10.076   6.389   1.567  0.2259  0.0774 -0.0245
27138W        W42269  17.182  11.825  15.274  0.2247  0.3003 -0.2260
27139W        W42270   1.913  14.799  15.644  0.1986  0.0101  0.2133
27140W        W42271   3.226  15.828  14.475  0.0958  0.1332 -0.2498
27141W        W42272   7.054  14.091   0.185 -0.1078  0.3643 -0.1277
27142W        W42273  11.507   8.881   4.996  0.0548 -0.2776 -0.1403
27143W        W42274  15.963  13.466   4.181 -0.1041 -0.1713 -0.1103
27144W        W42275   0.807  11.239   1.604  0.1703  0.0684  0.1922
27145W        W42276  16.212   4.671   0.603 -0.1189 -0.0363 -0.1746
27146W        W42277  14.978  12.494  13.471  0.0643  0.1859  0.0872
27147W        W42278  13.068   9.227  15.008  0.0091  0.3998 -0.1191
27148W        W42279  11.079   0.980   1.041 -0.1304  0.1373  0.2740
27149W        W42280   7.188  11.536  13.728 -0.0326 -0.1223  0.3493
27150W        W42281  11.709  14.811   3.109  0.0930 -0.0381  0.0239
27151W        W42282   0.592  18.506  13.799 -0.5112  0.1486  0.0879
27152W        W42283   1.213   0.885   3.193 -0.1538 -0.0600  0.0221
27153W        W42284  12.064   7.684  13.009  0.0231 -0.0095 -0.2006
27154W        W42285   0.110  12.658   0.291  0.0512 -0.2968 -0.5093
27155W        W42286   9.707   8.354   0.359 -0.1819  0.1200  0.3618
27156W        W42287   2.921   7.838   0.924  0.1069 -0.0345  0.3763
27157W        W42288   3.938   9.103   1.349  0.0105 -0.0275 -0.0923
27158W        W42289  11.692   2.713  13.828 -0.0005 -0.0648  0.0311
27159W        W42290   1.851   6.761   3.780 -0.0186 -0.0692 -0.1749
27160W        W42291  14.177   3.481  14.912 -0.3852 -0.1150  0.1408
27161W        W42292   8.699  14.714  11.808  0.0825 -0.0169  0.0015
27162W        W42293  10.884  13.710   3.384  0.0967 -0.2581  0.3272
27163W        W42294  10.518   7.757   2.196  0.3379  0.0105 -0.0774
27164W        W42295   6.973  17.826  14.380 -0.0833 -0.2579  0.3916
27165W        W42296   0.921  17.150  11.515 -0.0151 -0.2232  0.0055
27166W        W42297  14.046  17.750   4.958 -0.0821  0.1867 -0.2008
27167W        W42298   4.518   1.994   4.131 -0.0610  0.0309 -0.2742
27168W        W42299   7.515  18.301  12.667  0.3994 -0.0418  0.0142
27169W        W42300   4.888   4.058  15.793 -0.2463 -0.0880  0.1371
27170W        W42301  12.294  10.589   3.840 -0.0527 -0.0567 -0.1499
27171W        W42302   1.795  18.063   1.040 -0.0084  0.2218 -0.0041
27172W        W42303  13.765   7.307  14.289 -0.1502 -0.0045 -0.1870
27173W        W42304  13.960  18.461   0.075 -0.1551  0.1417  0.0850
27174W        W42305   8.075   6.464   0.829 -0.1071 -0.1456 -0.1335
27175W        W42306   4.920   7.488  14.441  0.0004  0.0378  0.0178
27176W        W42307  10.330  14.199   3.981 -0.2109  0.0926 -0.0465
27177W        W42308  17.039  17.236   4.192  0.2236 -0.1397 -0.4894
27178W        W42309  10.937  13.006   3.965  0.1150 -0.2083  0.3201
27179W        W42310   7.139   2.387   4.330 -0.1344  0.1745  0.1314
27180W        W42311   8.664  11.510   3.225  0.0661  0.0221  0.0557
27181W        W42312  10.548   9.499   1.985 -0.0379  0.1131 -0.1807
27182W        W42313  14.070   0.536   5.749 -0.0096  0.0542  0.1804
27183W        W42314   4.789   4.775  14.538 -0.0875 -0.1291 -0.1069
27184W        W42315  17.645   3.771   1.443 -0.3533 -0.1703 -0.0323
27185W        W42316  13.047   1.196   0.612  0.1109 -0.3037 -0.0646
27186W        W42317   3.897  18.350   0.199 -0.1860 -0.0138  0.1546
27187W        W42318   7.499   0.815  12.929  0.1681 -0.1714  0.3685
27188W        W42319   8.872  12.530   2.398 -0.1470  0.0784 -0.1836
27189W        W42320   1.805   4.904   5.162 -0.1861  0.1939  0.2212
27190W        W42321   9.682   4.474   2.963 -0.2880 -0.1122  0.0303
27191W        W42322  13.914  17.740  13.047 -0.2649 -0.0280 -0.1454
27192W        W42323   9.785   0.075   1.541 -0.0833  0.0023 -0.0418
27193W        W42324  11.158  10.694  15.458  0.3084 -0.0240  0.2933
27194W        W42325  16.263   6.836  13.459 -0.1193 -0.1902  0.0728
27195W        W42326   6.552   1.700   1.494  0.0815 -0.1844 -0.5654
27196W        W42327   2.460  16.516   4.549 -0.3067 -0.3156 -0.0123
27197W        W42328  16.688  11.145  11.224 -0.3335 -0.3368 -0.0971
27198W        W42329   2.109  16.140  10.915  0.0080  0.1857  0.3266
27199W        W42330   6.619   6.731  10.780 -0.2188  0.0464 -0.0018
27200W        W42331   5.638  13.408   2.389 -0.1895 -0.0378 -0.2356
27201W        W42332   5.449  14.074   2.999 -0.3676  0.0821  0.3194
27202W        W42333   8.337   8.305  12.422 -0.2094  0.0831 -0.1366
27203W        W42334  16.553  18.536   2.429  0.1616 -0.1740 -0.1831
27204W        W42335  17.064  17.257   3.257 -0.1160 -0.1938  0.1970
27205W        W42336  16.324   2.573   4.506  0.2342  0.2481 -0.0749
27206W        W42337  14.833   1.542   3.535  0.1200 -0.1416 -0.1826
27207W        W42338   0.980   4.736  11.218  0.0959  0.1117  0.1606
27208W        W42339  11.606  10.395  15.560  0.1236  0.1101  0.0147
27209W        W42340   8.214  11.217  15.687 -0.2683 -0.3421 -0.1597
27210W        W42341  13.536  12.448   4.268 -0.2537 -0.1714 -0.3210
27211W        W42342  18.301  11.958   0.907  0.0124 -0.1168 -0.1181
27212W        W42343  11.129   5.954  14.591  0.0933 -0.0475  0.1091
27213W        W42344  17.385   5.456   2.819 -0.1690 -0.0882  0.1313
27214W        W42345   5.951  14.827   2.553  0.1531 -0.0241 -0.2457
27215W        W42346   6.582  15.433  15.461 -0.1475  0.1410 -0.0990
27216W        W42347   8.761  12.373  11.925 -0.1419  0.0423 -0.0193
27217W        W42348   1.634  10.782  10.730 -0.1751  0.0811 -0.2606
27218W        W42349   6.756  15.588  11.061  0.1100  0.2986  0.2524
27219W        W42350  12.442   6.245   3.831 -0.2185 -0.0783  0.1678
27220W        W42351  14.247   6.618   4.588 -0.0525  0.2126 -0.1200
27221W        W42352  15.824  17.656  11.342 -0.1353 -0.1344 -0.0707
27222W        W42353   7.222   3.461   0.548 -0.2163  0.3508  0.0453
27223W        W42354   0.955   8.571  12.211  0.1923  0.2437  0.2536
27224W        W42355  10.981  15.281   1.462  0.1654 -0.1658  0.0317
27225W        W42356  15.275   8.018  12.114 -0.2337  0.2544 -0.4300
27226W        W42357   0.073  18.250   1.771  0.2876 -0.1069  0.0306
27227W        W42358   4.606  17.608  10.557  0.1831  0.0443  0.0231
27228W        W42359  17.343  13.864  14.360  0.2210 -0.0435 -0.0464
27229W        W42360  11.010  18.281  13.768 -0.3396 -0.0493 -0.1790
27230W        W42361  12.370   8.861  12.035 -0.0803 -0.2484 -0.3727
27231W        W42362  17.247  11.843   2.177  0.1761  0.1512 -0.0958
27232W        W42363  17.262  14.435   0.949  0.0449  0.0891  0.2504
27233W        W42364   4.440  14.723  12.492  0.0109 -0.0098 -0.0582
27234W        W42365   9.835   8.775   1.808 -0.1878 -0.3772  0.4730
27235W        W42366  13.572  16.467   0.589 -0.0264  0.2525 -0.0570
27236W        W42367   4.335  12.802   0.537  0.2822 -0.0179 -0.1919
27237W        W42368   3.898  14.330  15.094  0.1377 -0.0824 -0.0325
27238W        W42369  16.289   4.282  14.985 -0.4554  0.1974  0.1546
27239W        W42370   7.805  17.959  11.395 -0.0588 -0.0563 -0.1613
27240W        W42371   7.205   4.415  15.305 -0.2789  0.1611 -0.1843
27241W        W42372   7.673  13.571  12.055  0.0309 -0.1027  0.0495
27242W        W42373  18.507   3.633  11.965 -0.1544  0.0976 -0.3294
27243W        W42374  15.571   0.630  14.275  0.1861  0.2808 -0.0264
27244W        W42375  18.437   6.772   4.700 -0.1926  0.1302  0.1712
27245W        W42376   4.294  15.634  13.580 -0.1406  0.0033 -0.2664
27246W        W42377  16.521   6.911   1.836 -0.2176  0.1358 -0.1754
27247W        W42378  17.881  13.203  12.274 -0.2905  0.1098 -0.4257
27248W        W42379  15.288  17.534   5.823 -0.0442  0.0547  0.0515
27249W        W42380  18.333   9.553  12.116 -0.1576  0.0788  0.3748
27250W        W42381   4.940  16.252  15.025 -0.0546 -0.2357 -0.3354
27251W        W42382  13.830   1.728  10.815 -0.2878  0.0700  0.1001
27252W        W42383   7.088  13.226   5.781 -0.5846 -0.0744 -0.2089
27253W        W42384   6.040   7.282  14.697 -0.0863  0.2490 -0.0853
27254W        W42385  14.688   1.090  12.620 -0.3132 -0.0258  0.2420
27255W        W42386   9.310   4.154   0.585 -0.2855  0.0593  0.3819
27256W        W42387   0.936  11.233   0.603 -0.1323 -0.2059  0.0100
27257W        W42388  17.669  14.420   4.881 -0.0836  0.0167  0.0345
27258W        W42389   8.358   5.538  14.447 -0.1602  0.1702  0.0731
27259W        W42390   2.268  15.007   0.131 -0.2368 -0.0097  0.1523
27260W        W42391   7.317   1.022  11.538  0.3009 -0.2170  0.1319
27261W        W42392  17.173   3.191  14.366 -0.0519 -0.0910  0.0832
27262W        W42393   0.054   6.262  11.450 -0.1371  0.1334  0.2074
27263W        W42394  15.675   8.027   5.850  0.2892  0.1259 -0.0653
27264W        W42395   2.307  18.448  15.132  0.2571 -0.1748  0.4526
27265W        W42396   6.711   9.420  15.779 -0.2168  0.2628  0.0699
27266W        W42397  14.745  18.615   3.395 -0.0185 -0.1589 -0.1063
27267W        W42398   6.851   4.523   5.401  0.6512  0.0168 -0.1121
27268W        W42399  11.836  11.884  11.469  0.0635 -0.0372  0.2385
27269W        W42400  12.867  13.265  14.728  0.2379  0.3818 -0.1520
27270W        W42401   5.799   8.446  10.277  0.0776 -0.1535 -0.0725
27271W        W42402   5.600   8.964  15.520 -0.2777  0.0779  0.1356
27272W        W42403   3.802  16.529  13.553  0.0711  0.1226  0.0374
27273W        W42404   4.787   5.356   3.010 -0.1745 -0.4307  0.0588
27274W        W42405   2.145  14.741   4.999 -0.1044  0.2149 -0.3055
27275W        W42406   7.078  17.489   5.115 -0.2585  0.1147  0.1468
27276W        W42407  15.640   8.196  14.900  0.0477 -0.2898 -0.0652
27277W        W42408  13.310   9.417  12.538  0.0780  0.1318 -0.1339
27278W        W42409  11.636   9.904  15.278 -0.0891  0.1917 -0.0963
27279W        W42410   7.567  13.136   9.944  0.3006  0.1156  0.2003
27280W        W42411   1.509   6.223   1.116  0.1710  0.1990  0.3341
27281W        W42412   1.128  16.946   5.473 -0.2068 -0.1195  0.4267
27282W        W42413   0.429   7.415   5.987 -0.2553  0.0257  0.2811
27283W        W42414  11.815   5.953   5.508  0.0970 -0.0143 -0.1947
27284W        W42415   5.644  13.744   2.023  0.1081 -0.1607 -0.0404
27285W        W42416   2.314   3.254   4.522 -0.0111  0.2519 -0.1047
27286W        W42417   7.153   5.908   4.043  0.0857 -0.0884 -0.0715
27287W        W42418   5.304  11.265   3.748  0.1676  0.1015  0.0950
27288W        W42419  10.125   2.223   0.755  0.1450 -0.3893  0.2126
27289W        W42420  15.653   8.713   1.288  0.0312 -0.2236  0.3449
27290W        W42421   8.809  10.036   3.969 -0.0949 -0.2890  0.0387
27291W        W42422  17.189   4.473  10.539 -0.0531  0.1961 -0.1355
27292W        W42423   5.743  18.107   1.301  0.3623 -0.4441  0.3370
27293W        W42424  18.000   2.966   4.051 -0.0981 -0.0830  0.0826
27294W        W42425   9.242   8.253  13.286 -0.4358  0.4345 -0.2491
27295W        W42426  11.600  16.966  14.436  0.1395  0.0342  0.1923
27296W        W42427   5.080  14.871   1.882  0.3838 -0.0588  0.1613
27297W        W42428  16.347   4.358   0.025 -0.0656  0.2331  0.3489
27298W        W42429   1.886  14.500  11.474 -0.0256 -0.0563 -0.0940
27299W        W42430  14.887   6.240   1.218 -0.1476  0.5131  0.2681
27300W        W42431  12.587   5.389   4.206  0.0665  0.0727  0.2584
27301W        W42432  18.121  14.232   1.220  0.1178  0.5470 -0.1139
27302W        W42433  14.694   1.573  11.113  0.2306  0.1916 -0.0189
27303W        W42434   8.970   0.482  14.942  0.2796 -0.4659  0.1115
27304W        W42435   5.927  13.572   1.521  0.2495  0.0097 -0.2493
27305W        W42436   5.597  12.992   2.710  0.1574  0.1217 -0.1359
27306W        W42437  14.306  16.645   1.711  0.1805  0.2697 -0.1193
27307W        W42438  10.758  18.071   0.432 -0.0064 -0.2086 -0.1101
27308W        W42439   7.497   6.416  12.710  0.0712 -0.0085  0.1319
27309W        W42440  16.929   5.270   1.935  0.1746  0.1434  0.0365
27310W        W42441  16.235   3.852  13.989  0.0973  0.1468 -0.0135
27311W        W42442  10.663  13.395   3.000  0.1094 -0.2565 -0.1216
27312W        W42443   2.236   2.190   3.529 -0.1126  0.1778  0.0112
27313W        W42444  16.744   6.684  10.846  0.1426  0.2294 -0.5017
27314W        W42445   9.835   9.833  10.394 -0.0203  0.0691  0.2161
27315W        W42446   0.812   2.750  13.433 -0.2216  0.0169 -0.0043
27316W        W42447  11.749  16.646  11.386  0.1781 -0.1263 -0.2034
27317W        W42448  14.395  10.454  13.411  0.3317 -0.0168  0.1242
27318W        W42449   8.393   6.915   5.383  0.1146 -0.0865  0.0786
27319W        W42450   6.507  10.485   1.920  0.1303 -0.1641 -0.3788
27320W        W42451  12.496   1.392  11.618 -0.1686 -0.0182  0.1821
27321W        W42452   0.828  17.436   0.428 -0.1432 -0.3707 -0.5912
27322W        W42453  12.473   7.133   2.235 -0.1854 -0.1775 -0.0190
27323W        W42454   8.644  14.503  15.231  0.0284  0.4590  0.4675
27324W        W42455   7.096   3.949  13.391  0.0173 -0.1565 -0.3521
27325W        W42456   6.322  13.176  10.785  0.3033  0.0656 -0.1586
27326W        W42457  17.307   5.618  10.748 -0.1152  0.0887 -0.1829
27327W        W42458  16.222  14.573  10.944 -0.3929 -0.1284 -0.0039
27328W        W42459  12.591   1.407  12.872 -0.1005  0.3828 -0.3432
27329W        W42460   4.369  17.131   1.513  0.0231 -0.0324  0.1200
27330W        W42461   5.079  13.079   1.012 -0.0010 -0.1969  0.1535
27331W        W42462   4.272   6.403  11.230  0.2861 -0.0723  0.2133
27332W        W42463  18.058  16.754   0.893 -0.0049 -0.1227 -0.2173
27333W        W42464   2.565  13.866  12.089 -0.2197  0.0960  0.0821
27334W        W42465  18.127   2.468   1.516 -0.2401  0.1110 -0.2332
27335W        W42466  14.044  17.574  11.178  0.1792  0.1072 -0.1748
27336W        W42467   0.481   0.099  13.396  0.1262 -0.0305  0.0884
27337W        W42468   8.897  15.971   3.616  0.0864  0.2494 -0.0586
27338W        W42469  17.988   2.522   1.987  0.0440  0.2874  0.0007
27339W        W42470  14.712   9.175   0.839 -0.2314 -0.2202 -0.4246
27340W        W42471  16.207  13.876  14.065 -0.0717  0.3648  0.4981
27341W        W42472   2.225  18.102   4.037  0.3722 -0.1037 -0.2098
27342W        W42473   8.866   6.286  11.245 -0.0242  0.2682  0.0196
27343W        W42474  11.606  17.660  13.048 -0.3121 -0.0829 -0.3167
27344W        W42475   5.917   6.008   3.113 -0.0360  0.1404  0.0401
27345W        W42476  13.290  10.066  10.917 -0.3443  0.0853 -0.0850
27346W        W42477  12.362   1.687   0.243  0.1057  0.4421  0.1310
27347W        W42478  13.510   2.771   0.149 -0.0876 -0.2951  0.0516
27348W        W42479  17.353   6.285   2.991  0.1756  0.0645 -0.1533
27349W        W42480  18.143  17.243   0.633  0.3005 -0.0072  0.0934
27350W        W42481   2.853   7.130   5.114 -0.2540  0.0667 -0.0033
27351W        W42482   2.636   5.400  15.253  0.3345 -0.0736 -0.0013
27352W        W42483  15.990   1.965   0.379 -0.0079  0.2522  0.0792
27353W        W42484   3.266   4.792   2.496 -0.1567  0.1153 -0.4958
27354W        W42485  10.168   6.023   3.151 -0.1578  0.0828  0.2954
27355W        W42486   3.861   8.252  13.913 -0.2646  0.2947 -0.3085
27356W        W42487   8.566  15.576   0.374 -0.0686 -0.1610 -0.2161
27357W        W42488   8.002  15.617  13.501 -0.1426 -0.2019 -0.0622
27358W        W42489   9.478  11.534  14.272  0.4867  0.4068  0.2115
27359W        W42490   8.527  15.616   2.990 -0.1625 -0.0484 -0.2175
27360W        W42491  12.633  10.474   1.978  0.0351 -0.1468 -0.2198
27361W        W42492  18.182   1.259  13.948  0.1024 -0.0839  0.2102
27362W        W42493   7.540   6.519  13.153 -0.3147  0.1548 -0.0895
27363W        W42494  14.131   3.627   4.159 -0.3573  0.1903  0.4172
27364W        W42495  11.933  16.374   1.676  0.2443 -0.5779 -0.1425
27365W        W42496   0.151  11.886   1.019 -0.4319  0.0722  0.5070
27366W        W42497  15.825   7.765  14.922  0.1048  0.1242 -0.2007
27367W        W42498   1.748   5.995   5.110  0.0065  0.1568 -0.1516
27368W        W42499  16.957   1.430   2.339  0.5717  0.3304  0.1895
27369W        W42500   2.543   0.925   6.606  0.4618  0.1755 -0.2521
27370W        W42501   8.128   6.295   2.755  0.1062 -0.1449  0.0684
27371W        W42502  15.419  16.426  12.992  0.1079 -0.0861  0.2008
27372W        W42503   6.280   9.821  12.003 -0.1396 -0.0870  0.1382
27373W        W42504  17.876   0.592   1.970 -0.3482 -0.1785  0.1182
27374W        W42505  13.833   0.535   1.858  0.1309  0.0741 -0.1189
27375W        W42506   7.451  12.800   5.579 -0.1440 -0.2789  0.1737
27376W        W42507   8.626  12.122   0.303  0.2296  0.4081  0.0182
27377W        W42508  14.284  13.809   3.144  0.1025 -0.0348 -0.0616
27378W        W42509  13.959  12.319  13.199 -0.1141  0.0929  0.3506
27379W        W42510  15.909   8.929  15.060 -0.1171 -0.2754  0.1393
27380W        W42511  12.323   8.039  13.688 -0.0281 -0.0464  0.0087
27381W        W42512  11.689  14.484   0.813 -0.0328 -0.1272  0.2510
27382W        W42513  10.690  11.686   4.004  0.0296  0.1585  0.1290
27383W        W42514  15.922   3.498  14.863  0.2285 -0.0262  0.2833
27384W        W42515  11.576   2.505  12.005  0.1636 -0.1267 -0.0951
27385W        W42516  14.000  16.512   2.478 -0.1253 -0.0769  0.0740
27386W        W42517  13.555  18.346  10.285 -0.2090 -0.0966  0.2244
27387W        W42518  16.072  10.619  12.798  0.0629 -0.0170 -0.1267
27388W        W42519   2.711  13.817   2.153  0.1735 -0.0312 -0.1190
27389W        W42520  15.946  13.891  15.679  0.0401  0.2062 -0.0668
27390W        W42521   1.860  14.645  13.570  0.1343  0.0774  0.3234
27391W        W42522  14.955   9.502  10.462 -0.2250 -0.0966 -0.0691
27392W        W42523  10.255  16.187  11.503  0.1160  0.1162  0.2003
27393W        W42524   2.549  17.016   6.068  0.0626  0.1687  0.3470
27394W        W42525   2.438  17.452  15.200 -0.0599  0.0129 -0.1004
27395W        W42526  11.363   1.416   4.647  0.4382 -0.2192 -0.1075
27396W        W42527  10.466   8.484  15.273 -0.1509 -0.1357  0.2738
27397W        W42528   1.982   4.168   2.089  0.0734  0.0321  0.1245
27398W        W42529   5.743  13.916   0.947  0.1547 -0.2301  0.0361
27399W        W42530  14.002   3.701   0.990 -0.0308 -0.0961  0.0726
27400W        W42531  12.400   4.227  15.648  0.0379 -0.2902 -0.0850
27401W        W42532  10.075  16.595  12.914  0.0590  0.1497  0.1740
27402W        W42533   8.255  14.188  11.942  0.2675 -0.1170 -0.2136
27403W        W42534   1.852  14.750   2.764 -0.0263 -0.1121  0.3388
27404W        W42535   1.836   5.852  12.757  0.0447 -0.1127 -0.1310
27405W        W42536   9.610  14.493   3.541  0.1684 -0.0303 -0.0087
27406W        W42537   3.599  16.781   9.779 -0.0418 -0.1304 -0.0246
27407W        W42538   4.904   8.120   3.450 -0.0749 -0.0638  0.0274
27408W        W42539   1.482   9.619   1.801  0.2192  0.1362  0.2186
27409W        W42540  12.214  14.723   0.401 -0.0783  0.2572  0.1293
27410W        W42541   8.295  15.800  10.862 -0.1917  0.3641 -0.2166
27411W        W42542   2.147   9.731   1.380 -0.1070  0.0084  0.0917
27412W        W42543  13.046   6.067  12.758  0.1689  0.0016  0.0092
27413W        W42544  16.190   4.064   3.448 -0.1185  0.0171 -0.4551
27414W        W42545   8.193  11.215  13.391 -0.1878  0.1176 -0.2591
27415W        W42546  11.305  12.964  11.769 -0.0917 -0.0962  0.3089
27416W        W42547  14.095  11.522  13.675 -0.2000 -0.3189 -0.2034
27417W        W42548   3.921   1.066   2.190  0.0480  0.4993 -0.0658
27418W        W42549  11.776   8.968  15.423  0.1168 -0.2434 -0.0636
27419W        W42550   2.966  12.070   2.387 -0.0941 -0.1207 -0.1079
27420W        W42551   9.253   0.071  11.467  0.0839  0.0806 -0.0034
27421W        W42552   6.120  16.812  14.599  0.0078 -0.0486  0.0016
27422W        W42553  18.080  17.175   4.433  0.2121  0.1441  0.1350
27423W        W42554   7.348   2.534   1.469  0.1919  0.0083  0.1394
27424W        W42555   2.995   7.709  15.701  0.0214 -0.2370  0.1484
27425W        W42556   7.939  15.712   3.061  0.0252  0.0795 -0.2733
27426W        W42557   2.888  10.481   2.712 -0.2758  0.0028  0.2791
27427W        W42558   6.988   9.493  10.765  0.2083 -0.1177  0.0387
27428W        W42559  11.793   3.165  10.845  0.2069 -0.1123  0.0078
27429W        W42560   7.542   6.687   5.926  0.2769 -0.1363 -0.1116
27430W        W42561   4.027  13.966   6.187  0.2594  0.0078 -0.0301
27431W        W42562   2.649  15.723  12.574 -0.0886 -0.1125  0.2147
27432W        W42563  15.698  15.252  11.812 -0.0030 -0.0317 -0.1928
27433W        W42564   5.985   8.029   4.394  0.1130  0.2959  0.2849
27434W        W42565  15.791   5.779   0.078 -0.0463  0.0700  0.0116
27435W        W42566  10.368   8.924  11.551 -0.1325  0.3186 -0.1044
27436W        W42567  18.600   5.739   4.923  0.1602  0.2114 -0.1098
27437W        W42568   1.888   3.831  11.482  0.0261  0.0648 -0.4701
27438W        W42569   7.929   0.168  14.184  0.0986 -0.1558 -0.0292
27439W        W42570   7.490   5.867   3.061 -0.4864  0.1683 -0.1597
27440W        W42571  16.661   0.930  12.876 -0.2112  0.0045 -0.0777
27441W        W42572   9.912   5.653   3.978  0.1362  0.2095  0.2912
27442W        W42573   1.665  14.436  15.102 -0.0320 -0.1343 -0.0790
27443W        W42574   1.912   5.591   3.570 -0.0861  0.3641 -0.1445
27444W        W42575   6.740  17.041   0.182 -0.1521 -0.0451  0.1503
27445W        W42576   4.465  14.247   1.765 -0.2727  0.0513 -0.1356
27446W        W42577   7.656   9.891   4.560 -0.3046 -0.2353 -0.1268
27447W        W42578  11.825   8.249   2.060  0.1305  0.0601 -0.0923
27448W        W42579  17.820   6.062   0.066 -0.3768 -0.3974  0.0697
27449W        W42580   3.781   3.560  15.407  0.0255 -0.0395 -0.1887
27450W        W42581   7.664   7.712  12.525  0.1258  0.2413 -0.1754
27451W        W42582   8.772  17.174  15.693  0.2482  0.2123  0.0560
27452W        W42583   3.569   1.664   2.409  0.2627 -0.0263  0.0260
27453W        W42584  17.617   5.748   3.419  0.2059 -0.0280  0.0366
27454W        W42585   2.464  13.370   2.223 -0.2528  0.1601 -0.0224
27455W        W42586   2.439   3.032  13.732 -0.2610  0.2579  0.2223
27456W        W42587   4.283  13.596  13.186 -0.0737 -0.2506  0.0820
27457W        W42588  15.125   1.589   5.430 -0.2133 -0.0691  0.0834
27458W        W42589  15.965  18.582  13.516 -0.1330 -0.0534  0.0487
27459W        W42590  10.558   7.911   2.730 -0.4320 -0.1510  0.0947
27460W        W42591   2.639   0.322  12.905  0.1074 -0.0991 -0.1288
27461W        W42592  17.536   4.874  15.198  0.2078 -0.2105  0.1467
27462W        W42593  10.108   8.542  10.645 -0.1604 -0.1297 -0.1403
27463W        W42594  12.921   3.449   4.947 -0.2863  0.0598 -0.2128
27464W        W42595  18.082   8.127   2.507 -0.1584 -0.1664 -0.2840
27465W        W42596   3.912  16.069   0.725 -0.0178  0.0843 -0.1596
27466W        W42597  18.404  16.858   0.475  0.2581 -0.0572 -0.3144
27467W        W42598   5.564  12.495  14.847  0.0437  0.0995  0.4323
27468W        W42599  10.587  14.062  12.080 -0.2669  0.2021  0.2225
27469W        W42600   9.837  17.610  11.118  0.1934 -0.0524 -0.2337
27470W        W42601  10.326  13.722   3.500  0.1658 -0.0460  0.1110
27471W        W42602   6.617   2.855  13.368 -0.3744 -0.0847  0.1965
27472W        W42603  15.039   6.859  12.847 -0.0526  0.0821 -0.1868
27473W        W42604   1.464   6.412   4.415  0.0692 -0.0533 -0.0051
27474W        W42605   1.474   2.177  12.534 -0.0017 -0.1414 -0.3392
27475W        W42606  14.873   9.785  14.547 -0.2216  0.2726 -0.1102
27476W        W42607   0.427   7.693  12.143 -0.0591  0.1262 -0.2114
27477W        W42608   5.862   4.695   4.189  0.1009  0.0453 -0.0545
27478W        W42609  17.747   2.963   4.549 -0.2401 -0.4647  0.2336
27479W        W42610   6.431   7.463   3.499 -0.1079  0.0197 -0.2670
27480W        W42611   5.546   2.114  12.130 -0.1809 -0.1084 -0.3470
27481W        W42612  14.624   0.091   3.884  0.3057  0.0533 -0.0108
27482W        W42613  17.439   7.458   2.081  0.1077  0.0934 -0.3256
27483W        W42614   2.005   7.841   0.690 -0.1040 -0.2363  0.1242
27484W        W42615   8.291  10.069  10.396 -0.2669  0.1227 -0.0675
27485W        W42616   8.381  16.829  13.091 -0.0030 -0.0608  0.2431
27486W        W42617  15.088   3.395   2.237 -0.1021 -0.0880 -0.0040
27487W        W42618   6.164  17.991  15.631  0.2462 -0.0320  0.3029
27488W        W42619  10.463   0.541   3.964 -0.0696  0.2360  0.0140
27489W        W42620  16.650  12.260  13.020 -0.0188  0.3271 -0.1039
27490W        W42621   3.133   9.126  11.203 -0.0217  0.0156  0.1752
27491W        W42622  16.575   5.922  11.246 -0.1066  0.0918  0.2868
27492W        W42623   2.507   2.620   0.149 -0.3817 -0.0461  0.4493
27493W        W42624   5.219  17.722   4.188  0.0356  0.2596  0.4289
27494W        W42625  15.793  14.833   4.579  0.0188  0.2495  0.1446
27495W        W42626   9.881  14.154   1.092  0.0934 -0.1150  0.0200
27496W        W42627   0.227   6.723   6.214  0.2649 -0.0406 -0.1517
27497W        W42628   5.699  12.987   5.441  0.3809 -0.0135  0.4109
27498W        W42629   0.104  15.708  14.873  0.1430  0.2299  0.0867
27499W        W42630  16.743  16.633   4.479  0.0954 -0.2502 -0.1223
27500W        W42631   1.190   5.940   4.349  0.1231 -0.0606  0.0120
27501W        W42632   8.555   6.700  11.260  0.0824 -0.1992 -0.0466
27502W        W42633  14.049  15.116   1.576 -0.1924  0.1043 -0.0408
27503W        W42634   9.876   0.405   1.126 -0.1434  0.2023  0.1781
27504W        W42635   6.375  16.850   2.102  0.0425  0.2033 -0.3377
27505W        W42636  15.202   1.105   0.721  0.2057 -0.0439 -0.0338
27506W        W42637   7.742   2.881  11.918 -0.0372  0.0929  0.1656
27507W        W42638   7.017   5.086   1.149  0.1823  0.1722  0.0616
27508W        W42639   9.270  12.341   2.015  0.2704  0.1365 -0.1064
27509W        W42640   3.658   9.544   1.395  0.0717  0.2491 -0.1298
27510W        W42641  10.597  15.589  11.404 -0.3009 -0.0211 -0.0366
27511W        W42642  10.695  11.535   5.275  0.0700 -0.1796 -0.1415
27512W        W42643   5.082  17.363   1.874 -0.0055  0.1490 -0.0268
27513W        W42644   2.931   0.865   2.349 -0.0963 -0.1875 -0.2365
27514W        W42645   4.943  11.068   1.861 -0.2755  0.1922 -0.0106
27515W        W42646   3.810   6.738   3.839  0.0228 -0.1129 -0.2756
27516W        W42647  15.652  10.467   5.613  0.1111  0.0822 -0.0371
27517W        W42648  17.988  18.576   4.178  0.2693  0.0094  0.1232
27518W        W42649   2.927  17.591  11.714  0.3065 -0.1590  0.2312
27519W        W42650   1.370  18.203   4.224  0.0593 -0.1297  0.0194
27520W        W42651  16.265   0.212  14.564 -0.3390 -0.0199  0.1010
27521W        W42652   2.153  16.094  11.974 -0.0708  0.3233 -0.0185
27522W        W42653   2.288   3.240   1.694  0.2597 -0.3772 -0.0945
27523W        W42654  12.834  11.868   3.384  0.0895 -0.1171  0.0322
27524W        W42655   6.538  14.297  15.210 -0.0355  0.1958  0.0087
27525W        W42656   2.110   2.677   1.856 -0.1225 -0.0698 -0.1919
27526W        W42657   4.270   8.746   3.114 -0.0472 -0.0191  0.0823
27527W        W42658  14.120   9.330  14.726  0.1690 -0.0118  0.2636
27528W        W42659   5.335   0.253  13.122 -0.1620 -0.0859 -0.1048
27529W        W42660  11.594   6.092   3.255  0.2825  0.2957  0.1081
27530W        W42661  11.599  14.240  11.691 -0.0068 -0.0961  0.0084
27531W        W42662  16.308  11.294   5.150  0.1162  0.0236 -0.0798
27532W        W42663  17.112  16.701  11.661 -0.2168 -0.0104 -0.1722
27533W        W42664   7.703  16.025   0.068  0.0220  0.0220 -0.2758
27534W        W42665   1.709   5.118   2.200  0.0444 -0.2929 -0.3196
27535W        W42666  15.705  12.086  10.494 -0.0778 -0.1484 -0.3010
27536W        W42667  17.868   5.436   2.969  0.2270 -0.1478 -0.2442
27537W        W42668  13.679   6.281  13.963 -0.5060 -0.1298  0.0968
27538W        W42669   7.844   7.796  11.373 -0.3529 -0.0660  0.1990
27539W        W42670  17.749  11.171   0.703  0.2652 -0.2301 -0.3204
27540W        W42671   4.507   5.149  13.804  0.0311 -0.0287 -0.2220
27541W        W42672   3.692   0.211   3.587  0.4460 -0.1827  0.0659
27542W        W42673  16.431  15.744  10.861 -0.1500  0.2535  0.1560
27543W        W42674  14.263  10.952   5.033  0.0105  0.3422  0.0971
27544W        W42675   2.811   7.786  12.062 -0.2105  0.2312 -0.0041
27545W        W42676   3.832  11.718   0.449  0.6020 -0.0506 -0.5104
27546W        W42677   6.836  13.453   1.458  0.0189  0.0650 -0.1249
27547W        W42678   6.024  17.378  13.978  0.0264  0.2489 -0.1053
27548W        W42679  13.921   7.582   1.989  0.1594 -0.2231  0.1218
27549W        W42680   7.952   3.420  13.618 -0.1640  0.0113 -0.1914
27550W        W42681   5.934   1.011   5.755  0.2250 -0.0463 -0.0089
27551W        W42682  10.022  11.298   9.533  0.2828 -0.0933  0.3510
27552W        W42683   7.962   8.729  13.965 -0.0331 -0.2717  0.2645
27553W        W42684   0.255  16.390  11.828  0.2034 -0.1136 -0.2032
27554W        W42685   5.116  12.860   1.979 -0.2531  0.0125  0.0169
27555W        W42686  13.735   4.133  11.089 -0.1990 -0.0786 -0.0557
27556W        W42687   9.797  13.604   3.241  0.0527  0.1984  0.1297
27557W        W42688   2.472  13.130   3.916  0.2177  0.1948  0.0518
27558W        W42689   4.330   4.442   3.903 -0.1342  0.4030 -0.0182
27559W        W42690  14.590   0.981  11.845  0.2666 -0.0845  0.0606
27560W        W42691   0.149   5.531   4.547 -0.1387 -0.0020 -0.0740
27561W        W42692   3.294  14.004   2.505  0.3070  0.2936 -0.3631
27562W        W42693   5.130  15.248   2.879 -0.0695  0.0277  0.0657
27563W        W42694   4.067   0.701   2.689 -0.3621 -0.1461  0.0772
27564W        W42695  17.016  15.667   0.518  0.1933  0.3286 -0.2503
27565W        W42696  12.597   1.295  15.543  0.2248  0.1787 -0.0719
27566W        W42697   5.402   0.644  13.971 -0.2198 -0.2522 -0.3256
27567W        W42698   5.457   2.528   4.070 -0.1421 -0.0717 -0.1229
27568W        W42699   8.656   3.127  13.177  0.0534 -0.0289  0.2789
27569W        W42700   4.961   5.109  13.010 -0.2488 -0.0130  0.1923
27570W        W42701   2.471   9.833   2.338  0.1510  0.1399  0.1729
27571W        W42702   2.042   5.100  12.171  0.0498  0.0641 -0.1411
27572W        W42703   3.857   3.906  15.766  0.2507 -0.0034 -0.1244
27573W        W42704   8.374   0.910   1.314  0.0471 -0.1923  0.0891
27574W        W42705   8.245  14.189   4.707 -0.1445  0.0802  0.3309
27575W        W42706  13.224  10.374  12.509 -0.0659  0.1598  0.0612
27576W        W42707  13.789  16.874  13.620 -0.1051  0.1060 -0.0429
27577W        W42708   1.347   9.439   2.821 -0.1141 -0.3223  0.1143
27578W        W42709  10.430  13.512  10.899 -0.2493  0.3168 -0.0856
27579W        W42710   4.593  14.534   2.194  0.0361  0.1301 -0.0145
27580W        W42711  16.727   6.010   4.644  0.1756 -0.0189  0.0075
27581W        W42712   9.808   2.671   3.826 -0.3226  0.1473  0.0150
27582W        W42713   1.761  11.754  12.750 -0.0789  0.4304  0.0363
27583W        W42714   3.529   9.887   0.192 -0.1587  0.0425  0.1242
27584W        W42715   3.613   1.254  14.565 -0.0107  0.1613  0.0685
27585W        W42716  10.845  14.274   3.442 -0.1167 -0.1014 -0.0047
27586W        W42717   3.697   9.746   5.047 -0.2606  0.2198 -0.2006
27587W        W42718  15.412  13.059   4.542 -0.2065  0.0959  0.0061
27588W        W42719  16.062   5.109   4.888 -0.1174 -0.0466 -0.0305
27589W        W42720  13.141   2.169  15.441  0.0375 -0.0435 -0.0106
27590W        W42721   6.354   7.517  11.764 -0.3201 -0.0040 -0.0596
27591W        W42722  11.854   2.230   0.151  0.0506 -0.1149  0.6544
27592W        W42723  15.059   4.436  14.042  0.1253 -0.0017  0.1565
27593W        W42724   0.728  17.447  15.547 -0.0171  0.1804 -0.3837
27594W        W42725   6.616   2.933  13.897 -0.1194  0.0618 -0.2125
27595W        W42726  15.984  11.618   2.443  0.2215 -0.0386  0.0649
27596W        W42727   0.099  15.961  15.400  0.4128 -0.0978 -0.4209
27597W        W42728   3.295  13.923  14.200  0.3269 -0.0049 -0.2384
27598W        W42729   3.930  11.412  12.132 -0.0324 -0.4322 -0.2859
27599W        W42730  18.613  18.527   3.571  0.2184 -0.3740 -0.4253
27600W        W42731   9.587   3.271  10.486  0.0931  0.3539  0.0936
27601W        W42732   6.152   9.242   1.755 -0.0352 -0.0719  0.3288
27602W        W42733   5.809  10.380   0.361 -0.2402 -0.1423  0.0923
27603W        W42734  15.933   7.547  14.452  0.1390  0.0364  0.3904
27604W        W42735  17.026   0.790  13.212  0.2367  0.2664  0.3153
27605W        W42736  12.337   0.232  14.931  0.0297  0.3893 -0.1765
27606W        W42737   5.866   7.754   2.044  0.2813 -0.2344  0.1918
27607W        W42738   3.679   9.961  11.756 -0.3379 -0.1530 -0.1644
27608W        W42739   4.662  11.426  13.060  0.1732 -0.1512  0.0918
27609W        W42740  10.263  10.194  12.192  0.0410  0.1146 -0.2362
27610W        W42741   3.599  11.599   2.856 -0.0003  0.0381  0.0808
27611W        W42742   2.595  17.259   4.059 -0.0430 -0.0350  0.1441
27612W        W42743   1.060  10.313   3.288  0.0262  0.1157  0.1439
27613W        W42744   8.247   3.950  11.330 -0.1478  0.1471 -0.1079
27614W        W42745   2.389   6.973   0.223  0.4513 -0.0288  0.2523
27615W        W42746   3.743  10.387  11.190 -0.0723 -0.1354  0.0566
27616W        W42747   4.663   7.463   4.872  0.0850  0.2114  0.1498
27617W        W42748  13.920   1.081   4.503 -0.0014 -0.0086 -0.2676
27618W        W42749  17.799   6.188   1.133  0.0223 -0.0697 -0.1071
27619W        W42750   4.665  16.478   2.409  0.1015  0.2822  0.1557
27620W        W42751  14.485   7.924  11.548  0.1928 -0.1207 -0.0947
27621W        W42752  15.863  12.268  14.080  0.1160  0.1352  0.1855
27622W        W42753   3.131  16.034   5.907 -0.4001  0.2798  0.1295
27623W        W42754   3.571  18.062  13.500 -0.3557  0.2756 -0.1544
27624W        W42755  12.506  10.573   5.679  0.0080 -0.2279  0.1801
27625W        W42756   0.860  15.452   1.804 -0.2183  0.0124  0.4064
27626W        W42757  10.405  14.186  13.950 -0.1012 -0.0822 -0.1516
27627W        W42758   1.291  18.719  13.093 -0.2795  0.3406 -0.3647
27628W        W42759   5.888   2.083   0.435 -0.2200 -0.1141  0.1058
27629W        W42760   3.413   8.474   4.383 -0.1921 -0.0972 -0.0192
27630W        W42761  12.443  12.846   3.440 -0.2473  0.2533  0.0800
27631W        W42762   4.964  18.198   0.194 -0.2882  0.0245  0.3231
27632W        W42763   1.368  10.111  13.000  0.0598 -0.0268  0.3525
27633W        W42764  14.029   4.473   0.687 -0.0227 -0.1893  0.0633
27634W        W42765   4.548   2.313  10.872  0.1714 -0.2333 -0.2408
27635W        W42766  18.686  16.588   0.177 -0.0416 -0.0475  0.1065
27636W        W42767   2.334  12.316  13.212 -0.1767  0.0051 -0.1405
27637W        W42768  14.850   5.045  12.371 -0.0584  0.0195 -0.0426
27638W        W42769  10.817  10.091   2.710  0.0939 -0.2776  0.0508
27639W        W42770   8.910   7.820   9.621  0.0131 -0.1461  0.1966
27640W        W42771   3.544   8.615  12.053  0.2007 -0.3008 -0.0395
27641W        W42772  13.415   3.232   3.114  0.0601 -0.1528  0.0268
27642W        W42773  16.613   6.261  12.077 -0.0690  0.1277 -0.1763
27643W        W42774  15.189  17.549   0.875 -0.1531  0.6221 -0.6323
27644W        W42775   3.344  10.478  11.513 -0.2159  0.2500 -0.0452
27645W        W42776   9.355  17.344  11.797  0.0128  0.0522  0.0914
27646W        W42777  15.070  12.863  13.115  0.1513 -0.1897 -0.1656
27647W        W42778   2.599  18.362   0.129 -0.1050 -0.3200 -0.0566
27648W        W42779  11.845   3.535   1.144 -0.2213  0.0166  0.2704
27649W        W42780   6.902   7.409  11.019 -0.0188  0.0125  0.2713
27650W        W42781   5.720   9.525  14.121 -0.0583 -0.0233  0.2591
27651W        W42782  13.558  16.293  14.976 -0.0191 -0.3257  0.1154
27652W        W42783  14.835  15.457   2.106  0.0683  0.1424  0.0466
27653W        W42784  16.149  10.315  12.147 -0.0267  0.2796 -0.0550
27654W        W42785  14.391  16.603  11.235 -0.0709  0.1452  0.0041
27655W        W42786   4.767   5.713  11.198  0.3706 -0.2408 -0.0724
27656W        W42787   3.216  14.508  10.294  0.2967 -0.2803  0.0604
27657W        W42788  13.405  10.810   2.808 -0.2837 -0.0870  0.1593
27658W        W42789  14.412  16.224   1.325  0.4515 -0.3020 -0.0490
27659W        W42790   7.987   7.444  11.043 -0.0772  0.0098 -0.1161
27660W        W42791   8.525   9.604  13.290  0.1825  0.2717 -0.1401
27661W        W42792   1.230   3.420   4.441  0.0030 -0.4556 -0.0429
27662W        W42793  18.090  13.194  15.172  0.2071  0.2231 -0.0072
27663W        W42794  17.234   4.708   4.635  0.2078  0.0843  0.1258
27664W        W42795  16.888  11.372  14.212 -0.1549 -0.1558  0.1964
27665W        W42796   8.680  11.342  13.561 -0.1293 -0.2950 -0.0310
27666W        W42797  11.699  16.321  15.390 -0.1895 -0.1795 -0.1767
27667W        W42798  15.757   1.992   1.709 -0.2515 -0.0630  0.2605
27668W        W42799   7.888   0.876   2.722  0.0058  0.1111  0.2270
27669W        W42800   8.129  15.606  13.967 -0.2299  0.0687  0.0011
27670W        W42801   3.610   6.398   0.698 -0.1345 -0.0229 -0.0459
27671W        W42802   8.318   8.554   0.109 -0.0444 -0.1011 -0.1835
27672W        W42803  10.980   3.874   5.135  0.1193 -0.0001  0.0364
27673W        W42804   9.629  12.195  13.994 -0.3294  0.0947  0.1349
27674W        W42805  18.376   9.464  10.608  0.1884  0.3477 -0.0536
27675W        W42806   6.930  10.953  13.711 -0.0995 -0.0555  0.1738
27676W        W42807   0.478   0.606   2.482  0.0317 -0.1862 -0.4723
27677W        W42808  15.014  12.440  12.174 -0.1888 -0.1106 -0.1735
27678W        W42809   6.406   2.977   0.209 -0.1055 -0.1097 -0.1944
27679W        W42810   0.962  16.549   0.368  0.3571  0.1690 -0.3986
27680W        W42811   3.187   3.339  11.411 -0.2516 -0.0732  0.1469
27681W        W42812   1.060   2.522  12.877  0.1763  0.3859  0.4039
27682W        W42813  14.523   3.632  13.576 -0.1113 -0.3426  0.1167
27683W        W42814  15.202   2.531   0.139  0.0219  0.1368  0.0027
27684W        W42815  15.797   0.267  15.171 -0.1913  0.1781  0.2364
27685W        W42816   2.925   3.444  11.779  0.2006  0.0448  0.0306
27686W        W42817   4.929   4.129   5.363  0.1260 -0.2474 -0.0084
27687W        W42818   0.276  15.902  10.378  0.2224  0.2528 -0.0557
27688W        W42819   1.588  10.165   3.306 -0.0639 -0.0765  0.1557
27689W        W42820   7.409   8.734   0.808 -0.1238 -0.2101  0.0448
27690W        W42821  17.929   7.575   3.213  0.2990  0.0312  0.2773
27691W        W42822   2.156   3.250   0.693 -0.0214  0.1202  0.2077
27692W        W42823  10.090   3.316  14.754  0.0603  0.0602 -0.1411
27693W        W42824  12.620   2.541   2.314  0.1110  0.0779  0.0009
27694W        W42825  14.060  15.006  13.201  0.0052  0.0909 -0.0957
27695W        W42826   7.720   5.228   3.732  0.2742  0.0158  0.4259
27696W        W42827   9.106   4.490   3.707  0.2962  0.1022 -0.0715
27697W        W42828  13.736  17.862   2.729 -0.0550  0.1521  0.0871
27698W        W42829   0.553  18.071  14.490 -0.3583 -0.1075 -0.0898
27699W        W42830   5.691   5.930   4.429  0.3310 -0.1410  0.2626
27700W        W42831   9.808   4.905   0.140  0.1507 -0.1979 -0.0887
27701W        W42832   4.871  13.437  14.387  0.2051  0.0713  0.2398
27702W        W42833  10.372  13.666   1.001  0.1733 -0.0214  0.0016
27703W        W42834   3.278  12.329   0.146 -0.1413 -0.0497  0.0262
27704W        W42835   3.257  13.301   1.905 -0.1429  0.1799  0.2193
27705W        W42836  12.615   6.645   2.098  0.3854 -0.1393  0.0724
27706W        W42837  15.160  13.611  10.338  0.1801  0.2498  0.0892
27707W        W42838   5.855  11.922  11.787 -0.5489  0.1750  0.0652
27708W        W42839  17.062   6.803   1.519 -0.0391  0.0570  0.1258
27709W        W42840   3.703   3.410   1.860  0.0293 -0.2742 -0.0017
27710W        W42841  10.244   5.127  13.135  0.1438 -0.0287  0.2488
27711W        W42842   9.319   1.126  14.481 -0.0640 -0.1216  0.0096
27712W        W42843   0.907  18.014   3.400  0.1393  0.2860 -0.1890
27713W        W42844  18.546  14.207  12.568 -0.0607  0.2717  0.1468
27714W        W42845  14.962   9.363   1.372  0.2504  0.0690  0.1999
27715W        W42846  17.207  16.063   4.833 -0.2592  0.0261 -0.1592
27716W        W42847   0.964   0.444  14.984  0.2750  0.0075 -0.0289
27717W        W42848  14.715   9.965  10.641  0.0872  0.2501  0.1378
27718W        W42849  17.102   1.340   0.221  0.0648  0.4549 -0.0513
27719W        W42850   7.874  12.501   1.716  0.2348  0.3697 -0.1762
27720W        W42851  16.246   9.332   9.868  0.4071 -0.0586  0.2186
27721W        W42852   4.785  10.655   2.686 -0.0238  0.0015 -0.2604
27722W        W42853  13.884   8.579   4.788  0.1627  0.4151 -0.2002
27723W        W42854   2.805   4.892   2.702 -0.4041 -0.0042 -0.0074
27724W        W42855  15.255   4.323   4.186 -0.1136 -0.1112 -0.0413
27725W        W42856   5.130   9.040  12.340  0.1991  0.0172  0.2526
27726W        W42857  11.761   9.819  14.734 -0.1037  0.4109 -0.1623
27727W        W42858   6.565   1.332   1.864  0.0024  0.3017 -0.3171
27728W        W42859   0.960  16.370   4.220 -0.0418  0.4495  0.0030
27729W        W42860  18.117  10.557   4.303  0.0149  0.1037  0.3304
27730W        W42861  13.250   6.826   2.582  0.0428  0.1554  0.0875
27731W        W42862  12.000  16.657  13.302  0.1871 -0.0223  0.0741
27732W        W42863  14.167  12.943  15.273  0.1539 -0.1353  0.2372
27733W        W42864  13.956   7.764  14.195 -0.1150 -0.0041  0.0145
27734W        W42865  11.048   2.124  10.416 -0.1353 -0.0849 -0.0492
27735W        W42866  15.360  11.757  13.949 -0.1271 -0.1516  0.2583
27736W        W42867  11.551   2.983   1.754 -0.1362 -0.1947 -0.0253
27737W        W42868  16.052   7.877   2.946 -0.1454 -0.0647 -0.2161
27738W        W42869  16.707   0.535  14.365  0.1683  0.1522  0.0259
27739W        W42870   5.807   8.161   1.789  0.0178  0.2034 -0.0049
27740W        W42871  17.707   1.556   0.576 -0.0577 -0.0618 -0.2805
27741W        W42872   1.234  12.262   2.826 -0.4232 -0.0782  0.2668
27742W        W42873   2.033   2.877  10.999  0.1574  0.1721  0.0573
27743W        W42874   2.665  15.079   4.166  0.0116 -0.0398  0.4952
27744W        W42875  11.183  14.183   4.546  0.0754  0.2513  0.1132
27745W        W42876   1.614   5.188  13.910 -0.2887 -0.2246 -0.2733
27746W        W42877   0.862   7.377   1.485 -0.0837  0.1306 -0.3115
27747W        W42878  10.712   9.414   4.821  0.1590 -0.0867 -0.3129
27748W        W42879   9.926   0.830  12.260 -0.2479 -0.1885  0.2792
27749W        W42880   3.273   3.573  15.529 -0.1283  0.0419  0.0571
27750W        W42881   9.474   2.939  12.965 -0.4100  0.0717 -0.1223
27751W        W42882   2.684   7.352  15.387  0.1252  0.0073 -0.1377
27752W        W42883  14.752  17.203  10.785  0.0009 -0.2855  0.0620
27753W        W42884   2.993  18.480   5.288 -0.1575 -0.5069  0.2344
27754W        W42885  14.291  13.999   4.917  0.0896  0.1763  0.0318
27755W        W42886  15.457  16.143  11.080  0.0976  0.1102 -0.0976
27756W        W42887  15.259   6.186  12.406 -0.0302  0.1435  0.1364
27757W        W42888   3.109  14.227  15.439 -0.0481  0.1795  0.2078
27758W        W42889  16.978  14.559  12.967  0.1587  0.1123 -0.0696
27759W        W42890  12.235   1.776  12.840  0.1232  0.2615 -0.0445
27760W        W42891  11.549   5.244  14.282 -0.2314 -0.0676 -0.0484
27761W        W42892   5.346   8.629   4.715  0.0831  0.0748  0.2452
27762W        W42893  10.973   8.326  15.272 -0.1647 -0.0060 -0.1776
27763W        W42894   7.220   7.484  13.611  0.0828  0.0020  0.2042
27764W        W42895   2.159  12.193   0.278  0.2200 -0.4414 -0.2063
27765W        W42896   7.695  14.622   2.366  0.0764 -0.2381 -0.3726
27766W        W42897  14.145  11.429   1.033 -0.0838 -0.2221 -0.2290
27767W        W42898  16.092   9.049  13.005 -0.1432  0.1765 -0.1764
27768W        W42899   7.959   7.175  12.236 -0.0772  0.0733 -0.3436
27769W        W42900  12.972  14.251   0.295  0.0405 -0.3934  0.2420
27770W        W42901   1.256   9.705   0.935  0.4127  0.2583 -0.0388
27771W        W42902   3.546  13.675   6.197  0.2658  0.1203  0.0076
27772W        W42903   9.874  12.270  10.136 -0.0210  0.0812  0.0071
27773W        W42904   1.926   4.371  13.514  0.3204 -0.2327 -0.0950
27774W        W42905  11.388   5.752   1.125 -0.0892  0.0316 -0.0578
27775W        W42906  11.555   0.345  13.738 -0.2087  0.3671 -0.1826
27776W        W42907  13.973  16.432  14.655  0.1415 -0.2702 -0.1042
27777W        W42908   2.020   9.277   0.332  0.2669  0.0499  0.2224
27778W        W42909   7.280   5.234   5.121  0.0772  0.2295  0.0484
27779W        W42910   4.048   2.058   1.297 -0.1959 -0.1403 -0.6365
27780W        W42911   5.368  11.042   3.306 -0.0931 -0.1877 -0.2320
27781W        W42912   0.244   1.115  15.120 -0.1675  0.1619  0.0510
27782W        W42913  11.697  11.150  14.290  0.0324 -0.0072 -0.0164
27783W        W42914   4.068   5.531  13.695 -0.1045  0.0091  0.3575
27784W        W42915   3.485  18.444  10.909 -0.1902  0.0295 -0.1147
27785W        W42916   6.759   4.155   5.105  0.1245  0.3510 -0.2431
27786W        W42917   9.991   6.526  12.929 -0.0753  0.1398 -0.2115
27787W        W42918   7.889  11.648   1.717 -0.2779  0.0660  0.0625
27788W        W42919   1.242  12.670   2.287 -0.1750  0.1570 -0.1953
27789W        W42920  11.783   7.371  12.192  0.1500  0.1217 -0.2262
27790W        W42921   7.340  12.365  12.072 -0.3811 -0.0295  0.0324
27791W        W42922  11.919   1.524   4.477 -0.1478 -0.2740  0.2707
27792W        W42923  11.018   7.158   4.523  0.0681  0.1488 -0.1869
27793W        W42924  17.498   8.943   1.622 -0.0117 -0.1747  0.0361
27794W        W42925   7.823  16.940  11.466  0.0069  0.2796  0.0572
27795W        W42926   9.555  10.302  10.326  0.2040 -0.0294  0.2211
27796W        W42927   8.910  18.097   5.677 -0.1931  0.2669  0.1771
27797W        W42928   6.022  15.068  13.363  0.0197 -0.0466  0.1961
27798W        W42929   2.102   4.161  15.360  0.1046  0.0308  0.2131
27799W        W42930   5.837   2.143   3.991  0.0525  0.1045 -0.0165
27800W        W42931  18.669   7.892  14.253  0.1985  0.0139 -0.1043
27801W        W42932  15.109  11.777   3.653 -0.2295  0.0077 -0.4345
27802W        W42933  16.193   8.925  10.796  0.3984 -0.1978  0.0225
27803W        W42934   6.422   2.754  12.902 -0.0666 -0.2249  0.0965
27804W        W42935   2.393   7.042  11.687 -0.1685 -0.1201  0.2787
27805W        W42936  12.381   0.983  12.543  0.2619 -0.0759 -0.4361
27806W        W42937   2.313   4.993   4.914 -0.0730  0.1921 -0.6585
27807W        W42938   3.520   1.151   2.574  0.3895  0.1588  0.3997
27808W        W42939   6.046  18.217  14.182  0.2486 -0.1672  0.0171
27809W        W42940   2.322   0.588   5.366 -0.2052  0.1041 -0.1171
27810W        W42941   6.299   7.113   3.156 -0.0066  0.0660  0.0711
27811W        W42942  15.487  15.588   2.243 -0.1321 -0.2756  0.3204
27812W        W42943   9.854   5.465  13.367 -0.0627 -0.1828  0.1523
27813W        W42944   1.411   8.711  13.497 -0.2967  0.0644 -0.1577
27814W        W42945   9.785  10.009  12.152  0.0770  0.4670 -0.1579
27815W        W42946  17.174   9.023   3.716  0.0493  0.3965  0.0107
27816W        W42947  15.809   6.717  13.224  0.1774  0.3290  0.2508
27817W        W42948  17.764  15.258  14.075  0.0087  0.2407  0.1783
27818W        W42949   1.988   0.529   5.824 -0.0265 -0.1931 -0.3123
27819W        W42950  17.549  12.289  13.317 -0.0058  0.1487 -0.1787
27820W        W42951   3.923   6.525   2.131  0.1311  0.1043 -0.2663
27821W        W42952  15.715   8.235  10.788 -0.0097  0.0485  0.2709
27822W        W42953   1.585  11.858  12.123  0.3525  0.0680 -0.2593
27823W        W42954   7.289   6.227  11.966 -0.0581  0.0023  0.3483
27824W        W42955   2.313   9.326   3.754 -0.1112  0.1411 -0.0883
27825W        W42956   8.000  13.468  11.702 -0.0427  0.0508 -0.2262
27826W        W42957   3.579   5.368  11.625  0.1068 -0.3117  0.0817
27827W        W42958   8.255  14.052  12.749  0.0121 -0.1251  0.1361
27828W        W42959  10.191   1.461  11.091  0.0402  0.1578 -0.0851
27829W        W42960   6.387  13.398  13.698 -0.0556  0.6068  0.0364
27830W        W42961  13.636   8.549  11.588  0.4762  0.1114 -0.1971
27831W        W42962  11.705   5.666   3.841 -0.1147  0.2143  0.0482
27832W        W42963  18.499  17.419  11.377  0.0375 -0.1209 -0.1312
27833W        W42964   7.124  11.933  12.879  0.2618  0.0028  0.2494
27834W        W42965   4.951   5.427  15.305  0.1689 -0.2026 -0.3196
27835W        W42966  11.931  15.121   1.573 -0.3718 -0.0183 -0.2167
27836W        W42967   8.807  11.205  11.512 -0.1094  0.0905  0.1758
27837W        W42968   0.993   9.302  13.029 -0.0213  0.1575  0.3028
27838W        W42969   4.840  11.965  15.420  0.1455 -0.1304  0.2578
27839W        W42970   0.632  15.595   1.375  0.0833 -0.2848  0.1676
27840W        W42971   9.882   7.589  12.141  0.2212 -0.2508 -0.1058
27841W        W42972   8.054  13.404   3.948 -0.1848 -0.0896  0.0612
27842W        W42973  18.488   5.259  11.252 -0.0008  0.0961 -0.1430
27843W        W42974   5.510  12.144  11.571  0.0400  0.2270 -0.0385
27844W        W42975  11.895   7.692   3.259 -0.1590 -0.0048 -0.0750
27845W        W42976   3.719  16.867   1.685  0.1595  0.0384 -0.1378
27846W        W42977  13.059   6.932  10.909 -0.0479  0.0680  0.0700
27847W        W42978   0.251  10.344   3.310  0.0023 -0.1938  0.1527
27848W        W42979   3.136  11.223   5.643  0.0303  0.1465  0.2421
27849W        W42980  16.889  14.119   2.197  0.0790 -0.1753  0.0892
27850W        W42981   1.171  15.621   0.384 -0.0767 -0.2132  0.1430
27851W        W42982  12.248   5.378  11.491  0.0325  0.1278 -0.2522
27852W        W42983   2.860   9.471  13.955 -0.1229 -0.0225  0.0973
27853W        W42984  13.391  11.924  15.582  0.1178 -0.3006 -0.0316
27854W        W42985   4.660   3.888  12.774 -0.0504  0.1762  0.1506
27855W        W42986  18.240   1.283  10.961  0.1096 -0.1651  0.2341
27856W        W42987   6.627   6.867  13.959  0.0331  0.0671  0.1541
27857W        W42988   3.270   5.117   0.521 -0.0699  0.1144 -0.2749
27858W        W42989   0.391   6.937   5.805  0.1321 -0.2858 -0.0295
27859W        W42990  17.444  12.874  14.513 -0.0015 -0.1354  0.3758
27860W        W42991   9.854   2.863   0.419  0.0676 -0.2454  0.2562
27861W        W42992   1.358   4.566  15.434 -0.1709  0.0990  0.1030
27862W        W42993  16.151   9.726  13.821 -0.2314 -0.0333 -0.1061
27863W        W42994   4.566   3.748   1.439 -0.1001 -0.0468 -0.1608
27864W        W42995  12.343  10.545   4.675 -0.1843  0.0264  0.2002
27865W        W42996   1.819   5.054   3.706  0.0090 -0.0744 -0.1640
27866W        W42997   1.762  11.611   0.498 -0.0678  0.1152  0.0074
27867W        W42998   2.865  13.641  14.553  0.0603 -0.4690  0.3596
27868W        W42999   0.150   8.336   3.747 -0.0044  0.0974  0.3570
27869W        W43000   9.339  18.191   1.012 -0.1357 -0.1523  0.0862
27870W        W43001  15.302   7.356   2.886  0.1081  0.3374 -0.3487
27871W        W43002  11.251  16.630  11.728 -0.0043 -0.2081 -0.0415
27872W        W43003  14.511   5.263  15.688 -0.0483  0.0740  0.1649
27873W        W43004   4.275   8.510  10.813  0.2931  0.0523  0.1765
27874W        W43005   0.722   7.709   4.684  0.2268 -0.0234 -0.0126
27875W        W43006  12.689   8.263   5.225  0.3792 -0.1518  0.0508
27876W        W43007   2.014   9.579   2.362 -0.2101  0.0414  0.3251
27877W        W43008  12.316  16.252   3.774 -0.0419  0.0142 -0.2089
27878W        W43009   9.908  17.568   1.356  0.0843 -0.1172  0.2879
27879W        W43010  11.508  12.225  12.246 -0.1095 -0.0172  0.1488
27880W        W43011  10.135   5.406   3.551 -0.2310  0.1164  0.3578
27881W        W43012  14.622  13.523   3.612  0.1455 -0.0482 -0.3804
27882W        W43013  17.002  18.714  15.693 -0.0252  0.2016  0.0811
27883W        W43014   3.754  12.019   4.666 -0.0064 -0.0080  0.3493
27884W        W43015   2.321   0.843   0.334  0.3213  0.1260  0.0897
27885W        W43016   7.805   8.394  14.299 -0.1764  0.0004 -0.2298
27886W        W43017  17.034   5.895   5.482  0.2864 -0.2403 -0.3523
27887W        W43018  16.359   8.231  15.432  0.1118  0.2329  0.4762
27888W        W43019  16.187   9.972   4.953  0.1350  0.3808 -0.1840
27889W        W43020   0.562   0.793  11.186  0.0562 -0.1722 -0.1299
27890W        W43021   8.123   2.885   3.649  0.0470 -0.1676  0.0833
27891W        W43022   6.105  15.864  10.144  0.2590 -0.3213 -0.0196
27892W        W43023  16.863  10.275   1.499 -0.2499 -0.1019  0.0080
27893W        W43024   8.454   5.109   1.792  0.3181 -0.0325 -0.0238
27894W        W43025  18.487   3.689  11.093 -0.3076 -0.0446 -0.2274
27895W        W43026  14.509  14.954   3.436  0.1026 -0.0901  0.0011
27896W        W43027   3.864  15.253  14.608 -0.0100 -0.0112 -0.0750
27897W        W43028  17.648  12.622  15.169  0.0216 -0.0046 -0.1132
27898W        W43029  10.922   3.697  14.937  0.4527 -0.0489  0.1088
27899W        W43030  17.847   9.139  10.732 -0.0433 -0.1716 -0.1309
27900W        W43031  13.989   6.911   3.522  0.1992  0.5111 -0.2555
27901W        W43032  12.356  12.507   1.423 -0.2757  0.1208  0.0093
27902W        W43033  15.218  12.947  11.398  0.2857  0.5006 -0.0557
27903W        W43034   8.724  10.953   2.513 -0.3165  0.3804 -0.0481
27904W        W43035  18.306   7.044   1.812 -0.0449  0.0182 -0.2374
27905W        W43036  10.488   2.934   5.522  0.2126  0.1378 -0.0635
27906W        W43037   0.695  11.527   3.990 -0.2018  0.1680 -0.3149
27907W        W43038   3.633  11.175   5.802  0.0129 -0.0456  0.0382
27908W        W43039   2.948  11.265  14.218 -0.3430 -0.1248  0.0246
27909W        W43040   4.737   5.432   4.572  0.1806  0.2064 -0.2959
27910W        W43041  14.904   2.143   0.405  0.1049 -0.1426 -0.1080
27911W        W43042   5.499  12.056  11.077 -0.1421  0.3166  0.0877
27912W        W43043   6.015  10.982  14.440 -0.1310  0.0769  0.2030
27913W        W43044   0.972  14.985  11.972 -0.1522  0.0336 -0.0074
27914W        W43045   8.307   2.697  11.106 -0.4571 -0.1784  0.0615
27915W        W43046  14.541   8.182  14.187  0.6420  0.2045  0.0383
27916W        W43047   9.118   0.892   6.323 -0.1529 -0.0817 -0.1559
27917W        W43048  14.346   1.871   0.128 -0.0378 -0.1577 -0.3561
27918W        W43049   9.333   9.617   1.972 -0.2873 -0.2123  0.2187
27919W        W43050   7.105   8.257   3.162  0.0525  0.0818 -0.0444
27920W        W43051  15.561  12.104   4.966 -0.2579 -0.1306 -0.2246
27921W        W43052  12.223   9.657  11.188 -0.4223  0.0736 -0.0531
27922W        W43053  17.033  10.293   0.090 -0.0261 -0.1647 -0.2171
27923W        W43054   5.542   6.687   5.539  0.0912  0.1058 -0.2933
27924W        W43055  15.021  13.708  12.300 -0.0125  0.1497 -0.1400
27925W        W43056  13.065   1.341  11.053 -0.1628  0.1793  0.1597
27926W        W43057  17.732   5.966   2.950  0.0144 -0.1563  0.4148
27927W        W43058  12.860   6.384  14.924  0.0507 -0.2250  0.0348
27928W        W43059  17.694  11.563  12.639  0.3147 -0.1837  0.4265
27929W        W43060  10.042  14.939   0.096  0.0277  0.3492 -0.1868
27930W        W43061   6.255  12.836  14.384  0.1276 -0.0246 -0.2177
27931W        W43062   8.610   6.642   0.892  0.0505  0.1213 -0.1476
27932W        W43063  15.218  17.351   0.363 -0.1562 -0.1838  0.4322
27933W        W43064  10.411   0.794   0.224  0.3094 -0.0911  0.4708
27934W        W43065  15.976   5.805   4.314 -0.3252 -0.0955  0.0201
27935W        W43066  14.752   7.095   5.734  0.1247 -0.0483  0.3753
27936W        W43067  16.760   7.340   2.467  0.0029  0.0394  0.0764
27937W        W43068  15.966  15.623  14.669 -0.4510  0.0446  0.3300
27938W        W43069   1.565  18.103   0.541 -0.2886 -0.2379  0.0208
27939W        W43070  11.736   0.316  11.447  0.1002 -0.2363 -0.0073
27940W        W43071   0.409  11.588  12.844  0.0668  0.3888 -0.1692
27941W        W43072  11.833   2.284   2.978  0.2855  0.1744  0.0415
27942W        W43073  10.533  17.101  10.617 -0.2102 -0.0070  0.0719
27943W        W43074   0.218   8.371  14.092 -0.1577  0.1243  0.1692
27944W        W43075   3.290   1.858  11.412 -0.2080  0.0788 -0.0259
27945W        W43076   3.886   8.983   2.289 -0.0362 -0.3234 -0.1857
27946W        W43077   0.680   3.978   0.829  0.4408 -0.0362 -0.1339
27947W        W43078  11.358  10.046   1.369 -0.1818 -0.1035 -0.1973
27948W        W43079   7.253  11.160  11.613  0.5072 -0.2227  0.0350
27949W        W43080   7.901   6.959  15.523  0.3466  0.2661  0.0975
27950W        W43081  10.432  10.349   9.777  0.0406 -0.2136 -0.2697
27951W        W43082   3.179   2.725  15.232  0.0802 -0.0541 -0.2146
27952W        W43083  11.108   8.706   1.119 -0.5019  0.0135 -0.3067
27953W        W43084  17.461   3.175  12.635  0.3660  0.0980  0.1163
27954W        W43085  16.530   8.608  10.863 -0.0072 -0.0421 -0.2821
27955W        W43086  13.498   7.871  13.097 -0.2307 -0.0286  0.0977
27956W        W43087  12.606   8.086  12.867 -0.0289  0.4466  0.1865
27957W        W43088   7.051  14.167  10.475  0.1304  0.1413 -0.1820
27958W        W43089   9.481   5.759   4.497  0.4760 -0.5589 -0.0047
27959W        W43090   9.814  10.023   1.330 -0.3134 -0.0880 -0.1651
27960W        W43091   0.300   0.036  15.653  0.2847 -0.3345 -0.0433
27961W        W43092  17.584   1.144   0.292 -0.0619 -0.0602 -0.2607
27962W        W43093  10.669   0.528   1.167  0.1212  0.0118 -0.4251
27963W        W43094  10.819  13.024  11.777  0.0963 -0.2912  0.0604
27964W        W43095   2.923  12.363  11.685 -0.1989  0.0240 -0.0447
27965W        W43096  16.117   6.671   0.571  0.0044  0.0830  0.0834
27966W        W43097  10.365  16.292  15.503 -0.1120  0.0951 -0.1824
27967W        W43098  14.977  15.239  14.127 -0.1252  0.0974 -0.0920
27968W        W43099  10.220  15.526  13.393 -0.0375 -0.3059  0.1276
27969W        W43100   2.851   6.922  13.223  0.0493 -0.0733 -0.1013
27970W        W43101   9.518  10.669   0.728  0.3190  0.0439  0.2177
27971W        W43102  15.962   1.179   1.304  0.0944  0.0051  0.1023
27972W        W43103  14.930   7.584   4.020  0.1189  0.1659 -0.0227
27973W        W43104  18.469   4.682   0.350  0.1756 -0.2799 -0.3035
27974W        W43105  13.226   6.810   4.582  0.1056 -0.0769  0.0284
27975W        W43106  12.259   3.658  11.479  0.1310 -0.1729 -0.0330
27976W        W43107  18.007   1.037  12.109 -0.0507 -0.0490  0.2220
27977W        W43108  16.135  11.250  10.596  0.0191 -0.0863  0.1937
27978W        W43109   2.157   9.763   3.931 -0.0693 -0.0840  0.1093
27979W        W43110  10.315   6.293   2.011  0.0442  0.0117  0.1080
27980W        W43111   1.282   4.623  14.067 -0.0187  0.0666 -0.0089
27981W        W43112   9.103   0.480   3.113  0.1656 -0.1617  0.1667
27982W        W43113  13.757  13.101  12.769 -0.2465 -0.2764 -0.0945
27983W        W43114  15.565   3.694  10.844 -0.0122 -0.0517 -0.0382
27984W        W43115  16.796   7.299   1.985 -0.2941 -0.2325 -0.1074
27985W        W43116  15.928  16.986  13.585 -0.0168  0.0425 -0.2229
27986W        W43117  13.291   3.986  15.381  0.0295 -0.1480 -0.0969
27987W        W43118   9.470   4.815   3.552 -0.0997  0.0884  0.0215
27988W        W43119   6.300   6.998   3.661  0.1616  0.1831 -0.1185
27989W        W43120  18.568  13.869  11.131 -0.0004  0.0988 -0.0335
27990W        W43121   0.281   1.619   0.503  0.4663 -0.0738  0.2081
27991W        W43122   0.635  15.843   0.006 -0.2526  0.0469  0.0542
27992W        W43123  16.466  11.610  11.506 -0.0812 -0.1051  0.2367
27993W        W43124   5.908  16.490  14.220 -0.3356  0.2219 -0.0498
27994W        W43125   1.277  10.576   4.346  0.0506 -0.2567  0.3460
27995W        W43126  16.807  13.108   0.459 -0.0213  0.0066  0.1118
27996W        W43127   3.869  17.157   2.590  0.2658  0.1472 -0.1619
27997W        W43128   2.880   1.543  11.516 -0.0629 -0.2836  0.1957
27998W        W43129   4.759   9.769   3.713  0.1029 -0.0826 -0.0710
27999W        W43130  15.023   2.000   1.837 -0.0840  0.2378  0.2773
28000W        W43131   3.735   1.421   4.077 -0.1501 -0.2015 -0.1858
28001W        W43132  12.795   8.909  12.465  0.3279 -0.1047  0.0420
28002W        W43133   9.836   8.545  14.574  0.0618 -0.2244  0.0679
28003W        W43134  10.059   5.391  12.428 -0.2549 -0.2853 -0.0029
28004W        W43135   6.328  13.652   4.004  0.2389 -0.0805  0.0165
28005W        W43136  11.211   7.315  10.207 -0.3542  0.3334  0.2646
28006W        W43137   9.702  13.285  14.319 -0.1714  0.0305  0.3289
28007W        W43138  14.144  15.214  12.011  0.0505 -0.0288  0.1553
28008W        W43139  12.816  11.734   1.910  0.1414 -0.0476 -0.4277
28009W        W43140  11.777  18.369   2.180 -0.1654  0.0664 -0.1504
28010W        W43141   8.931   9.672  12.890 -0.1498  0.2407  0.0526
28011W        W43142  10.859   0.585  14.168  0.0488  0.0292 -0.1186
28012W        W43143   5.277   0.425   0.264 -0.0091 -0.0228 -0.0549
28013W        W43144  11.905  16.636  14.189 -0.1877  0.2816 -0.0086
28014W        W43145  14.027   6.011   1.706 -0.1225  0.1175  0.1308
28015W        W43146   2.357   2.521   2.271  0.2937  0.1210  0.0358
28016W        W43147  11.559   9.423   1.553 -0.3004 -0.2125 -0.2318
28017W        W43148   2.306   1.139  15.670  0.0239 -0.2840 -0.2565
28018W        W43149  18.053   9.438   1.123  0.1245 -0.1554 -0.1871
28019W        W43150   7.629  13.336   5.714 -0.3839  0.0640  0.0721
28020W        W43151   2.696  12.147   5.680  0.0958 -0.0567 -0.1565
28021W        W43152   9.458   9.265  12.150 -0.4445 -0.0486  0.0781
28022W        W43153  17.363   6.806   3.706 -0.3173 -0.3405  0.0176
28023W        W43154   0.435   2.008  12.263 -0.1979 -0.1543  0.0319
28024W        W43155   4.055   1.808  15.319  0.2171  0.1359  0.0840
28025W        W43156   2.653   6.751  11.282 -0.1748 -0.0897  0.4182
28026W        W43157  16.527   7.382  15.194  0.2445  0.6770 -0.1054
28027W        W43158   3.882   7.739   5.119  0.0302  0.1990  0.1076
28028W        W43159   5.179   9.523   5.776  0.1092 -0.2461 -0.0352
28029W        W43160  13.372   4.872   2.350 -0.2189 -0.0096  0.0656
28030W        W43161   8.781   5.812  10.116 -0.1525 -0.2824  0.1740
28031W        W43162  12.093  17.167   1.589  0.2191 -0.1968 -0.0083
28032W        W43163   4.185   2.908   1.070  0.2356 -0.0987  0.2620
28033W        W43164  18.579   3.400   4.738  0.0252  0.1305  0.0192
28034W        W43165   1.460   3.771  13.150  0.0759 -0.0331 -0.0284
28035W        W43166   0.067  13.801   4.606  0.0040  0.0300 -0.0506
28036W        W43167  11.704   8.877   2.317  0.0334  0.0221  0.0857
28037W        W43168   8.119   8.160  15.614 -0.4514 -0.0162 -0.0478
28038W        W43169   8.220  15.497   0.697  0.0055  0.0171 -0.0400
28039W        W43170   4.627  16.769  11.079  0.0027 -0.0565 -0.1329
28040W        W43171   1.495  10.540  11.719  0.1703  0.6127  0.2427
28041W        W43172  11.221  13.519   3.835 -0.0967 -0.0264 -0.1393
28042W        W43173   9.926   0.364  14.698  0.3872 -0.0572  0.0395
28043W        W43174  12.361   1.624   4.229 -0.0405  0.0969 -0.1528
28044W        W43175  15.424  14.081  14.611  0.1200  0.2026  0.0146
28045W        W43176  16.308   0.956  12.568  0.2212 -0.1585  0.0147
28046W        W43177   4.593   4.359  11.961  0.0239  0.2661 -0.3979
28047W        W43178  11.734   9.826   3.471 -0.0876 -0.2223 -0.2102
28048W        W43179  17.810  12.157  13.988 -0.0621  0.0233 -0.0648
28049W        W43180   0.971   9.933   0.510  0.2464 -0.1488 -0.1247
28050W        W43181  10.510  14.495   4.410  0.0074  0.1664 -0.2683
28051W        W43182   6.997   3.112  12.982  0.1081  0.0070 -0.2734
28052W        W43183   7.738  12.439   3.315  0.2239  0.2751 -0.1219
28053W        W43184   3.689  11.165  13.546 -0.1770 -0.1524 -0.3518
28054W        W43185  13.708  11.857   1.469  0.0385 -0.1511  0.2789
28055W        W43186   2.980   4.196  14.187  0.2649  0.2177  0.0849
28056W        W43187   5.003   2.419  12.829  0.0679  0.4477  0.0421
28057W        W43188   9.782  16.314   4.649  0.0173  0.2134 -0.3946
28058W        W43189  15.268   5.252  14.157 -0.2438 -0.0895  0.0018
28059W        W43190   3.663   4.127   0.729  0.3551  0.2712 -0.0076
28060W        W43191   1.505   1.398  13.444 -0.4487 -0.0368  0.1024
28061W        W43192  14.161   8.582   4.348  0.1178 -0.0980  0.3033
28062W        W43193  17.115   3.900  13.141 -0.0727 -0.1242  0.0355
28063W        W43194   8.670   1.872   5.026 -0.0648 -0.1825  0.2975
28064W        W43195   9.691   1.553   4.267 -0.0825  0.0084 -0.3183
28065W        W43196   2.327   4.206   1.476  0.2668 -0.1034  0.1804
28066W        W43197  12.410  16.503  10.731  0.2313  0.1087 -0.2088
28067W        W43198   4.613   6.499   5.058 -0.3544 -0.0840  0.0066
28068W        W43199  13.643  15.209  13.577  0.0766  0.0098  0.1864
28069W        W43200   3.814   3.670   0.486 -0.1184  0.1200  0.1008
28070W        W43201  16.051   2.523  11.985  0.2169  0.2000  0.3267
28071W        W43202   3.575   7.059  14.366 -0.0060 -0.2085 -0.0527
28072W        W43203   1.075   2.133  13.697 -0.1960  0.2717  0.1362
28073W        W43204  18.500   0.368  14.545  0.0878 -0.0962 -0.3214
28074W        W43205   8.570  16.153   5.347  0.4063  0.0695  0.0221
28075W        W43206   6.196   1.220  13.367  0.1839  0.1079 -0.3963
28076W        W43207   1.228   7.497  14.005 -0.2786  0.0831 -0.1942
28077W        W43208  14.445   1.194  13.611  0.0035  0.1192  0.2274
28078W        W43209  15.854  18.450  15.277 -0.0463 -0.1012 -0.0590
28079W        W43210  16.488  15.212  10.150  0.0279  0.3491 -0.3822
28080W        W43211  16.631   0.234  11.237  0.0339 -0.0370  0.0432
28081W        W43212  12.922   3.135  11.709  0.1605 -0.0856  0.2114
28082W        W43213   6.822  18.068  10.472  0.0345  0.0730  0.1413
28083W        W43214   4.881   1.828   2.921 -0.2254 -0.0716  0.2232
28084W        W43215  17.098  12.753   0.291 -0.0511 -0.3936 -0.0961
28085W        W43216   5.006   8.835   3.872  0.2674  0.0800  0.1497
28086W        W43217  13.461   8.256  12.655  0.1677 -0.0965  0.2370
28087W        W43218   9.406  11.293   1.952 -0.0911  0.0036  0.0692
28088W        W43219  17.612   9.992   6.183  0.2518 -0.1463  0.0884
28089W        W43220  10.163   2.693  15.675  0.2348  0.1150 -0.4339
28090W        W43221  12.121   2.061  12.433 -0.0712 -0.3339  0.1244
28091W        W43222  15.883   4.050  15.510  0.0720  0.0711 -0.3060
28092W        W43223  14.455   3.938   1.165  0.1884  0.0708  0.0859
28093W        W43224  15.008  10.037  13.113 -0.1324 -0.0766  0.2290
28094W        W43225  12.275  13.092  12.011 -0.4121  0.2142 -0.0794
28095W        W43226  14.251  14.376   0.229 -0.0293  0.5456 -0.1490
28096W        W43227  14.685   6.605  14.443  0.4666 -0.3178  0.2625
28097W        W43228  16.768   6.134   5.131  0.1838 -0.0894 -0.2868
28098W        W43229  15.735   3.028  14.798 -0.1922 -0.0845  0.0715
28099W        W43230  17.541  18.018   1.660  0.2668  0.1340 -0.0644
28100W        W43231  14.679   4.691   2.198 -0.1132 -0.0225 -0.1004
28101W        W43232   5.492  13.175   0.820  0.0041 -0.2040  0.1841
28102W        W43233  15.813  11.927   0.971 -0.0878 -0.2514  0.0090
28103W        W43234   7.529  12.913   0.028  0.1192  0.2170 -0.2856
28104W        W43235   8.462  10.809   2.035  0.2246  0.1249  0.1556
28105W        W43236  13.138  12.630   0.912  0.2611 -0.1691 -0.2518
28106W        W43237   4.931   7.316   3.656 -0.3094  0.0491  0.0996
28107W        W43238   6.889   8.413   5.066 -0.1193  0.0177  0.0548
28108W        W43239   6.430   4.316   5.470 -0.0727 -0.1054  0.0891
28109W        W43240   9.304   8.810   4.044 -0.1653  0.1431 -0.2802
28110W        W43241   8.464   7.582   3.004  0.0212  0.0944  0.2296
28111W        W43242   1.239  10.200   0.847  0.1055  0.5302  0.1466
28112W        W43243   7.639  10.815  10.685  0.2715 -0.0244 -0.0926
28113W        W43244  14.685  11.731  12.835  0.1041 -0.0457 -0.1705
28114W        W43245   6.088   6.321   1.967  0.0988  0.1830 -0.0827
28115W        W43246  11.911   8.121   3.690 -0.0979  0.2863  0.0766
28116W        W43247  10.551   8.965   3.889 -0.2248 -0.1104  0.4476
28117W        W43248   6.367   7.150  15.403  0.1437 -0.0751  0.0288
28118W        W43249  11.445  15.127   2.876  0.0281 -0.3069  0.1980
28119W        W43250  12.537  15.620  12.720 -0.0362  0.3166 -0.0978
28120W        W43251  12.696   0.291  11.063  0.2039 -0.1170 -0.0568
28121W        W43252  16.189  17.562  11.743  0.0079  0.0555  0.0304
28122W        W43253  16.564  14.449   3.452 -0.0398  0.1216  0.4004
28123W        W43254  11.806   0.097   1.902  0.1345  0.0943 -0.1220
28124W        W43255  14.179  18.637   3.733 -0.0834  0.2619  0.2979
28125W        W43256  15.471   2.850  15.689  0.0357 -0.0572  0.3781
28126W        W43257  10.184  18.260  12.561  0.0198 -0.0234 -0.0912
28127W        W43258  13.361   6.829  14.898  0.0992 -0.4242  0.2581
28128W        W43259  11.818  14.929  10.277 -0.0769 -0.1765  0.2366
28129W        W43260   7.758  14.827   0.029  0.1543  0.2446  0.0360
28130W        W43261   6.272  10.520  10.561 -0.1523  0.2203 -0.0707
28131W        W43262   2.317  10.488   3.178  0.2762 -0.0703  0.2297
28132W        W43263   1.154  10.682  14.901 -0.0223 -0.0023 -0.1207
28133W        W43264  10.572  16.177  15.026 -0.0162 -0.1245  0.1210
28134W        W43265  10.992  16.770   1.718 -0.0549  0.1789 -0.2367
28135W        W43266   9.149  12.485   3.276  0.1352  0.1335 -0.1752
28136W        W43267  14.959   0.603   0.506 -0.1932 -0.0178  0.0503
28137W        W43268  12.620  16.739  14.455  0.0105  0.0226 -0.0160
28138W        W43269   3.464   7.885  15.611 -0.4524  0.2468 -0.3328
28139W        W43270  14.133   5.667   2.406 -0.1569  0.3324  0.0160
28140W        W43271   9.287   2.556  12.624 -0.0037  0.0486 -0.1419
28141W        W43272   3.525  15.225   0.689 -0.0085 -0.5298  0.0436
28142W        W43273   5.106  16.765  13.554 -0.2840  0.2041 -0.0129
28143W        W43274  11.546   2.617   2.754 -0.2729 -0.2398  0.1221
28144W        W43275   5.086  17.510   1.021 -0.0360 -0.2839  0.1519
28145W        W43276   2.718  13.871  12.580 -0.1039  0.1673 -0.0451
28146W        W43277   7.536  12.071   2.820 -0.2239 -0.0769  0.3314
28147W        W43278   6.684   8.131   0.867  0.1737 -0.2523  0.0586
28148W        W43279   7.149  11.839  14.594 -0.3758  0.1202  0.2288
28149W        W43280  10.532   1.469  13.108  0.4178 -0.0595 -0.3276
28150W        W43281   3.766   1.164  12.437 -0.2094 -0.3218  0.2273
28151W        W43282   7.795   6.759  12.549  0.1684  0.0460 -0.0082
28152W        W43283  10.325   7.792  15.503 -0.3013 -0.4083 -0.1711
28153W        W43284  16.934   2.357   3.398 -0.0488  0.2538  0.0155
28154W        W43285  17.440   8.801   0.879  0.4307 -0.3114 -0.0209
28155W        W43286  16.404   8.904  15.138 -0.0861  0.0084 -0.2200
28156W        W43287   2.566   9.306  15.373  0.2419  0.0004 -0.1016
28157W        W43288  12.478   2.295   2.766  0.1678  0.0601 -0.0536
28158W        W43289  17.889   8.012   4.111  0.0249 -0.0743  0.1459
28159W        W43290  11.211  14.039   3.659  0.1196 -0.4625 -0.0421
28160W        W43291   5.968  17.916   3.011 -0.0471 -0.1731  0.2195
28161W        W43292  16.299  14.133   4.043  0.2235 -0.2278  0.1273
28162W        W43293   7.760   8.490  10.879 -0.1330 -0.1988 -0.1695
28163W        W43294  10.930  15.196  13.014  0.1073 -0.1098 -0.1391
28164W        W43295  15.147  13.758   1.873 -0.2898  0.2658 -0.0380
28165W        W43296   7.578   2.361   1.837  0.0483  0.1707  0.2098
28166W        W43297  13.559   5.827  14.153  0.2344 -0.1107  0.1188
28167W        W43298  12.807   6.079   0.035 -0.0564  0.0023  0.1861
28168W        W43299  11.256  13.901   1.392  0.4938  0.1324  0.0928
28169W        W43300  16.114  11.071  12.565 -0.1741 -0.0773 -0.1116
28170W        W43301   8.718  10.917  13.876 -0.1295 -0.1066 -0.0614
28171W        W43302   6.420  15.082   2.518  0.2461 -0.2084  0.0270
28172W        W43303   5.960  15.408   4.098 -0.2540  0.1599 -0.1640
28173W        W43304  18.547   0.510  14.042  0.4223  0.1899 -0.0578
28174W        W43305  15.487   5.562   2.804 -0.1496 -0.1578 -0.3354
28175W        W43306  16.874   2.036   3.891  0.1297  0.0659  0.1415
28176W        W43307  15.275  14.201   0.169  0.1062  0.1834  0.4621
28177W        W43308  18.630   9.614  12.556 -0.0049  0.0530 -0.3302
28178W        W43309  13.115   7.841   0.339  0.1013  0.1596  0.1349
28179W        W43310   0.209  13.512  12.191  0.1793  0.0454 -0.1695
28180W        W43311   6.348  11.773  11.789  0.0011  0.2333 -0.0302
28181W        W43312   5.253  15.258  14.078 -0.1962 -0.0947  0.1556
28182W        W43313  16.137  18.265  12.891  0.0009 -0.1268 -0.1215
28183W        W43314   1.365  17.797  15.526 -0.0603  0.0101  0.3947
28184W        W43315  18.274  17.282   2.203 -0.1788 -0.1371  0.0091
28185W        W43316   2.242   8.748   1.415 -0.0284  0.0726 -0.1143
28186W        W43317   6.201   1.293  14.154  0.1414 -0.1847 -0.4042
28187W        W43318  11.856  15.357   2.494  0.1865  0.0967  0.1088
28188W        W43319   3.727  16.846  12.263 -0.1641  0.2591 -0.0239
28189W        W43320  12.746   1.922   2.993  0.1132 -0.0572 -0.2861
28190W        W43321   9.673  17.347   2.459  0.0004  0.0392 -0.0034
28191W        W43322   6.233   9.816   0.992  0.0732 -0.2737  0.1461
28192W        W43323   0.219   7.318  15.043  0.0012  0.1197  0.2007
28193W        W43324  12.806  13.703   9.356 -0.3021  0.1421 -0.1144
28194W        W43325  18.311   4.202   0.391  0.0699  0.2339  0.0132
28195W        W43326   2.163  13.031   3.008 -0.2585 -0.1821  0.1281
28196W        W43327  16.378   9.873  13.374 -0.0537 -0.0096 -0.0448
28197W        W43328   6.987  17.366   5.628  0.2448  0.1225  0.4238
28198W        W43329   1.960  12.267   1.064 -0.0711 -0.1535  0.2587
28199W        W43330  12.773  11.130   0.156  0.6336 -0.2130 -0.0671
28200W        W43331  13.662   8.782   4.384  0.1711 -0.3491  0.0089
28201W        W43332  14.360   0.861  11.446  0.0674 -0.0904  0.0612
28202W        W43333  13.139  18.470   2.120 -0.1770  0.0078  0.0931
28203W        W43334   9.423  12.599  11.259 -0.4177 -0.1572 -0.0452
28204W        W43335   1.457   7.215   3.762 -0.2164 -0.1890 -0.1032
28205W        W43336   5.594  18.455   2.392  0.2776 -0.1185  0.0117
28206W        W43337   4.531   2.362  14.209  0.2422  0.2179 -0.1028
28207W        W43338   2.311   5.401  13.429  0.0305  0.1815 -0.0761
28208W        W43339   0.764   3.972  14.060 -0.0741 -0.0842  0.2609
28209W        W43340  10.014   7.300   1.432  0.1883  0.1869 -0.1654
28210W        W43341   8.750  15.075   3.780  0.3434  0.2441  0.1111
28211W        W43342   3.419  17.439   1.806  0.1933 -0.0041 -0.2625
28212W        W43343  17.062   0.743   0.997 -0.0536 -0.2556 -0.2111
28213W        W43344   9.827   4.896   4.304 -0.0833  0.0914 -0.1227
28214W        W43345   6.331   6.050   2.408 -0.2344  0.0793  0.1842
28215W        W43346  15.616   6.211  13.056  0.1286 -0.2469  0.0653
28216W        W43347   8.085   4.618   4.700 -0.2670  0.1457  0.0580
28217W        W43348   1.042  13.159   4.544 -0.3428 -0.1061 -0.0020
28218W        W43349   7.293  17.771   0.767  0.1158 -0.0095 -0.5326
28219W        W43350  11.919   5.194   3.505 -0.1843  0.3642 -0.1275
28220W        W43351  16.793   3.630  12.870  0.0386  0.1241 -0.0176
28221W        W43352  17.522  11.015  15.021 -0.1619  0.3272  0.0543
28222W        W43353  13.982   1.224  14.847 -0.1539  0.0347 -0.0741
28223W        W43354  17.803   6.167  14.592  0.3022 -0.2091 -0.5330
28224W        W43355   8.785  14.707  13.061  0.3102  0.4237  0.0703
28225W        W43356   8.686   3.991  15.485  0.0075 -0.0111  0.2916
28226W        W43357   5.702   1.948  13.620  0.2178  0.0763 -0.0063
28227W        W43358  15.003  11.090   0.659  0.2489  0.0181 -0.1337
28228W        W43359  12.412   9.673  10.659  0.4253  0.1302  0.4644
28229W        W43360  12.898  10.390  14.219 -0.0079  0.1090  0.2961
28230W        W43361  18.266   8.623  12.734 -0.1202  0.0555 -0.0145
28231W        W43362  14.181  16.843  12.963 -0.1965  0.0977  0.2183
28232W        W43363  14.174   6.567   0.066  0.0821 -0.5511 -0.1727
28233W        W43364  14.883   4.788   0.794 -0.0942  0.0576  0.2774
28234W        W43365  17.630  10.257  14.558 -0.3808  0.0242  0.2496
28235W        W43366  12.693   1.904  13.970 -0.1592  0.1578 -0.1019
28236W        W43367   7.778  16.690  15.571 -0.2828  0.2368  0.2331
28237W        W43368   5.121   6.464   5.393 -0.0251 -0.4614  0.1319
28238W        W43369  17.705   5.297   2.309 -0.2871 -0.1760  0.4021
28239W        W43370   7.754   8.222  10.472  0.1574  0.2647  0.1547
28240W        W43371   9.559  11.155   3.322  0.0750  0.0009  0.1454
28241W        W43372  10.172   0.750   1.941  0.1620 -0.0990  0.6034
28242W        W43373   0.879  11.998  14.288 -0.0744 -0.0894  0.1864
28243W        W43374  13.805   8.230   0.355 -0.1504  0.1550 -0.0006
28244W        W43375   9.401  16.271   1.318 -0.1490 -0.2238  0.1987
28245W        W43376  14.675   8.946   5.730  0.0053 -0.0292 -0.1131
28246W        W43377   3.704   0.922   4.638 -0.2470  0.0211  0.1215
28247W        W43378  14.919  13.323   1.732 -0.1700  0.0758  0.0866
28248W        W43379   4.260  12.486   9.841  0.2376  0.0738  0.0643
28249W        W43380   0.317   7.550   0.605 -0.1113 -0.1617 -0.0627
28250W        W43381   8.191   0.030  15.320 -0.0671  0.0896  0.1860
28251W        W43382   1.554  12.897  11.384  0.0002  0.2959  0.0962
28252W        W43383  17.707  15.568   4.280  0.0020 -0.2912  0.0856
28253W        W43384   5.554  14.661  14.694 -0.0124 -0.2491  0.2467
28254W        W43385   3.217   6.026   2.222  0.1272  0.1184 -0.1052
28255W        W43386   3.734   9.952  13.494 -0.2749 -0.1301  0.1309
28256W        W43387  11.807   1.760  14.109  0.1851 -0.0986 -0.0757
28257W        W43388  12.307  17.495  13.911 -0.1059  0.4455 -0.0249
28258W        W43389   4.713   3.203  15.580  0.2611 -0.1338  0.1698
28259W        W43390   6.852  18.460   3.303  0.3358  0.0290  0.1442
28260W        W43391   5.582  10.797   3.703 -0.0503  0.1936 -0.1732
28261W        W43392   1.713  16.951  11.609  0.1305  0.0733  0.1727
28262W        W43393   6.753  11.444   2.444  0.1677 -0.0077  0.0615
28263W        W43394  16.268   6.550  15.720 -0.0262  0.2255  0.2156
28264W        W43395   9.489  14.178  12.769 -0.2900  0.2547  0.1675
28265W        W43396   1.374   5.191  14.860  0.2870  0.1195 -0.1038
28266W        W43397   8.563   2.486  13.360 -0.0995  0.1266  0.0416
28267W        W43398   9.110  13.115  15.125  0.1555  0.2172  0.0821
28268W        W43399  10.426   9.422   5.303 -0.2026  0.0976 -0.1988
28269W        W43400   6.353   0.494   2.078 -0.2065  0.2302  0.1129
28270W        W43401  11.304  11.743  13.089  0.1346  0.0796 -0.0319
28271W        W43402   2.244   8.772  15.131  0.0853 -0.2735 -0.1879
28272W        W43403   5.744   2.919  13.418 -0.1316 -0.1567 -0.1452
28273W        W43404  10.448   9.076  13.466 -0.1626  0.1196  0.1116
28274W        W43405   0.633  14.802  13.981 -0.3417  0.5395  0.0759
28275W        W43406   2.426   3.387  14.409 -0.3189 -0.3203 -0.0504
28276W        W43407  10.726   7.146  12.462 -0.1784  0.0050  0.0752
28277W        W43408   2.005   9.767   0.502  0.0459 -0.1450 -0.5669
28278W        W43409   9.315  15.900   3.914 -0.0839  0.3961 -0.0640
28279W        W43410  11.259   6.750   4.334 -0.0231  0.0438  0.1244
28280W        W43411   9.455   7.107  11.786  0.1344 -0.0664 -0.3196
28281W        W43412  18.575  13.363  10.791  0.1113 -0.0946  0.2182
28282W        W43413  16.683  13.609   1.480 -0.2967  0.1159 -0.2311
28283W        W43414  16.176   8.064  11.079 -0.2210 -0.0203 -0.4198
28284W        W43415  14.321  10.603  15.620 -0.0354 -0.1166  0.1923
28285W        W43416   5.594   0.387   3.545  0.0466  0.0540 -0.1369
28286W        W43417   1.176  12.672  11.176  0.1639  0.0185 -0.0217
28287W        W43418  16.896  13.899  14.800 -0.4574  0.0578  0.0230
28288W        W43419  13.822   9.928  11.655  0.2838 -0.1771  0.3778
28289W        W43420   6.215   7.438  12.273 -0.1698 -0.4313 -0.0871
28290W        W43421   7.876  15.081   2.585  0.0832  0.0676  0.3261
28291W        W43422  16.692   3.825   3.141 -0.2156  0.0746  0.1790
28292W        W43423  13.979   6.195  13.257  0.0769 -0.0535  0.0914
28293W        W43424   5.746  18.665   5.577 -0.3402  0.2453 -0.0696
28294W        W43425   6.943   5.426   2.706  0.2542  0.2982  0.0793
28295W        W43426  10.778   2.989   3.063 -0.1965  0.0397 -0.2033
28296W        W43427   2.105  14.097  15.381 -0.1568  0.0515 -0.2910
28297W        W43428  14.479   5.917  13.797 -0.0029 -0.2275  0.1570
28298W        W43429   3.696  17.397  15.216 -0.1061 -0.3269 -0.1377
28299W        W43430   4.172  14.004  15.647  0.3839 -0.0676 -0.0711
28300W        W43431  11.120   5.769  14.145 -0.2172 -0.0053  0.2546
28301W        W43432  16.971   8.779   0.852  0.0401  0.1446 -0.1889
28302W        W43433   2.103   2.581   3.222  0.1358 -0.0721 -0.1881
28303W        W43434  11.013  12.373   2.347  0.1149 -0.1712  0.0881
28304W        W43435   0.707   2.807  12.342  0.0746 -0.2192  0.0855
28305W        W43436  15.609  12.727  15.169  0.0618 -0.0522 -0.2741
28306W        W43437  11.944   7.247  12.674 -0.1007 -0.2417 -0.2306
28307W        W43438  10.856  14.312  14.317 -0.0824 -0.0078 -0.2560
28308W        W43439  14.111  10.099   9.823  0.0976  0.0592 -0.0567
28309W        W43440   1.883   8.120  14.623  0.2818 -0.1215  0.3578
28310W        W43441   4.787   3.746   5.103 -0.1027 -0.4388 -0.0246
28311W        W43442  14.293  13.974  15.622 -0.1623  0.3286 -0.0917
28312W        W43443   4.918  15.794  15.437  0.1595  0.3367  0.1474
28313W        W43444  17.570  15.612   2.030 -0.0383  0.1296  0.0066
28314W        W43445   5.887   6.778   1.229  0.1060 -0.2729 -0.0750
28315W        W43446  12.614   9.976   3.392 -0.1399 -0.1280 -0.1336
28316W        W43447   1.011   9.535   9.690 -0.2862 -0.0719  0.2009
28317W        W43448  16.560  16.478  12.677  0.0315  0.0893  0.1235
28318W        W43449   0.275  10.925   0.190  0.2110  0.2086  0.1053
28319W        W43450   4.863  17.823   1.930 -0.0271  0.0487 -0.1379
28320W        W43451   4.349  15.319   3.243 -0.0021 -0.0996 -0.1508
28321W        W43452  12.511  12.064  12.742  0.0305 -0.1184 -0.0740
28322W        W43453   5.880  18.063   5.812  0.0780 -0.0505  0.1006
28323W        W43454  12.154  18.178   1.972  0.0373  0.0047  0.1874
28324W        W43455  13.855   8.500   1.656 -0.0027 -0.2685  0.0351
28325W        W43456   9.171  17.252   4.560  0.2397  0.1261  0.0855
28326W        W43457   3.817  16.616   4.619 -0.2445  0.0711 -0.0955
28327W        W43458  16.156   8.180  11.596  0.0205 -0.0416  0.1502
28328W        W43459  13.697   3.191   2.326  0.3883  0.1361 -0.0582
28329W        W43460  10.821   5.795   1.368 -0.5115 -0.1082 -0.1617
28330W        W43461  15.063  15.090   1.357 -0.1995  0.0015  0.1711
28331W        W43462   0.695  17.647   2.504  0.0008 -0.1155  0.2983
28332W        W43463  13.028  12.327   1.808  0.3093  0.1841 -0.1552
28333W        W43464   9.385  10.635  12.055 -0.1121 -0.2779  0.0147
28334W        W43465   7.320   1.910   1.864 -0.0967 -0.1338  0.1244
28335W        W43466  16.202  17.640   0.955 -0.0767 -0.1298 -0.5112
28336W        W43467   7.885   7.824   4.239 -0.3144  0.0611 -0.2587
28337W        W43468   2.309   3.373  12.510 -0.1115  0.1094  0.2863
28338W        W43469  14.142   6.764   2.491  0.0658  0.1018  0.1705
28339W        W43470   5.156   0.627   3.453 -0.0921  0.0507  0.3280
28340W        W43471   3.850  12.184   2.119  0.4065  0.4165  0.2846
28341W        W43472  13.851  18.501  13.661  0.1790 -0.1402  0.1637
28342W        W43473   2.171   6.074  13.084  0.0248  0.0982  0.0726
28343W        W43474   2.060   8.759   9.598 -0.2265 -0.0531 -0.1241
28344W        W43475   8.159  13.132  12.288 -0.2869 -0.0500 -0.0894
28345W        W43476   2.494  16.469   5.199 -0.1683 -0.1743 -0.3498
28346W        W43477   2.647   6.166   5.287  0.4274 -0.0743  0.3721
28347W        W43478   6.694   7.310   3.936  0.1639 -0.3828 -0.2667
28348W        W43479  16.713   6.681  14.910 -0.1639 -0.0960 -0.0184
28349W        W43480  15.836  12.758   5.386  0.1544  0.2347 -0.2089
28350W        W43481   7.526   5.693  15.716  0.1725  0.2053 -0.1704
28351W        W43482   8.643   6.210   4.482 -0.1290  0.1735  0.1393
28352W        W43483   1.728  13.116  14.146  0.0328 -0.0869 -0.4457
28353W        W43484  15.603   1.738  15.669 -0.2581  0.0780  0.1798
28354W        W43485  15.537  10.446  14.290 -0.1000 -0.3833  0.3331
28355W        W43486  17.296   1.900   1.456 -0.0810  0.1147  0.2682
28356W        W43487  13.450   7.819  10.711  0.2558 -0.0244 -0.0881
28357W        W43488  12.738  16.380   0.084  0.2937 -0.2317  0.1887
28358W        W43489  15.733  17.883  13.861 -0.1209  0.0032  0.3096
28359W        W43490  15.819   6.496   1.287  0.0935  0.0922 -0.0647
28360W        W43491   8.325   2.711  12.420  0.4943  0.3910  0.0985
28361W        W43492  12.940   0.952  12.764 -0.2581  0.1045  0.1361
28362W        W43493  12.026  11.931   0.899  0.0468  0.0202  0.2868
28363W        W43494  14.305   1.731  10.497 -0.0244  0.4172 -0.2115
28364W        W43495   6.357   3.077  10.927  0.0562 -0.1133 -0.1079
28365W        W43496  14.070   9.505   5.422 -0.1270 -0.2940  0.0132
28366W        W43497  14.150  13.000   3.141  0.1381 -0.0837 -0.0469
28367W        W43498   7.438  12.896   3.281  0.0217  0.0769 -0.1943
28368W        W43499  12.366  11.872   2.189  0.0414  0.1221  0.0565
28369W        W43500  16.015   3.379  10.880 -0.0710  0.0420 -0.3259
28370W        W43501  11.437   9.466   2.098  0.2912  0.1636  0.2431
28371W        W43502  15.074  13.980  15.403 -0.1212  0.1172  0.0751
28372W        W43503  10.755   9.535  12.800  0.0770  0.0869  0.1033
28373W        W43504  12.421   2.731   4.602 -0.1084  0.5271 -0.2832
28374W        W43505  10.302  13.038  11.467  0.1596  0.0796  0.1336
28375W        W43506  15.010   6.495   3.080  0.2067 -0.1087 -0.1033
28376W        W43507  11.488   3.115  14.199  0.1142 -0.0136 -0.3323
28377W        W43508  15.660  17.555   3.880 -0.0598 -0.2430  0.2455
28378W        W43509  14.128  12.329   0.491  0.3494  0.2658 -0.3632
28379W        W43510   1.193   9.199   5.301 -0.0407  0.0894 -0.0309
28380W        W43511   1.694  11.918  15.304 -0.0559 -0.3505  0.1343
28381W        W43512   7.064   0.797   0.031 -0.1170  0.1888  0.2193
28382W        W43513  10.032  10.012   0.602 -0.3093  0.0950 -0.0325
28383W        W43514  11.465  14.181  13.142 -0.2001  0.1046 -0.0764
28384W        W43515   8.768  15.254   4.285  0.0752  0.0913 -0.1765
28385W        W43516  17.531  14.959   3.526 -0.2242  0.0796 -0.0547
28386W        W43517  18.701   7.390   0.978 -0.0282  0.1719 -0.0139
28387W        W43518   5.635   5.177  14.818 -0.0067  0.0035  0.1187
28388W        W43519   0.897   8.161   4.281 -0.0257 -0.6088 -0.1332
28389W        W43520  17.153  13.121   5.225  0.2605  0.0168  0.1695
28390W        W43521   8.152   7.416  13.582 -0.0759 -0.4437 -0.0382
28391W        W43522   9.314   3.833   3.517  0.1270  0.2148  0.1102
28392W        W43523  13.509  12.352  13.517 -0.3428 -0.1954  0.0435
28393W        W43524  13.210   0.046   0.210 -0.3033  0.4119  0.1205
28394W        W43525   9.011  16.014   2.416 -0.1613  0.0602  0.1174
28395W        W43526   1.401   0.454  11.772  0.3700  0.1752  0.1440
28396W        W43527  16.169   8.409   0.162  0.1433  0.0696 -0.1153
28397W        W43528  14.815   2.671   4.668 -0.0194  0.0546 -0.2137
28398W        W43529  18.086   6.204  10.950  0.2689 -0.0398  0.1537
28399W        W43530   3.172   5.241  13.538  0.3990  0.0726 -0.4073
28400W        W43531   0.597   7.659  14.845  0.1792  0.0549  0.0594
28401W        W43532   0.454   2.541   2.708 -0.0412 -0.0818 -0.1181
28402W        W43533  13.967   0.804  13.887 -0.1628  0.3872 -0.1177
28403W        W43534  12.963  15.244   3.069  0.0223 -0.1021 -0.3972
28404W        W43535   0.265   2.198   0.057  0.1282  0.1295 -0.2219
28405W        W43536   7.582  14.462  13.757 -0.1412 -0.1758 -0.2013
28406W        W43537  13.469   0.041   3.323  0.3361  0.0556 -0.2028
28407W        W43538   5.532  10.445  12.330 -0.0206  0.1912 -0.0755
28408W        W43539   2.900   0.024   1.234  0.1457 -0.1093  0.0111
28409W        W43540  18.114  17.787  11.371  0.0775 -0.1402  0.1425
28410W        W43541  14.131  11.339  11.000 -0.2816 -0.0932  0.0081
28411W        W43542   0.177  13.433  14.458 -0.1913 -0.0403  0.1150
28412W        W43543   3.501  15.107  13.589  0.5372  0.0139  0.0814
28413W        W43544   2.226   3.479  11.119 -0.1525 -0.1787 -0.0478
28414W        W43545   8.567  11.197   1.712 -0.0085  0.3490  0.2417
28415W        W43546   6.469   8.075   4.419  0.1630 -0.2958  0.3102
28416W        W43547   5.172   1.230   5.220 -0.1381 -0.1266 -0.1582
28417W        W43548   0.800  17.720   4.170  0.0615 -0.0584 -0.1992
28418W        W43549  17.921  11.778  10.844 -0.1983 -0.0137 -0.0533
28419W        W43550  11.077  17.484   3.306 -0.1157 -0.1275 -0.0787
28420W        W43551  10.081  14.627   3.725 -0.0003  0.1992  0.2903
28421W        W43552  10.803   0.388   3.661 -0.0500 -0.0782  0.0201
28422W        W43553   3.619   7.600   3.553 -0.3208 -0.0708  0.2375
28423W        W43554  14.418   6.363  12.322 -0.2719 -0.0442  0.1205
28424W        W43555  12.437  18.181  10.944  0.0300 -0.2761 -0.0094
28425W        W43556   2.656  11.544  12.411  0.1407 -0.1171  0.1628
28426W        W43557  10.190   8.170  11.003  0.1894 -0.1086  0.1793
28427W        W43558   3.386   7.768   0.310  0.0779  0.0112  0.0736
28428W        W43559  16.294  18.666  12.172 -0.2060 -0.0706  0.0973
28429W        W43560   6.830  14.447  14.599 -0.2282  0.1031  0.0448
28430W        W43561  12.421   7.280  15.110  0.1941 -0.3539  0.0766
28431W        W43562  10.394  11.240  12.513 -0.0976 -0.0880 -0.0813
28432W        W43563   6.887  10.145  12.302  0.3112  0.2554  0.3139
28433W        W43564  14.559   4.557  11.097 -0.1077 -0.4084 -0.0034
28434W        W43565   5.931   0.412   1.772 -0.1966  0.3939  0.2158
28435W        W43566   0.331   3.188   1.475 -0.1512  0.0325  0.1988
28436W        W43567  11.549   6.911   3.808  0.1856 -0.1203 -0.3847
28437W        W43568  14.182   8.247   3.132 -0.0294 -0.1723  0.0749
28438W        W43569  17.586   0.541  13.985  0.1229  0.0190  0.0042
28439W        W43570  18.579  13.450   2.538 -0.3667 -0.0619 -0.0586
28440W        W43571  16.778   1.746   0.200  0.1168  0.0159 -0.1928
28441W        W43572   5.033   5.680  10.426 -0.0439  0.1193 -0.0076
28442W        W43573   8.282  10.068  14.079  0.2834 -0.0454  0.0261
28443W        W43574   3.788  13.880   3.057 -0.1181  0.2151 -0.1948
28444W        W43575   5.423  10.749   4.322  0.1685  0.2269 -0.1521
28445W        W43576   2.548  10.163   4.836 -0.2314 -0.1203 -0.1470
28446W        W43577   7.179  16.704  14.584 -0.0293  0.0668 -0.1296
28447W        W43578   1.911   1.853   2.632  0.0185 -0.0462 -0.1047
28448W        W43579  14.942   0.787  12.230 -0.4850 -0.0706  0.1624
28449W        W43580  16.380   8.896  14.644  0.5385 -0.0805  0.2082
28450W        W43581  11.949   5.736   2.634 -0.3328  0.1547 -0.2307
28451W        W43582  12.130  10.655  14.945  0.4438  0.0815  0.0819
28452W        W43583   3.515   1.465   1.937  0.0864  0.2102 -0.0535
28453W        W43584   9.019   9.582  13.401  0.0817  0.5107  0.0428
28454W        W43585   3.814  13.503  14.339  0.0523 -0.0147  0.0788
28455W        W43586   9.693   0.120  13.769  0.1192  0.2737 -0.1103
28456W        W43587  13.366  14.784  15.117  0.0635 -0.1603  0.0537
28457W        W43588   9.712  14.447  15.214 -0.0887  0.1651  0.1542
28458W        W43589  18.383   6.643  13.082 -0.0504 -0.0591  0.0774
28459W        W43590   9.340  17.655  15.244 -0.0510  0.4156 -0.3921
28460W        W43591  10.534  15.017  14.777 -0.2002 -0.3105 -0.0542
28461W        W43592   4.019  15.543   4.176 -0.0267 -0.0318 -0.0461
28462W        W43593  11.424   6.345  14.580  0.1703 -0.3961  0.2433
28463W        W43594  13.558  16.795  14.555 -0.0398  0.0872 -0.0417
28464W        W43595  14.741   1.318  13.164 -0.1643 -0.1011  0.2901
28465W        W43596  15.559  10.604   4.543 -0.2347 -0.0263 -0.1997
28466W        W43597   4.756  10.131   2.634  0.0558  0.2838 -0.3066
28467W        W43598  12.210  17.525   3.197 -0.2287  0.3971 -0.2616
28468W        W43599   0.091   6.310   4.119  0.2840  0.1955  0.1548
28469W        W43600   2.544   3.490   9.946  0.1529 -0.4505  0.0183
28470W        W43601   5.490   4.355   3.048 -0.2549 -0.2450  0.0267
28471W        W43602  11.620  18.017  13.836  0.0551 -0.1157  0.4008
28472W        W43603   3.246  16.753   1.578  0.1013 -0.1858 -0.3111
28473W        W43604  15.486  18.028  10.873 -0.5508  0.1757  0.1264
28474W        W43605  13.075   3.982   3.698  0.4664 -0.0294  0.0714
28475W        W43606   1.424  14.184   3.394  0.1246  0.0657  0.2549
28476W        W43607   1.392   8.054   9.756 -0.0498  0.1541 -0.0149
28477W        W43608  11.933  15.103   0.301 -0.0812 -0.1724 -0.0366
28478W        W43609   1.409   1.115   0.877  0.0751 -0.2891 -0.0916
28479W        W43610  12.501   7.892  11.652 -0.2685  0.0850 -0.1523
28480W        W43611  10.315   9.754  12.964 -0.3508 -0.3320 -0.0269
28481W        W43612  13.512   0.959  10.580 -0.1534 -0.1690 -0.0834
28482W        W43613  13.872   1.894  14.600 -0.0483 -0.0277  0.4833
28483W        W43614   9.136  14.990  11.873  0.2017 -0.1615 -0.0588
28484W        W43615  15.598  11.595   4.796  0.1293 -0.0043 -0.2111
28485W        W43616   4.977   9.140   1.116 -0.1396  0.0650  0.0669
28486W        W43617  12.795  13.435  12.860  0.1558  0.1777  0.1346
28487W        W43618  16.620   5.563   0.988  0.2234  0.2718  0.4452
28488W        W43619   9.357   4.523   0.959  0.0699  0.0012 -0.4186
28489W        W43620  10.774   3.204   1.618 -0.2794  0.2260 -0.3281
28490W        W43621   9.102  17.194   2.760 -0.3733 -0.1976 -0.1244
28491W        W43622   0.835  18.219   5.180  0.1078  0.3222 -0.0230
28492W        W43623   9.554   7.883  13.452 -0.0641  0.0892  0.2505
28493W        W43624   1.847   4.997  10.800 -0.0982 -0.0221  0.2727
28494W        W43625  11.231  10.518   1.242 -0.1497 -0.3571 -0.2030
28495W        W43626   3.017   9.000   2.891 -0.2819 -0.2047 -0.1695
28496W        W43627  16.990   7.206   4.992  0.0610  0.2296  0.1663
28497W        W43628   2.964   2.826   2.965  0.6073  0.1302  0.2233
28498W        W43629   6.800  13.763   3.351 -0.1314 -0.6341  0.1462
28499W        W43630   2.192   8.063   3.720  0.1558  0.1436  0.1956
28500W        W43631   5.590  14.703  13.364 -0.0743  0.1814 -0.1968
28501W        W43632  11.582   9.604   2.557  0.0713  0.1841  0.1945
28502W        W43633   6.912  16.489   0.418  0.3595 -0.0056 -0.0693
28503W        W43634  16.698   5.786   0.557  0.0694  0.0414  0.3217
28504W        W43635   1.461  18.672  12.447  0.0657 -0.2822 -0.1450
28505W        W43636  10.174   5.099   1.213 -0.0812 -0.0991 -0.1518
28506W        W43637   9.000   5.781  11.057  0.1655  0.0558 -0.2360
28507W        W43638   4.974   6.367   2.101 -0.0752 -0.0176 -0.1946
28508W        W43639   9.352   1.827   0.150  0.1931 -0.0178  0.1374
28509W        W43640   2.611   6.773   1.868  0.0791  0.1479 -0.1022
28510W        W43641  11.572  16.998   2.544  0.0214  0.2426 -0.2684
28511W        W43642  10.150   1.182   2.158  0.2278  0.0396 -0.1456
28512W        W43643  13.657  13.279  12.306  0.0299  0.4919 -0.1177
28513W        W43644   9.233  14.471  13.099 -0.0489  0.2300  0.0620
28514W        W43645   0.693   4.492   5.002 -0.3399 -0.0334 -0.2383
28515W        W43646  12.917  10.451   1.211 -0.0151  0.1193 -0.2828
28516W        W43647   5.216  14.565  12.964 -0.2087 -0.3311  0.0300
28517W        W43648   1.368   2.424   3.213  0.0918 -0.0413 -0.0721
28518W        W43649  11.729  14.324  11.015 -0.1602 -0.2388  0.1057
28519W        W43650   7.536   8.045  12.878 -0.1134 -0.3931  0.0594
28520W        W43651   6.982  10.722  13.152  0.2091 -0.1097  0.1463
28521W        W43652   6.113  18.174  11.619 -0.0908  0.0706 -0.0333
28522W        W43653  11.520  16.145   3.985  0.0271 -0.0203 -0.0928
28523W        W43654  15.947   4.192  14.600  0.2815  0.0277 -0.0784
28524W        W43655  12.903  14.385   3.930  0.0625  0.1903  0.1777
28525W        W43656   6.243  17.755  11.179 -0.2643 -0.3044  0.2150
28526W        W43657  12.497   3.765  14.743 -0.0389 -0.0293 -0.0733
28527W        W43658   0.675   4.958  11.569  0.1080  0.1153 -0.0613
28528W        W43659  13.725  15.415  15.514  0.1109  0.3389  0.1922
28529W        W43660  15.995  14.916   4.116 -0.0736  0.4733  0.3422
28530W        W43661  14.654   1.647   5.241 -0.1992  0.0596  0.0169
28531W        W43662  14.640  14.327   2.851 -0.4218 -0.1222  0.1927
28532W        W43663  13.794  15.857   1.721  0.1540  0.2445 -0.1307
28533W        W43664  16.836  17.167  14.470 -0.1554  0.3249 -0.1125
28534W        W43665  13.773  10.688  11.855 -0.1609 -0.0558 -0.1541
28535W        W43666  16.677  15.076   1.857 -0.1698  0.4802 -0.2870
28536W        W43667  15.066  17.427   3.937 -0.1636 -0.0084 -0.1468
28537W        W43668  18.073   9.781  11.357 -0.0186  0.0823  0.3272
28538W        W43669  14.022   0.106   4.659 -0.2343 -0.2382 -0.0168
28539W        W43670   5.661  16.730   2.168 -0.0259 -0.3421 -0.0582
28540W        W43671   2.817  17.409   1.614  0.3126 -0.1730  0.1674
28541W        W43672   7.063  15.040  13.273 -0.4371  0.2605 -0.0506
28542W        W43673   4.083  11.494   5.637  0.1617 -0.2380  0.0924
28543W        W43674  15.547   4.314  13.910 -0.0663  0.4589 -0.0439
28544W        W43675   7.979  15.572  14.510  0.0577  0.0864 -0.3559
28545W        W43676  11.899   6.798   0.069 -0.1077 -0.0378 -0.2577
28546W        W43677   3.081   1.039   2.869  0.0846  0.0029  0.2783
28547W        W43678  17.774  11.604  15.498 -0.2220  0.0114 -0.3028
28548W        W43679  11.451   6.917   0.259  0.2347  0.1679 -0.2594
28549W        W43680  11.071  10.989   0.632  0.2375 -0.2631 -0.1888
28550W        W43681   5.128   6.002  15.112 -0.0202 -0.1359 -0.0679
28551W        W43682   0.126  13.656  11.519  0.0430 -0.0222  0.1928
28552W        W43683   0.339   6.257   3.149  0.3227  0.1198  0.2978
28553W        W43684  15.155   4.375  11.106 -0.2174 -0.0390 -0.0304
28554W        W43685   8.227  10.217  14.964  0.0184 -0.1557 -0.0195
28555W        W43686  13.509   4.654  15.192 -0.0558  0.0776  0.4033
28556W        W43687   6.358   0.635   1.595  0.1139 -0.1935 -0.1972
28557W        W43688   8.508  13.095  11.934 -0.0737 -0.0542  0.3203
28558W        W43689   4.391  11.011   3.294  0.3469  0.0825  0.1059
28559W        W43690   3.448  12.447   2.298 -0.0039 -0.2611  0.1627
28560W        W43691   7.308   1.457  13.112  0.0625 -0.0220  0.0454
28561W        W43692   6.262   2.854   5.491  0.0364  0.2410 -0.1816
28562W        W43693  17.259  12.308   2.302  0.0520 -0.1116 -0.3570
28563W        W43694   3.240  11.036   4.763  0.0004 -0.1760 -0.0527
28564W        W43695  13.983   0.688  12.644  0.2562  0.1567 -0.3623
28565W        W43696   0.687  17.511   3.082 -0.1973 -0.0176 -0.1239
28566W        W43697  15.378   4.508   0.930  0.0925  0.1706  0.0479
28567W        W43698  16.742   9.363   3.663 -0.1655 -0.1525  0.0970
28568W        W43699  11.854  13.194  13.316  0.2233 -0.1360  0.2533
28569W        W43700  13.554   9.644  10.724 -0.1194 -0.1478  0.4054
28570W        W43701  12.123  17.537  10.040  0.0107  0.2486  0.1708
28571W        W43702   8.276  17.894   1.251 -0.0667  0.2371  0.1683
28572W        W43703  16.073   8.043  12.715 -0.1242  0.0644  0.1041
28573W        W43704   8.317  12.695   1.505 -0.2992  0.2667 -0.1745
28574W        W43705   7.166  13.878  10.017  0.2801  0.0812 -0.3806
28575W        W43706   4.018   2.822   6.085  0.0473 -0.0196  0.0159
28576W        W43707  15.163  10.144  10.985  0.0050  0.0008  0.0843
28577W        W43708   9.854  17.074  15.021 -0.2077  0.1788 -0.1105
28578W        W43709  14.208   3.184   2.045 -0.1802 -0.0558 -0.2226
28579W        W43710  16.691   6.154  12.943  0.1341 -0.1587 -0.0872
28580W        W43711   2.608   6.314  14.944  0.0785 -0.1723 -0.4184
28581W        W43712  13.470   6.119  13.452 -0.0435  0.0487 -0.3199
28582W        W43713   6.518  18.009  14.271 -0.1202 -0.1827  0.3283
28583W        W43714   6.626   7.745   1.232 -0.0847  0.3204 -0.0272
28584W        W43715   4.509  16.587  14.302  0.1264  0.3429 -0.2784
28585W        W43716   6.433  17.211  13.722 -0.0800 -0.2910  0.0802
28586W        W43717   2.297   7.397  14.835  0.0156 -0.1488 -0.1581
28587W        W43718  13.945   5.490   1.468  0.0042 -0.0813 -0.0899
28588W        W43719   1.144   3.841   9.738 -0.0559 -0.1981 -0.0394
28589W        W43720  13.405   5.657   3.539 -0.0142 -0.0621 -0.0893
28590W        W43721  14.136   4.058  13.540 -0.2429 -0.4331  0.0037
28591W        W43722   4.306   3.652  14.901  0.0882  0.0697 -0.0319
28592W        W43723   1.341  14.888   0.925 -0.1995  0.2301 -0.2605
28593W        W43724  17.571   9.894   4.629 -0.3105  0.1002  0.0986
28594W        W43725   1.557   2.792   2.869 -0.1465  0.0680 -0.2091
28595W        W43726   6.701   5.817   5.717  0.2376 -0.2365  0.0644
28596W        W43727  16.609  17.073   2.882 -0.4302  0.2812  0.2307
28597W        W43728  16.325   4.371  13.676  0.1029 -0.0102 -0.0800
28598W        W43729  15.633  17.739  10.406  0.1169  0.2306  0.0352
28599W        W43730  18.001   2.328   4.690 -0.1392  0.0619  0.1704
28600W        W43731  16.190   9.924  15.491 -0.1609 -0.0930 -0.1298
28601W        W43732   9.363  11.104  11.682  0.0161  0.5459  0.0576
28602W        W43733   3.406   9.297  12.410 -0.0316 -0.2613  0.0401
28603W        W43734   3.445  10.391  13.489 -0.0064 -0.2412 -0.1143
28604W        W43735  11.012   9.642   4.281  0.0010 -0.2793 -0.1667
28605W        W43736  13.305  14.296  15.102  0.0977 -0.1047  0.2198
28606W        W43737  13.192   9.994  14.315 -0.0870  0.0086  0.0342
28607W        W43738   8.906   7.417   2.711 -0.0979 -0.3565 -0.1750
28608W        W43739   3.004   0.524   5.028  0.2556  0.0297 -0.1087
28609W        W43740  11.093  14.639  10.574  0.1405  0.1586  0.0012
28610W        W43741   2.838  17.204  14.317 -0.0221 -0.1680 -0.2129
28611W        W43742  14.481   5.599  14.764  0.4130  0.0213  0.0382
28612W        W43743   7.618   0.299  13.167  0.2619 -0.0810 -0.1979
28613W        W43744  18.036   7.458   4.498  0.0472  0.1358  0.2130
28614W        W43745  18.466   9.782  15.105 -0.1987 -0.1126  0.2186
28615W        W43746   5.896   3.785   4.965 -0.0033 -0.0576  0.0423
28616W        W43747  10.651  11.876   1.670  0.3242  0.0942  0.3870
28617W        W43748   7.354   0.869  13.799  0.2767 -0.2267  0.1385
28618W        W43749   3.184   6.741  11.234  0.2873  0.0639  0.1608
28619W        W43750  16.818  18.040  11.778 -0.1349 -0.0323 -0.2054
28620W        W43751   5.319   4.413   1.238  0.1457  0.1187 -0.2575
28621W        W43752   6.124  17.262  11.983 -0.3670 -0.0387  0.2914
28622W        W43753  11.509   7.843   1.322  0.1525  0.1101  0.1659
28623W        W43754   9.376  10.260  11.208  0.1654 -0.0297 -0.3083
28624W        W43755   3.438  15.706   5.591 -0.1498 -0.2310  0.1427
28625W        W43756   6.406   5.692  14.964 -0.3039  0.2599 -0.1713
28626W        W43757  16.916  14.777   0.905 -0.3817  0.2049 -0.1078
28627W        W43758   0.366  10.448   2.697  0.2946 -0.1237  0.2450
28628W        W43759  10.100  17.163  10.424 -0.3412 -0.1244 -0.1978
28629W        W43760   7.088   7.681   3.014  0.0477 -0.3521  0.0434
28630W        W43761  12.219   0.223  13.896  0.0728 -0.2666  0.1220
28631W        W43762  17.432  10.977   4.611 -0.0406  0.1607  0.2614
28632W        W43763  12.081   6.436  15.402 -0.0579  0.1880 -0.0270
28633W        W43764   4.811  14.223   3.261 -0.2607  0.3072  0.3525
28634W        W43765  12.913  12.138   0.771  0.0050 -0.0262  0.0516
28635W        W43766   2.398   5.937  15.276  0.0514  0.1019 -0.0480
28636W        W43767   5.174   5.718   4.700  0.3010  0.1876 -0.1996
28637W        W43768  18.718  11.243  10.476  0.1012  0.3403  0.0792
28638W        W43769   8.703   5.284   0.962  0.0532 -0.1077  0.0365
28639W        W43770  16.122   1.796   4.451 -0.2912  0.0198  0.1823
28640W        W43771  14.907  11.395   4.049  0.1152  0.0899 -0.3694
28641W        W43772  15.605   0.715  11.195  0.2072  0.3705  0.3190
28642W        W43773  11.374   9.857   5.181  0.0656  0.0917  0.2112
28643W        W43774   4.291  16.728  15.083  0.0563  0.0715  0.0059
28644W        W43775  10.034  17.692  14.679 -0.1057 -0.3506 -0.0348
28645W        W43776   4.839   8.838   2.966  0.1849 -0.1666  0.0588
28646W        W43777   4.181   0.430  13.873  0.1632  0.3615  0.0749
28647W        W43778  16.536   5.444   1.516 -0.3839  0.0095 -0.1727
28648W        W43779   5.005  13.882   0.161 -0.0277 -0.2003 -0.1176
28649W        W43780  18.572   5.901  15.166 -0.0121 -0.1373  0.0067
28650W        W43781   6.842  14.904  11.036 -0.1957  0.3036  0.5197
28651W        W43782   6.012   6.640  15.137 -0.3281 -0.1559  0.0316
28652W        W43783  16.106  11.208  15.747  0.1447 -0.2408 -0.1031
28653W        W43784   7.105   5.915  10.641 -0.0201 -0.1122 -0.0080
28654W        W43785   9.696  10.406   4.465 -0.1986 -0.2334 -0.1198
28655W        W43786   2.770   3.451   4.515 -0.1112 -0.3850 -0.2185
28656W        W43787   7.820  13.552   3.261 -0.0308 -0.0100  0.3113
28657W        W43788   4.077   2.549   2.301 -0.2395  0.1012  0.2713
28658W        W43789   6.347   0.100  12.036  0.0311  0.1514 -0.4483
28659W        W43790   3.089   7.934   5.647  0.0055  0.1872  0.0415
28660W        W43791  13.645   1.327   0.585 -0.1179 -0.0332  0.1372
28661W        W43792   7.633  17.502  15.196  0.2929  0.1015 -0.2151
28662W        W43793  16.406   3.718  11.344 -0.2437  0.1629 -0.1283
28663W        W43794   4.503  12.825   1.957  0.0793  0.2506  0.1826
28664W        W43795  10.539  15.744   0.140  0.0137 -0.4322  0.3796
28665W        W43796   3.162  14.566   1.185  0.2661  0.0173  0.0623
28666W        W43797   5.211  14.230  12.231 -0.4087 -0.0988  0.1445
28667W        W43798  17.087  18.353  14.747  0.0839 -0.0354  0.0912
28668W        W43799   0.078  16.288   5.192 -0.0190  0.0394  0.0339
28669W        W43800  10.380  18.112   1.085 -0.2996 -0.1112  0.0397
28670W        W43801  15.155  17.230   4.579 -0.0865  0.0846 -0.1864
28671W        W43802  15.040  11.876   4.225 -0.0081 -0.0659  0.3391
28672W        W43803   1.892   3.446  14.390 -0.1122 -0.1496 -0.0307
28673W        W43804   8.239   2.987  13.488  0.0027 -0.0234  0.2035
28674W        W43805  10.409  16.790  13.348  0.2392  0.1195  0.0713
28675W        W43806  15.614  18.705   5.257  0.1907  0.1362  0.3805
28676W        W43807  16.051   2.884  12.333  0.2714 -0.2957 -0.1403
28677W        W43808  17.224  16.321  10.837  0.0826 -0.1086  0.0486
28678W        W43809   7.025   7.535   0.203 -0.2005  0.1203 -0.0462
28679W        W43810   4.948  18.595   3.395 -0.2384 -0.1270  0.3897
28680W        W43811   6.648  15.329   5.438 -0.0545  0.1878  0.4558
28681W        W43812  11.413   1.492  10.825  0.1567  0.1494 -0.0679
28682W        W43813   0.141   6.410  10.614  0.0207 -0.1164 -0.1082
28683W        W43814  10.932   9.889  11.601  0.2416  0.2305  0.1443
28684W        W43815   7.068   9.827   4.436  0.2322  0.0753 -0.0204
28685W        W43816  14.067  10.070  13.435 -0.1332 -0.0411  0.3423
28686W        W43817  12.631   2.283  13.023 -0.0742 -0.1385  0.1583
28687W        W43818   0.833  16.529   2.827  0.0917 -0.4497  0.0167
28688W        W43819   2.563  15.744   2.650  0.6242 -0.0510  0.0624
28689W        W43820  11.388   6.576  12.092 -0.1237 -0.2603  0.0363
28690W        W43821   9.828  17.531  15.220 -0.0944 -0.0528 -0.1210
28691W        W43822   9.342  16.062  14.304  0.0019  0.0129  0.0697
28692W        W43823  17.732  15.186   6.028 -0.0635 -0.0048 -0.2540
28693W        W43824   8.866  16.376   3.301 -0.2813  0.1487  0.0635
28694W        W43825  17.163  11.503   4.502  0.2126 -0.0584 -0.3999
28695W        W43826   1.485   9.013  14.490 -0.1918  0.0942 -0.0426
28696W        W43827  18.660  17.061   2.384  0.0562  0.0281  0.0724
28697W        W43828   4.846   5.473   5.070 -0.3011 -0.1280 -0.0848
28698W        W43829  16.180  11.347  14.432  0.2556 -0.1444  0.1624
28699W        W43830  13.928   4.505   1.624 -0.0408  0.0182 -0.1995
28700W        W43831  10.343   5.474   0.501  0.0117 -0.4999  0.2012
28701W        W43832   1.083   0.973   5.607 -0.0804  0.1505  0.2717
28702W        W43833   2.975  10.596  15.025 -0.1210  0.1367  0.2008
28703W        W43834   3.960   7.885   3.212 -0.5301 -0.4047 -0.1484
28704W        W43835  16.708  11.438   5.713 -0.1793  0.1026 -0.0484
28705W        W43836   0.546  14.747  13.513  0.0343 -0.1849 -0.0203
28706W        W43837   4.420  16.395  12.712 -0.0094 -0.0259  0.1059
28707W        W43838  17.636  10.995  10.425 -0.0893  0.0331 -0.2336
28708W        W43839  16.038   0.706  12.222  0.0312  0.1079  0.1866
28709W        W43840  15.146  10.856   4.448  0.1129 -0.0634  0.0506
28710W        W43841   5.644   6.050  15.212 -0.2077  0.6300  0.2861
28711W        W43842  12.509  13.945   4.307  0.0614  0.1076  0.1501
28712W        W43843  10.723   5.446  13.075  0.3487 -0.5175  0.1443
28713W        W43844   5.884  15.544   5.320 -0.1315 -0.0400  0.0449
28714W        W43845   1.664   2.474  13.768  0.0714  0.1927  0.0412
28715W        W43846  13.557   3.333  14.494  0.1672  0.0803 -0.3591
28716W        W43847  18.103   1.392   5.714  0.1116  0.2086 -0.0466
28717W        W43848   1.466  12.876  15.290 -0.1553 -0.3161 -0.0521
28718W        W43849  10.011   1.611  13.757 -0.0199 -0.2734 -0.2253
28719W        W43850   2.963  14.964   4.561  0.0570  0.1876 -0.0427
28720W        W43851  12.970   1.667  10.546  0.0892  0.2528 -0.1884
28721W        W43852   7.333   3.662  14.268 -0.1970 -0.0959  0.2796
28722W        W43853  13.237   4.692  10.414  0.2360 -0.0649 -0.0048
28723W        W43854   3.026   2.369  13.210 -0.2624 -0.1966 -0.0063
28724W        W43855  15.067  14.920   5.875 -0.1202  0.1474  0.0210
28725W        W43856  15.224   2.255  14.206 -0.2397  0.2124 -0.1347
28726W        W43857   0.316   2.076   2.655  0.1716  0.4897 -0.0959
28727W        W43858   4.601   5.372  15.792 -0.2639  0.1011 -0.0444
28728W        W43859   2.612   8.469  14.225 -0.1870  0.4650 -0.0876
28729W        W43860   8.762   8.051  13.264  0.0142 -0.0204  0.1367
28730W        W43861  14.273  18.540   4.280  0.1499  0.0800  0.2512
28731W        W43862   5.088   2.262  12.345  0.3605 -0.0116  0.0575
28732W        W43863  11.674   5.806  14.377 -0.0701  0.2107 -0.0292
28733W        W43864   0.410  18.464  12.000  0.1202  0.3411 -0.5768
28734W        W43865   9.412   6.008   4.064 -0.1119 -0.1454 -0.1651
28735W        W43866  16.782   2.580  13.331  0.1031 -0.0330 -0.2667
28736W        W43867   3.841  11.280   1.666 -0.2966 -0.2009  0.4250
28737W        W43868  14.611   1.705  12.168  0.1071 -0.2705 -0.2428
28738W        W43869  16.868  16.619   2.803 -0.1040 -0.0055 -0.0333
28739W        W43870  12.973  18.315  15.471 -0.1203  0.1644  0.2449
28740W        W43871  15.037  17.952   3.907  0.2114 -0.1304 -0.2871
28741W        W43872   1.010   5.616   4.793  0.0211  0.1922 -0.1183
28742W        W43873   3.596  12.458   0.947  0.1788 -0.2418 -0.1639
28743W        W43874  15.593  12.386   0.949 -0.2390 -0.1000  0.3208
28744W        W43875   3.669   5.573   3.663 -0.0258  0.0915 -0.2623
28745W        W43876  16.482  10.704  11.072  0.2576 -0.1428  0.0329
28746W        W43877   2.809  13.742  15.478 -0.1822 -0.0267  0.1353
28747W        W43878   9.883  16.496   0.424  0.2456  0.0517 -0.3631
28748W        W43879  17.463  16.507   1.605 -0.0358 -0.2587  0.0920
28749W        W43880   4.656  16.851   4.114  0.2891 -0.2790  0.4176
28750W        W43881  11.066  16.136  10.558 -0.2514  0.1087  0.3096
28751W        W43882   4.872  13.349  13.893 -0.2658 -0.0616 -0.0563
28752W        W43883   9.588  12.844   4.952  0.3256  0.0929 -0.1242
28753W        W43884   8.045   9.012   4.677 -0.0299 -0.0821 -0.2527
28754W        W43885   9.095  14.092  13.431  0.1707  0.2352 -0.1134
28755W        W43886  15.661  17.485   0.233 -0.1582  0.0261 -0.1360
28756W        W43887   1.863  17.037   3.031 -0.0433 -0.2062  0.2856
28757W        W43888   3.196  12.011   5.686 -0.0001  0.3065 -0.0561
28758W        W43889   4.188   4.150  13.353 -0.1942 -0.0601  0.1130
28759W        W43890  11.623   3.048  12.266 -0.2568  0.1012 -0.2159
28760W        W43891   5.799  16.033   4.828 -0.4345  0.4622  0.0809
28761W        W43892   9.184  15.915  11.935  0.2184  0.3190  0.2871
28762W        W43893  11.808   8.695  10.797 -0.0798 -0.0651  0.0760
28763W        W43894   9.427   6.583   4.808  0.0314  0.1858  0.0416
28764W        W43895  15.060   2.426  12.753  0.3953 -0.2585  0.0796
28765W        W43896  10.643  17.691  13.855 -0.5238 -0.1106  0.1523
28766W        W43897   4.367   2.690  13.342  0.2540  0.1555 -0.0006
28767W        W43898  12.822   4.974   3.926 -0.3186 -0.0782 -0.1857
28768W        W43899   7.975  13.395   1.750 -0.3419 -0.1643 -0.2448
28769W        W43900   6.130  18.373  12.103  0.0683  0.0091 -0.1754
28770W        W43901   8.427   5.227   0.493  0.2528  0.1274 -0.2252
28771W        W43902   4.482  11.519   3.062  0.0921 -0.0423 -0.1690
28772W        W43903   9.460   9.306   3.180 -0.0385  0.0336 -0.2928
28773W        W43904   1.621  11.924   4.169  0.0600 -0.1805 -0.0081
28774W        W43905  14.372  12.672  13.902  0.1046  0.4654 -0.1544
28775W        W43906  12.918   3.681  13.269 -0.1047  0.0699 -0.0704
28776W        W43907   2.036   5.992  11.216 -0.0484 -0.0165 -0.1635
28777W        W43908   0.960   1.119   0.703 -0.0297 -0.0332  0.0478
28778W        W43909   3.449  11.171  12.419  0.2366 -0.4105 -0.2564
28779W        W43910  13.871  13.121  14.906  0.2997 -0.0340  0.2440
28780W        W43911  11.918   6.891   4.792  0.0497  0.0900  0.1111
28781W        W43912   8.106   5.881  15.587  0.2664 -0.3297 -0.0832
28782W        W43913   5.289  11.270   1.519 -0.1244  0.5335  0.1404
28783W        W43914  15.979  11.276   3.601  0.4100 -0.1069 -0.1188
28784W        W43915   7.086  12.626   4.017 -0.2015 -0.0978  0.0268
28785W        W43916  14.328  12.092  12.901  0.2695 -0.0558  0.4236
28786W        W43917  13.421   9.055   4.053 -0.1711 -0.2654 -0.0751
28787W        W43918   7.454  14.040  15.708  0.1380 -0.0402 -0.0023
28788W        W43919   6.558   4.198  14.921  0.1112  0.1301 -0.1331
28789W        W43920   3.893  12.454   1.399  0.1098 -0.1114  0.0588
28790W        W43921  15.567   3.421   0.607 -0.3088 -0.1563 -0.0524
28791W        W43922   9.316   8.717  11.303 -0.1019  0.0289  0.1588
28792W        W43923   8.693  17.908  11.870 -0.2182 -0.0784 -0.2136
28793W        W43924  10.127   0.747  13.322  0.0348 -0.0700 -0.0088
28794W        W43925  18.521   6.280   1.197 -0.3696 -0.2255 -0.1563
28795W        W43926   5.763   5.161   1.793 -0.0433 -0.0040 -0.0566
28796W        W43927  16.789   4.516  12.459  0.1289  0.1745  0.6551
28797W        W43928  10.190   0.804   4.702 -0.0410  0.4747 -0.3099
28798W        W43929  16.534  14.270   4.492  0.2189 -0.1585  0.4302
28799W        W43930   6.614   6.450   3.121 -0.0265 -0.2003 -0.3349
28800W        W43931   3.472  16.659  12.646 -0.1810  0.0163  0.2365
28801W        W43932   9.626  14.733  10.778  0.1243  0.0705 -0.1052
28802W        W43933   7.523  18.711   1.403  0.0224  0.2672  0.1988
28803W        W43934  12.561   2.268  11.215  0.2278  0.0095 -0.0422
28804W        W43935  18.048   2.929   2.422 -0.2156 -0.3952  0.0289
28805W        W43936   7.261   5.334   3.219 -0.2693  0.0109 -0.1915
28806W        W43937   7.349  17.768   5.968  0.1055  0.0886  0.1412
28807W        W43938   7.087   8.190  11.230 -0.2561 -0.0554 -0.3423
28808W        W43939  12.849   0.816   0.209  0.0010  0.5466 -0.1027
28809W        W43940   6.422   4.206  11.777  0.2283 -0.1615  0.2037
28810W        W43941   1.863   5.953   0.261 -0.0360  0.0784 -0.1175
28811W        W43942  14.073   9.561   0.298  0.1949  0.3089  0.0248
28812W        W43943   0.646   6.879  11.467 -0.0392  0.0941  0.1617
28813W        W43944   7.041  16.133  14.849  0.0926 -0.1520  0.0761
28814W        W43945   0.538   9.235   2.375 -0.2141  0.3710  0.0427
28815W        W43946   8.286  18.223   3.050  0.3904 -0.0500  0.3434
28816W        W43947  15.652  18.485   0.638 -0.1941  0.0666  0.1563
28817W        W43948   6.051  12.396   0.715  0.1330 -0.1053 -0.0221
28818W        W43949   2.870   1.880  13.263  0.1632  0.0791  0.1145
28819W        W43950  14.086  10.144  12.939 -0.1512 -0.1319 -0.0709
28820W        W43951   8.279   2.078   3.693 -0.0714 -0.0762 -0.0681
28821W        W43952   1.952  13.144   3.994 -0.1325  0.1669 -0.0036
28822W        W43953  15.545   1.337   0.308 -0.0528  0.3126 -0.2916
28823W        W43954   6.241   4.721   2.085 -0.2484 -0.0818 -0.4925
28824W        W43955  14.397  11.759  11.798 -0.0470  0.0429 -0.2979
28825W        W43956  13.891   7.109   5.607 -0.2834  0.0592 -0.0688
28826W        W43957   2.855  12.218   4.720  0.1762 -0.2133  0.2345
28827W        W43958   9.187  14.859   3.614 -0.3385 -0.1438  0.1653
28828W        W43959  12.082   5.901  11.553  0.1861 -0.2412  0.5060
28829W        W43960   9.856  13.149  15.205 -0.0283 -0.0771  0.1443
28830W        W43961   3.563  15.310   3.456  0.3304  0.1408  0.1748
28831W        W43962   9.487   9.921   9.928  0.2128 -0.2602 -0.1390
28832W        W43963  15.013  10.113  11.925  0.2245 -0.1616  0.0520
28833W        W43964   0.363  12.160  14.364  0.0921  0.2343  0.0456
28834W        W43965  17.060  16.630  12.247 -0.0997  0.1102 -0.0394
28835W        W43966   2.312  11.883  12.746  0.2223 -0.2796 -0.3769
28836W        W43967  13.360   7.219   3.831  0.2598  0.1297  0.0885
28837W        W43968   4.840  14.149   5.204  0.1993 -0.0849  0.0441
28838W        W43969   3.938   8.331   1.987  0.4198  0.0572 -0.4195
28839W        W43970   0.869   0.617  11.669  0.0211 -0.3011 -0.0199
28840W        W43971   0.259   1.384  11.330 -0.0570 -0.2786 -0.0665
28841W        W43972   3.135  15.487   3.259  0.1084 -0.3599 -0.0660
28842W        W43973   9.464   9.091   1.858 -0.0531  0.2069  0.0828
28843W        W43974   2.826  13.026  13.184 -0.0439  0.1103 -0.0150
28844W        W43975   5.200   2.370  14.419  0.1131 -0.0566  0.3490
28845W        W43976  13.694   7.200  11.382  0.2274 -0.0867  0.0227
28846W        W43977   2.563   6.242   3.479  0.0648  0.3601 -0.0377
28847W        W43978   1.837   3.261   1.115 -0.2497  0.1970  0.0967
28848W        W43979   8.917  12.731   0.942 -0.1436  0.1109  0.0230
28849W        W43980   7.811   1.676  10.429  0.1786  0.1822  0.2690
28850W        W43981   3.711  18.350   3.610 -0.2052 -0.0331 -0.1626
28851W        W43982   4.733   2.759  14.452  0.1945  0.0235  0.1586
28852W        W43983   2.753  11.174   0.628 -0.0978  0.0500 -0.0467
28853W        W43984  15.557   7.896   2.891 -0.0122 -0.3015 -0.2770
28854W        W43985   4.325   5.179   1.752 -0.1536  0.1920  0.3637
28855W        W43986   6.590   6.935  15.797 -0.2443  0.3135 -0.3884
28856W        W43987   5.460   5.653   0.520 -0.2477 -0.1064 -0.1266
28857W        W43988   0.374   4.448   2.096 -0.2442  0.2305  0.0124
28858W        W43989  12.472   0.887   5.451  0.1720  0.1291  0.0186
28859W        W43990   4.506   2.366   0.402  0.0962  0.1739  0.0469
28860W        W43991  14.037   2.466  11.649  0.1375 -0.0626  0.0923
28861W        W43992  14.994  11.477  14.981 -0.1220 -0.1289  0.1233
28862W        W43993   4.348   6.705   6.038 -0.0718  0.2016  0.2815
28863W        W43994   5.808   2.878   4.989  0.0275 -0.3293 -0.1875
28864W        W43995  18.006  15.268  12.948 -0.3780 -0.2960  0.0215
28865W        W43996   9.981  15.905  14.199 -0.0410  0.3094 -0.1031
28866W        W43997   9.606   8.391  10.494  0.1545 -0.1796 -0.0247
28867W        W43998   5.798  18.532   4.284  0.1442  0.3729  0.0665
28868W        W43999   1.399   9.859  15.211  0.2040 -0.2382 -0.0598
28869W        W44000   8.358  10.423   2.955 -0.2398  0.2185  0.0301
28870W        W44001   3.090   8.020  14.286  0.0118 -0.3143  0.0547
28871W        W44002  17.146  16.871  15.538  0.0444 -0.0960  0.1388
28872W        W44003   3.059   3.870   3.215  0.0042  0.0075  0.0062
28873W        W44004  13.891   1.353  12.667 -0.2428 -0.0301  0.2946
28874W        W44005   7.637   6.564   1.596  0.1058  0.0773 -0.3336
28875W        W44006   5.018  12.926   3.480 -0.1843 -0.1882  0.2652
28876W        W44007   9.322   4.589  13.554 -0.2383 -0.2843  0.1890
28877W        W44008   0.377   9.845   3.658  0.1107  0.1350 -0.1753
28878W        W44009   6.077   5.497  13.629 -0.1138  0.2783 -0.0250
28879W        W44010   9.811   8.791   4.239  0.0333  0.2147 -0.1446
28880W        W44011  16.737   3.620  13.881  0.0381 -0.0344  0.1678
28881W        W44012  17.363  15.327   4.446 -0.2768  0.0943  0.2209
28882W        W44013   2.697   0.631   5.805  0.1905 -0.1486  0.0066
28883W        W44014   9.141   4.959  11.100  0.1052 -0.1686 -0.3164
28884W        W44015   7.655  11.484  12.391 -0.1708  0.1351  0.1050
28885W        W44016  15.790  14.938   0.926 -0.2968 -0.0307 -0.0020
28886W        W44017   0.675   9.746   4.119 -0.0626  0.0569  0.1209
28887W        W44018   1.044  18.118   0.641  0.0116 -0.2551 -0.2589
28888W        W44019   7.921  17.223   3.697  0.0283 -0.0536 -0.2096
28889W        W44020   4.035   0.162   5.346  0.0050  0.0711  0.0212
28890W        W44021  10.604   8.390   2.878 -0.1244 -0.0893 -0.0540
28891W        W44022  10.180  14.035  11.331 -0.0300 -0.2477 -0.1040
28892W        W44023  11.056   2.074   5.263  0.1469  0.5344 -0.1086
28893W        W44024   2.704  11.667   2.393  0.3406 -0.1672 -0.2719
28894W        W44025   5.873   3.292   4.577  0.1757 -0.0766  0.2199
28895W        W44026   7.093   8.136   5.730 -0.0402  0.1007  0.1411
28896W        W44027   9.916   1.372  14.488  0.0925  0.0984 -0.0596
28897W        W44028   7.563  11.512   2.475  0.0270 -0.0220 -0.0893
28898W        W44029  17.010   2.841   2.572  0.1084 -0.6074  0.1516
28899W        W44030   1.440  14.966  13.343 -0.1757 -0.0193 -0.0773
28900W        W44031  10.725  14.928  15.356  0.1860 -0.1106 -0.3214
28901W        W44032   2.515  10.302   1.943  0.2033 -0.1089 -0.1436
28902W        W44033   8.915   9.041  14.442 -0.0312 -0.0236  0.3359
28903W        W44034  18.094   7.867  15.517  0.0263  0.0188 -0.2193
28904W        W44035   0.821   8.264  11.745 -0.2664  0.2654 -0.3741
28905W        W44036  14.096   8.671   3.384  0.2375  0.1992 -0.1161
28906W        W44037   8.931   6.693   4.735  0.0716  0.0159  0.4286
28907W        W44038  15.126   5.509  13.101  0.0895 -0.1103 -0.0736
28908W        W44039  18.699  14.949  13.748 -0.1614 -0.0985  0.1047
28909W        W44040   5.867  12.399  15.722  0.1424 -0.3657  0.1695
28910W        W44041   8.984   9.095   3.319 -0.3725  0.1302  0.1145
28911W        W44042  18.414   2.570  10.662  0.1493  0.1849  0.3430
28912W        W44043   6.909   5.816  12.650  0.0027 -0.1435  0.1463
28913W        W44044   2.181   6.105  14.787  0.1792 -0.0823  0.0326
28914W        W44045   8.868  14.088  15.446  0.0552 -0.3065 -0.1074
28915W        W44046   3.472   7.956   4.475 -0.0482  0.1124 -0.0055
28916W        W44047   4.446   7.760  10.648 -0.0162  0.2222 -0.1003
28917W        W44048  13.627   5.750   0.096 -0.0823 -0.0607 -0.3474
28918W        W44049   9.831   0.900  14.363  0.0454 -0.0731  0.0763
28919W        W44050   2.486  16.628   4.040  0.0804 -0.1655 -0.1399
28920W        W44051   2.826   1.287   4.932  0.3956 -0.0737 -0.0596
28921W        W44052  18.317   6.536   2.294 -0.0708  0.0546  0.0415
28922W        W44053  11.217   5.127  15.384  0.3275  0.1750 -0.0037
28923W        W44054  18.340  12.596  13.554 -0.1451 -0.0093  0.1605
28924W        W44055   0.663  10.101  12.427  0.1107 -0.1860 -0.2297
28925W        W44056  13.769   8.604   3.825 -0.2640  0.1975  0.0080
28926W        W44057  13.918   6.815  13.968  0.0393  0.3233 -0.0099
28927W        W44058   0.961  15.548   2.394  0.0948 -0.1063  0.1887
28928W        W44059   5.342  16.892   1.843  0.1390  0.1056  0.0193
28929W        W44060   9.573  12.275  12.993  0.0151 -0.1561  0.0950
28930W        W44061   1.375   8.661   1.343  0.2058 -0.1539 -0.1706
28931W        W44062   9.093  15.258   5.315  0.0321 -0.0761  0.0279
28932W        W44063   8.674  11.230   1.192  0.0985  0.0554  0.0374
28933W        W44064   8.950   3.788   0.431 -0.3530 -0.2569  0.2251
28934W        W44065   9.084  14.326   1.196  0.1691  0.1877 -0.1579
28935W        W44066   1.065  13.989  14.459  0.0748 -0.1606  0.1667
28936W        W44067   5.262  16.430   4.259  0.0568  0.0639 -0.3152
28937W        W44068  10.958   5.346   3.054 -0.1123  0.0391  0.1782
28938W        W44069  12.407   6.378  15.745  0.0608 -0.1345  0.0137
28939W        W44070   1.704  12.282   4.454 -0.0773 -0.1909 -0.0577
28940W        W44071  14.503   5.697   5.683 -0.0713  0.3839 -0.0196
28941W        W44072  14.977  14.049   2.462 -0.0409 -0.1057 -0.0038
28942W        W44073  16.306  18.268  11.892  0.2894  0.1415 -0.1375
28943W        W44074  12.453  13.243   0.073  0.1715  0.0649  0.2991
28944W        W44075  15.848  13.257   1.677 -0.1444 -0.1745 -0.0884
28945W        W44076  15.808   4.602   0.034  0.0857 -0.1686  0.3346
28946W        W44077  13.171  16.361   5.361 -0.2501  0.1826 -0.0880
28947W        W44078  15.463  18.573   1.923 -0.3983 -0.1923 -0.1016
28948W        W44079  10.293  10.184  13.890  0.1107  0.1184  0.0856
28949W        W44080  14.379   1.167   4.355 -0.2969 -0.0851  0.3644
28950W        W44081  17.359   3.413   0.260  0.0511  0.4056 -0.0651
28951W        W44082  10.132   2.557   3.061 -0.3276  0.1685 -0.2403
28952W        W44083   4.453   0.561  14.800  0.0412  0.2136 -0.3830
28953W        W44084  15.880   0.689   2.256  0.0657  0.2041 -0.3376
28954W        W44085  17.588   3.819   5.088  0.2082 -0.0264  0.0213
28955W        W44086   9.778  16.986   3.365 -0.2404  0.2846 -0.0093
28956W        W44087   4.399  15.879   3.021  0.1449  0.2009  0.2873
28957W        W44088   4.121   5.401   3.728 -0.6043  0.1681  0.1212
28958W        W44089   8.605   2.772  13.868  0.1317 -0.1469 -0.0579
28959W        W44090   1.848  11.153  14.645 -0.1167  0.0480 -0.1536
28960W        W44091  14.373   9.825  12.601 -0.5929  0.0531 -0.1849
28961W        W44092   3.478  14.067  10.434  0.1116 -0.0659 -0.1022
28962W        W44093   0.445   0.644   5.080  0.2156  0.1455  0.2696
28963W        W44094   6.708   8.952   2.913 -0.1079 -0.1095 -0.0198
28964W        W44095   2.499  10.737   2.777  0.0806 -0.0486 -0.0940
28965W        W44096   3.455   3.441   2.617 -0.2036  0.0483  0.2590
28966W        W44097   7.272   2.911   0.133  0.3232 -0.0231 -0.2188
28967W        W44098  16.976  15.961  13.662  0.0640 -0.3267  0.1045
28968W        W44099  16.369   7.794   4.180  0.2642 -0.3278 -0.0948
28969W        W44100   0.666  14.695   4.530 -0.2897  0.0120 -0.3027
28970W        W44101   2.491  13.029  10.893 -0.2847  0.1229  0.2624
28971W        W44102  14.320  12.410   0.968  0.1843  0.1482 -0.1686
28972W        W44103   5.621  14.539  14.018 -0.0601  0.1320  0.1415
28973W        W44104  18.517   5.015  10.732 -0.6465 -0.0362 -0.2382
28974W        W44105  11.077  14.612   4.266  0.7204  0.1669  0.1455
28975W        W44106  10.577  12.146   1.262 -0.0497 -0.0597  0.3727
28976W        W44107  16.386  11.931   0.980  0.0718  0.0418  0.0273
28977W        W44108  15.957   0.814   5.689  0.0308 -0.4450 -0.2669
28978W        W44109   3.380   3.130   3.018  0.1821  0.0086  0.2553
28979W        W44110   9.082  12.731   3.791 -0.4159 -0.0049 -0.1096
28980W        W44111   1.515   3.505   4.890  0.3684 -0.1016 -0.0214
28981W        W44112   3.151  18.545   2.195  0.3025  0.0939  0.1257
28982W        W44113  15.038  14.281   5.392 -0.0477  0.1272  0.1155
28983W        W44114   1.566  16.651   1.640  0.3888 -0.2814 -0.1040
28984W        W44115   2.888  15.752  15.621  0.0281 -0.0930 -0.2931
28985W        W44116   6.647  16.299   1.395 -0.3471  0.0620 -0.1053
28986W        W44117   6.227  11.684  13.812  0.0231 -0.0042  0.4285
28987W        W44118  15.256  10.648  12.303  0.0988  0.3236  0.0018
28988W        W44119  13.684  16.933   5.216  0.1084  0.2322 -0.0293
28989W        W44120   0.917  18.169   2.213 -0.1445 -0.2003  0.2548
28990W        W44121   7.852   0.838  10.600 -0.1676 -0.0213  0.1458
28991W        W44122   1.549   8.055  15.108  0.0045  0.0376  0.3995
28992W        W44123  14.481   4.452  15.074  0.1782 -0.3162  0.3647
28993W        W44124   8.254   3.012   5.697 -0.0663  0.0403 -0.1168
28994W        W44125   0.452  12.930   5.078 -0.0844 -0.3662 -0.0435
28995W        W44126   5.393   4.972   1.497  0.2155 -0.1345  0.1051
28996W        W44127   3.194  11.787   4.950 -0.1001  0.4523 -0.0412
28997W        W44128   8.434  14.091   2.832  0.1049 -0.0677 -0.1359
28998W        W44129  11.210   4.413   2.892  0.0294  0.1735  0.2875
28999W        W44130  12.945   7.370   1.072  0.0038 -0.3961  0.0421
29000W        W44131   7.427   7.462  14.108 -0.2986  0.3068  0.0914
29001W        W44132  10.255   4.955  15.703  0.0380 -0.4784 -0.1832
29002W        W44133   6.987   6.589  15.462  0.1350  0.3342  0.1843
29003W        W44134  15.531   7.249   4.579  0.3426 -0.0794  0.2020
29004W        W44135   7.057  10.331  14.758 -0.2230 -0.0948 -0.3515
29005W        W44136   4.845   4.890   5.776 -0.1059  0.0953  0.7246
29006W        W44137  12.778   1.899   4.454 -0.0745  0.0718  0.0471
29007W        W44138   2.770  10.794  13.113  0.3646 -0.0196  0.0345
29008W        W44139   5.794  16.687   5.570  0.0189  0.1431  0.0929
29009W        W44140  12.133   0.328   1.017 -0.1243 -0.2074  0.1175
29010W        W44141   3.417   6.024  12.149  0.1036  0.0322 -0.1428
29011W        W44142   9.554   5.851  14.152  0.0840 -0.1425  0.1134
29012W        W44143  14.122  12.146   2.839  0.0097 -0.0798  0.2614
29013W        W44144   1.128  14.583   1.388  0.1473  0.2841 -0.5776
29014W        W44145  12.820  15.981   0.457  0.1813  0.2547  0.2189
29015W        W44146  18.548   3.995   3.821  0.0781 -0.2296  0.1721
29016W        W44147   5.688   4.214  15.105  0.0857  0.2952  0.1439
29017W        W44148  12.320   2.364   3.250  0.1383  0.2858  0.0129
29018W        W44149   4.581  10.878  10.641 -0.1109  0.4432  0.0235
29019W        W44150   2.035   5.130   1.806  0.0880  0.1338 -0.1507
29020W        W44151   7.250   5.058   3.674 -0.0567  0.2266  0.0459
29021W        W44152   3.059  13.328  15.541 -0.0964  0.0104 -0.3553
29022W        W44153  11.981   6.714  14.559 -0.0553  0.1641  0.3087
29023W        W44154   7.274   1.963   4.726  0.2385 -0.0895  0.0391
29024W        W44155  17.562  12.336   1.383 -0.0396 -0.4209 -0.0212
29025W        W44156   7.609  13.694  11.535  0.1684 -0.0982  0.1729
29026W        W44157  17.201   6.076   0.456 -0.1894  0.2381 -0.3410
29027W        W44158  15.439  15.206  15.491 -0.1297 -0.1233 -0.0823
29028W        W44159  12.202   2.462   0.650  0.1286 -0.1275 -0.0708
29029W        W44160  14.914  12.418   3.881  0.2953 -0.3035  0.2066
29030W        W44161  14.967  15.038   2.721 -0.1189  0.1055 -0.2895
29031W        W44162   7.874   2.076   0.220  0.1624 -0.0765 -0.0575
29032W        W44163   2.401   5.233   2.555  0.1214 -0.1357 -0.2873
29033W        W44164  13.640  14.524  14.768  0.0443  0.0080 -0.2287
29034W        W44165   4.189   0.742   0.972 -0.0323  0.1288 -0.0603
29035W        W44166   0.179   9.073   2.051  0.3232 -0.1791  0.2709
29036W        W44167   1.608  16.946   5.631  0.0132  0.0503 -0.3577
29037W        W44168  18.719  15.343   3.210  0.1138  0.0452  0.2530
29038W        W44169   7.930  10.810  15.659 -0.1761  0.4680  0.2552
29039W        W44170  14.481  13.360   3.066 -0.0933  0.4081 -0.0907
29040W        W44171   9.314  16.127   4.537 -0.0560  0.0157  0.0017
29041W        W44172   7.756   6.975   3.356  0.4531  0.1525  0.1056
29042W        W44173  12.555  17.412   4.064  0.4446 -0.1530 -0.0519
29043W        W44174   7.889   4.409  10.837 -0.3508 -0.0421  0.0457
29044W        W44175   8.882  13.249  14.657  0.0499 -0.2865 -0.0040
29045W        W44176  10.551  14.396   2.568 -0.1491  0.1393  0.1441
29046W        W44177  12.111   2.213   3.687  0.2137  0.0347  0.1658
29047W        W44178  15.938   5.164  13.168  0.0250  0.2010  0.0491
29048W        W44179  17.999   5.740  12.537  0.2969 -0.0343 -0.0009
29049W        W44180  17.073  15.548   4.797  0.1650 -0.0594  0.0088
29050W        W44181  14.888  17.572   1.313 -0.5098  0.1435 -0.2926
29051W        W44182  13.542  11.543  11.888 -0.0428 -0.0399 -0.0762
29052W        W44183   3.572   5.878  11.701  0.1560  0.3197  0.1845
29053W        W44184  16.058   3.392   2.599  0.0803  0.3621 -0.2192
29054W        W44185  11.354   7.445   0.977 -0.3657  0.0713 -0.1274
29055W        W44186  13.043  13.171   1.664 -0.1428 -0.2628 -0.0168
29056W        W44187   2.913   6.345   4.382 -0.1087 -0.1014  0.0063
29057W        W44188   7.741  11.630  10.396  0.1531 -0.1244 -0.3638
29058W        W44189  14.652  15.218  15.529  0.2268  0.0427  0.0982
29059W        W44190   4.998  10.459  12.354 -0.0511  0.4130 -0.0103
29060W        W44191   2.343  12.566   0.615 -0.0640 -0.0987  0.2228
29061W        W44192   3.358   4.587   3.973  0.3353 -0.0386  0.1296
29062W        W44193   8.518  11.636  11.127  0.0676  0.0713  0.0314
29063W        W44194  11.809   8.389   2.519  0.1074 -0.1748 -0.3046
29064W        W44195   1.813  17.571   5.021 -0.0385 -0.1660  0.0197
29065W        W44196  11.991   4.873   2.878 -0.0291  0.0082 -0.1668
29066W        W44197  11.937  15.295  10.578 -0.0817 -0.3423 -0.2588
29067W        W44198  14.117   0.636  10.650  0.1932 -0.0705 -0.3224
29068W        W44199  12.949   6.697   3.022  0.5057 -0.0784  0.2451
29069W        W44200   7.474   7.380  11.160 -0.2580  0.0537 -0.0768
29070W        W44201  12.177   4.734  13.788 -0.2294  0.0321 -0.3832
29071W        W44202  16.578  17.252   4.434 -0.0295  0.1295  0.0216
29072W        W44203   6.132   3.577  13.435 -0.2889 -0.1697 -0.3341
29073W        W44204   2.414   0.745   0.805 -0.2211  0.0599  0.2689
29074W        W44205   8.400   7.086   9.921 -0.0944 -0.0668  0.2904
29075W        W44206   8.491   3.529  15.389  0.2253 -0.0742 -0.1087
29076W        W44207   3.990   4.293   5.398 -0.0954 -0.2078 -0.1307
29077W        W44208   0.662   8.690  15.781 -0.1449 -0.1966  0.0793
29078W        W44209  16.396  17.026  10.380  0.1362 -0.0351  0.1202
29079W        W44210  14.752   2.863  12.662 -0.0245  0.0741 -0.0122
29080W        W44211   8.105   5.248   2.771  0.2527  0.0570 -0.0661
29081W        W44212  17.653  16.215  15.772  0.0918  0.1753  0.0761
29082W        W44213  11.319   2.381   0.093  0.1947  0.0725 -0.0716
29083W        W44214   0.107  15.535  11.701 -0.4042  0.2504  0.1488
29084W        W44215   6.128  12.836  12.745  0.1268 -0.0636  0.1737
29085W        W44216   1.745  15.997  11.425 -0.4106  0.0064 -0.0024
29086W        W44217   8.744  15.633  13.265  0.1823  0.0227  0.3475
29087W        W44218  14.107  11.635  12.252  0.2559 -0.0401  0.0285
29088W        W44219  13.937  12.744   9.778  0.1199 -0.0195  0.2663
29089W        W44220   0.646  18.621   4.833 -0.1249  0.2011  0.1963
29090W        W44221  17.672   8.229  14.666  0.0710 -0.1935 -0.0465
29091W        W44222   3.025  15.710  11.751 -0.3169 -0.2658  0.0642
29092W        W44223  10.600   4.497   3.514  0.1038 -0.0544  0.0188
29093W        W44224   8.307   9.525  12.826  0.0379 -0.0737 -0.0128
29094W        W44225   0.242  15.222   0.520 -0.1280 -0.2159 -0.0803
29095W        W44226  13.202   1.971   2.864  0.0844 -0.1880 -0.0091
29096W        W44227  13.508   4.947   2.956 -0.1159  0.2671 -0.1224
29097W        W44228  15.932  15.549   0.307  0.1736  0.1423  0.1087
29098W        W44229   3.764   8.174   0.284 -0.2124 -0.0418  0.2643
29099W        W44230  16.740  13.751  11.861 -0.2094 -0.4255  0.3753
29100W        W44231   5.951   3.825   0.847 -0.2850  0.2547  0.0442
29101W        W44232   9.723   2.522  12.273  0.1956 -0.1818 -0.4381
29102W        W44233   7.222  11.326   0.176 -0.1614 -0.3582 -0.0547
29103W        W44234   3.889   1.959   4.482 -0.2845 -0.2250 -0.0950
29104W        W44235   0.896  16.478  11.031  0.1691  0.1450 -0.0236
29105W        W44236  10.864  11.262   4.280 -0.3488  0.1525  0.3290
29106W        W44237  14.508  18.170  14.327 -0.6474 -0.0316  0.1429
29107W        W44238  17.735  15.067   0.042 -0.0489  0.1628 -0.0549
29108W        W44239  11.964   3.454  10.464  0.1284  0.0979  0.0568
29109W        W44240  17.991  17.045   0.116 -0.3960  0.1589 -0.4053
29110W        W44241   6.728   1.703   5.253 -0.1230  0.0335  0.0247
29111W        W44242   4.664   9.898  14.941  0.1560 -0.1233  0.0114
29112W        W44243  17.839   1.016  13.473  0.0398  0.0319 -0.2049
29113W        W44244  10.706   5.935  12.973 -0.1795  0.1667 -0.0113
29114W        W44245   3.632   6.432  14.048 -0.0075  0.4304 -0.1455
29115W        W44246   3.172  11.602  15.611  0.0184 -0.0470  0.1840
29116W        W44247   5.394  11.647  14.302 -0.2194  0.2287  0.0677
29117W        W44248   0.733  15.484   4.205 -0.1171 -0.0442  0.2353
29118W        W44249   1.500  13.363   4.504  0.0708 -0.0086 -0.3745
29119W        W44250  10.984   9.435  13.827  0.1221  0.1747 -0.1812
29120W        W44251   2.224   7.327   5.740 -0.2339 -0.0561  0.1976
29121W        W44252   9.611   7.400   0.611  0.3460 -0.2324  0.2381
29122W        W44253   9.941   7.019   4.435  0.1036 -0.0446  0.2281
29123W        W44254  10.688   4.247   5.477 -0.0268  0.4266 -0.4796
29124W        W44255   0.370   4.924   1.765 -0.0142 -0.0863  0.1176
29125W        W44256   0.282   2.987   3.372  0.1325  0.2407 -0.1559
29126W        W44257   2.696  15.697  13.068  0.0336 -0.2370 -0.1426
29127W        W44258   7.242  12.166  11.634  0.0155  0.2285  0.1915
29128W        W44259   3.766  11.513   2.400  0.2044  0.2429  0.0495
29129W        W44260   2.259   0.162   4.737 -0.1154 -0.2401  0.1035
29130W        W44261  16.289  10.936  11.518 -0.0104  0.0046 -0.0132
29131W        W44262  14.700   7.740  11.996 -0.2000 -0.3977  0.3407
29132W        W44263  17.792  13.379  13.126  0.0785 -0.2229  0.0403
29133W        W44264  11.773   4.869   0.868  0.1018 -0.0464  0.1771
29134W        W44265  11.902   2.791  11.776  0.1608 -0.1714 -0.2162
29135W        W44266   4.268  18.440   5.352 -0.0539 -0.1377  0.0025
29136W        W44267   6.426   1.701  13.326 -0.3886  0.2505  0.4604
29137W        W44268   5.736   6.966   3.304  0.3488  0.3389  0.1663
29138W        W44269  10.612   8.316   4.028 -0.2062  0.0789  0.0240
29139W        W44270  12.110  15.406  14.360  0.2509 -0.1314 -0.0720
29140W        W44271   6.052   4.369  12.128  0.1117  0.0512  0.0758
29141W        W44272  12.137   5.320   1.191  0.2030 -0.3659  0.3623
29142W        W44273   7.662   4.813   0.533  0.1419  0.2326 -0.3874
29143W        W44274   6.833  13.922  14.912 -0.2684  0.0318 -0.2329
29144W        W44275   9.874  12.806  12.640  0.0808 -0.3364 -0.1078
29145W        W44276  14.059  18.136  14.051  0.0550  0.2243  0.3258
29146W        W44277  12.847   9.581  11.147  0.0507  0.0694 -0.1313
29147W        W44278  11.056  12.216   3.012 -0.3377  0.6316 -0.0952
29148W        W44279   5.493  15.328   3.859 -0.0015  0.3983 -0.0758
29149W        W44280  17.914   6.444  13.201  0.1150 -0.0567 -0.1206
29150W        W44281   2.668   1.760   0.385  0.1134  0.1627 -0.4690
29151W        W44282  13.849  14.007   0.833  0.1884  0.1629  0.1753
29152W        W44283  14.989   5.818  10.603 -0.4064 -0.0860 -0.2978
29153W        W44284   5.479   6.365  13.044 -0.0478 -0.2614 -0.2247
29154W        W44285   5.328   5.797  15.509 -0.1358 -0.1025 -0.0490
29155W        W44286  10.251  10.711   1.046 -0.0566 -0.1544 -0.1635
29156W        W44287  18.136   4.458  13.689  0.0087 -0.1054 -0.2945
29157W        W44288  12.400   0.079   3.378  0.0078  0.1089  0.1873
29158W        W44289   4.228   5.639   2.003 -0.1705 -0.1694 -0.2698
29159W        W44290   8.590  13.397  15.104 -0.0694 -0.0021  0.0239
29160W        W44291  14.069  12.313   4.206 -0.4309  0.1600  0.1323
29161W        W44292   3.568   3.219   0.022  0.0562 -0.0970 -0.0397
29162W        W44293  15.369  14.661  12.342  0.1608  0.1783 -0.2208
29163W        W44294  13.706   5.662  13.330 -0.0481 -0.3443 -0.1358
29164W        W44295  12.192  18.559   1.204 -0.0556 -0.3102  0.1619
29165W        W44296   3.128  15.968   4.062 -0.2631  0.3199 -0.1599
29166W        W44297  11.478   9.182  15.798 -0.0999 -0.0214 -0.3107
29167W        W44298   7.414   8.569   5.903  0.2756 -0.4729 -0.1663
29168W        W44299  15.002  18.640  10.302  0.0810 -0.1130  0.2543
29169W        W44300   9.701   3.945   3.186  0.1333 -0.0391  0.2342
29170W        W44301   8.873  12.878   6.074 -0.2006  0.1705 -0.1368
29171W        W44302  17.586   3.798  10.901  0.2138  0.0943  0.3702
29172W        W44303   2.982   4.219  14.905  0.3373  0.4390 -0.0242
29173W        W44304  11.462  14.879   0.956 -0.2134 -0.0515  0.0680
29174W        W44305   1.392   1.664   0.546  0.1343  0.2703 -0.4859
29175W        W44306   4.599   7.071  11.471  0.0193  0.1248  0.0309
29176W        W44307   2.624   6.421  14.444 -0.2375 -0.1043 -0.3444
29177W        W44308   7.771   2.829   5.761  0.1179 -0.0533  0.1810
29178W        W44309  16.961   8.193  12.144  0.1301  0.0591  0.2492
29179W        W44310   0.740  16.969   0.580  0.0258 -0.0352 -0.0137
29180W        W44311  11.178   0.434  12.701  0.0568 -0.1946  0.0796
29181W        W44312  12.391  11.551  15.077 -0.2677  0.4476 -0.1529
29182W        W44313  11.051   4.447  10.122  0.1209  0.0173 -0.2552
29183W        W44314  10.908   4.454   2.479  0.0194 -0.1337 -0.1132
29184W        W44315   8.759  16.032   2.981  0.2398 -0.0525  0.0202
29185W        W44316   5.699  16.405  12.802  0.2471  0.0673  0.1744
29186W        W44317   1.712   8.309  13.800  0.1800 -0.1193 -0.0479
29187W        W44318  17.145   4.999   0.876  0.0119 -0.0119 -0.0233
29188W        W44319   6.527  13.164  14.606  0.3272  0.3009  0.2556
29189W        W44320  14.350   5.729  13.372  0.0562  0.0369  0.3345
29190W        W44321   5.061  13.517  11.181  0.1255  0.5223  0.0786
29191W        W44322   8.766  16.345  12.377  0.1741 -0.1315  0.1488
29192W        W44323  14.122   4.548  15.605 -0.0371  0.1791  0.3570
29193W        W44324  17.485   3.392   4.210  0.1553  0.1502 -0.0901
29194W        W44325  16.112   6.348   1.799  0.1749  0.0880  0.0754
29195W        W44326   6.845   3.607   5.879  0.2104 -0.0121  0.0392
29196W        W44327  13.614  12.450  11.537 -0.2235  0.2948  0.0446
29197W        W44328  14.549  18.239   3.740 -0.0996 -0.2497 -0.3170
29198W        W44329  12.665  18.063   0.526  0.0954 -0.2709  0.1197
29199W        W44330  15.708  13.758  11.280  0.3030 -0.1394 -0.1352
29200W        W44331   0.308  17.807  14.829 -0.1787  0.4155  0.1353
29201W        W44332   0.324   3.897  13.247 -0.1618 -0.0124  0.1260
29202W        W44333  10.517  15.504   5.391  0.0754  0.0334  0.0304
29203W        W44334   5.884  15.930  12.889 -0.3935 -0.0978  0.1594
29204W        W44335   6.074  15.063   4.505  0.4714 -0.0142  0.3015
29205W        W44336   4.574  18.405  14.179  0.0137 -0.0338  0.0166
29206W        W44337  16.203  10.424   0.514 -0.0376  0.3070 -0.3521
29207W        W44338   3.455  15.148   2.960  0.0653 -0.0432 -0.2392
29208W        W44339  12.202  12.936  12.463 -0.2853 -0.0776 -0.0773
29209W        W44340   9.379   0.817   3.498  0.2492  0.0711  0.1004
29210W        W44341   3.589   2.244  15.218 -0.0952 -0.0599  0.0549
29211W        W44342  13.614  17.582   4.045  0.1188 -0.1236  0.0070
29212W        W44343   9.657  10.850  11.159  0.1336  0.1649  0.2338
29213W        W44344   6.956   3.603  10.803 -0.3183  0.0467  0.0514
29214W        W44345  17.497  14.754   4.504 -0.0374  0.1874  0.2087
29215W        W44346   1.843  16.610   3.375  0.1276 -0.3199  0.3733
29216W        W44347   5.882   8.635  10.734  0.1286 -0.0509 -0.0402
29217W        W44348  18.240   2.204  15.159  0.3082  0.2206  0.1334
29218W        W44349   2.327  12.094   4.627  0.1714 -0.1870  0.0041
29219W        W44350  15.880  18.573   2.180  0.0772  0.0016 -0.5915
29220W        W44351  16.022   5.815  11.775  0.1035 -0.1047  0.1056
29221W        W44352  18.611   3.060   1.853 -0.0565 -0.2289 -0.0704
29222W        W44353   0.271   2.741  13.454  0.0088 -0.1069  0.0246
29223W        W44354   5.429   9.072  11.435 -0.1309 -0.3029 -0.0206
29224W        W44355  17.638  13.981   3.760  0.0081  0.0644  0.0975
29225W        W44356   5.562  18.447  13.972 -0.0606  0.2877 -0.2367
29226W        W44357  10.612   6.349   1.477  0.0451  0.1752  0.0537
29227W        W44358  14.487   1.336   0.309  0.0612  0.1119 -0.1736
29228W        W44359   9.024   7.313  15.449  0.1315 -0.0556  0.3973
29229W        W44360  15.770   4.184  10.390  0.0713  0.1486 -0.0054
29230W        W44361  16.121   1.016  15.449 -0.0523  0.2126 -0.2600
29231W        W44362  14.446   9.605   4.287 -0.0189 -0.0816 -0.0272
29232W        W44363   6.328   0.265  15.124 -0.1347 -0.0229 -0.2383
29233W        W44364   0.199  10.131   0.174  0.0927  0.0921  0.0769
29234W        W44365  18.414   8.392   2.272  0.2478  0.2410  0.2082
29235W        W44366   9.624   9.462   1.591 -0.0840 -0.3287  0.3183
29236W        W44367  14.259   8.250   2.599  0.2980 -0.0526  0.0342
29237W        W44368  18.721  15.901   4.077  0.2274  0.3048 -0.0865
29238W        W44369   2.286   5.940   4.968 -0.0616 -0.1921  0.0452
29239W        W44370  11.538   9.902  11.885  0.0029  0.0428 -0.1570
29240W        W44371   5.554  15.256  13.523 -0.7494 -0.1085  0.2406
29241W        W44372   9.272  12.382   9.651 -0.1789  0.5395  0.0400
29242W        W44373  11.941   4.805   0.375 -0.2385  0.0432 -0.1688
29243W        W44374  17.784   3.143   0.944  0.1203 -0.1061 -0.3353
29244W        W44375   7.176   4.974  12.176 -0.2756  0.1890  0.1058
29245W        W44376   2.715  11.645   5.912 -0.2203 -0.2153  0.1755
29246W        W44377  16.815   2.686  13.879  0.0375  0.1182 -0.4538
29247W        W44378  17.464  14.156  15.308 -0.2035  0.2863  0.0519
29248W        W44379  14.409   3.790  14.479  0.1144  0.0005 -0.2666
29249W        W44380  15.129  16.478  12.493  0.0703 -0.2527 -0.2031
29250W        W44381   2.867  13.293   4.178  0.0062 -0.1546  0.1826
29251W        W44382   6.439  16.919  12.744 -0.2864  0.1709 -0.0128
29252W        W44383  12.864   4.070  14.601  0.1521 -0.0626  0.0546
29253W        W44384  10.151  12.239  10.917 -0.1087 -0.1376 -0.3043
29254W        W44385  15.355   4.527   3.776 -0.1143 -0.2184 -0.0066
29255W        W44386  12.986  15.411  12.708  0.2255  0.2760 -0.2417
29256W        W44387   0.539  16.607  13.972 -0.0058  0.0855 -0.3282
29257W        W44388   4.841  13.490   1.481 -0.3225  0.4988  0.2324
29258W        W44389   0.050   0.746  10.768 -0.0378  0.2545 -0.0649
29259W        W44390   3.197   7.262   2.355 -0.1091 -0.1877  0.2779
29260W        W44391   7.009  16.323   2.976  0.1292  0.2422 -0.1544
29261W        W44392  13.891   2.118   0.250  0.0571 -0.2192 -0.0559
29262W        W44393  14.902  10.558   3.155 -0.1557  0.0836  0.0466
29263W        W44394   8.716   1.485   4.709 -0.1587 -0.0754  0.0897
29264W        W44395  10.419   4.408   2.563  0.0027  0.2665  0.1166
29265W        W44396   7.276  17.037  11.389  0.0027 -0.0566  0.1966
29266W        W44397   9.156   8.651   2.552 -0.1619 -0.1136 -0.1368
29267W        W44398   4.199  17.360   0.223 -0.2158  0.0034  0.2463
29268W        W44399  17.732   7.765  12.681 -0.0027 -0.0721  0.1353
29269W        W44400   0.604   9.049   0.795  0.1158  0.1936  0.1589
29270W        W44401  15.463   6.132   0.383 -0.2067 -0.1447 -0.0123
29271W        W44402   9.067   0.552   1.520 -0.3958 -0.1015  0.0253
29272W        W44403  11.416   9.715   0.973 -0.0765 -0.4496  0.3265
29273W        W44404  16.153   1.567  15.418 -0.2113  0.1242 -0.0841
29274W        W44405  12.014   6.761  12.747 -0.2793 -0.2625  0.3503
29275W        W44406   4.002  13.156  12.739  0.0196  0.2034  0.0303
29276W        W44407  15.324  17.762   1.302  0.0306 -0.1434  0.0506
29277W        W44408   8.850   2.570   0.992  0.2406 -0.1207 -0.0773
29278W        W44409  16.174  16.555   0.822 -0.1234 -0.2726 -0.2253
29279W        W44410  18.505  14.163   4.383 -0.0979 -0.2189 -0.0683
29280W        W44411   0.273   8.371   0.634 -0.0207  0.0181 -0.0213
29281W        W44412   4.519  12.162   5.259  0.2577  0.1140  0.0520
29282W        W44413   7.783   3.891  14.104  0.1122  0.0519  0.1921
29283W        W44414  14.928  15.452   1.053 -0.2833  0.1524 -0.0817
29284W        W44415  14.743  18.474   0.929  0.2815 -0.3570  0.3328
29285W        W44416   2.630  14.586  14.791  0.3190  0.2360 -0.0365
29286W        W44417  13.916   3.622   3.177  0.1783  0.2034 -0.0944
29287W        W44418  17.822  15.189   4.527  0.1203  0.6870 -0.1837
29288W        W44419  17.751  13.660   4.147  0.1602 -0.1545 -0.0587
29289W        W44420  16.987   3.598  11.007 -0.0240 -0.2646 -0.1270
29290W        W44421   0.907   5.099   4.586  0.0610  0.3525  0.1127
29291W        W44422   0.942  14.669  15.212  0.3713 -0.1986  0.3001
29292W        W44423  14.933   6.501  10.678  0.1961 -0.2084 -0.0923
29293W        W44424  15.450   5.601  10.640  0.4069  0.1117  0.3719
29294W        W44425  15.403  11.932   2.396 -0.1027 -0.3550 -0.0621
29295W        W44426  12.689  11.682   5.064 -0.1319 -0.2265 -0.0834
29296W        W44427  17.357   9.679  10.453  0.0609  0.0204  0.2857
29297W        W44428   6.158  18.173  14.745 -0.0655  0.0673 -0.1821
29298W        W44429  11.449  11.190  15.183  0.3195 -0.2207 -0.2356
29299W        W44430  13.599   4.407  13.808 -0.0426 -0.2476  0.3877
29300W        W44431  12.704   8.341   4.300 -0.2794  0.2001 -0.2191
29301W        W44432  11.616  10.267  10.456  0.0075 -0.3273  0.0819
29302W        W44433  17.554   9.307   4.491 -0.0824 -0.3310  0.0839
29303W        W44434   2.023  16.433   1.348 -0.3221  0.1698 -0.2050
29304W        W44435  16.623  13.033  15.033  0.1701 -0.0175  0.0936
29305W        W44436  14.765  14.583  11.569 -0.3287  0.3688 -0.2559
29306W        W44437   8.650   7.359   0.437  0.1810  0.1743  0.1484
29307W        W44438   7.103   7.590   3.888  0.0170 -0.0795 -0.0104
29308W        W44439   4.263   7.592   0.482  0.2023 -0.0500  0.0301
29309W        W44440   9.555   0.439  11.098  0.2751 -0.1434  0.0714
29310W        W44441  14.623   7.541   2.282 -0.0607  0.0051  0.0101
29311W        W44442   0.105  10.656   1.439  0.1108  0.2221 -0.0111
29312W        W44443  18.495  12.419  10.996 -0.1732 -0.2566 -0.0330
29313W        W44444  12.959  12.108  14.277  0.5285  0.0783 -0.0464
29314W        W44445   2.307   3.803  13.269  0.0992  0.3224  0.1666
29315W        W44446  13.005  13.126   0.962  0.0474 -0.0668  0.0244
29316W        W44447   7.067  16.991   5.270  0.2975  0.1872 -0.2800
29317W        W44448   7.009   5.505  12.102  0.1103 -0.1955  0.0873
29318W        W44449  18.597  15.619  11.231  0.0697 -0.0241 -0.3464
29319W        W44450  13.861   9.372  13.833  0.3923  0.5664  0.3825
29320W        W44451   4.753   8.886   0.182 -0.2147  0.2171  0.1613
29321W        W44452   8.525  10.292   1.665  0.3379  0.1338 -0.2359
29322W        W44453  12.014   3.541  12.511  0.0712 -0.1569 -0.0412
29323W        W44454   9.503  12.618  12.252 -0.2343 -0.1360  0.0786
29324W        W44455  12.165  16.312   2.668 -0.0365 -0.1312 -0.0506
29325W        W44456  12.207   3.524   3.517 -0.1275 -0.2636  0.2052
29326W        W44457   7.486   3.502  12.509 -0.1731 -0.2560 -0.2074
29327W        W44458   5.056  12.955   4.066  0.1603 -0.0194  0.1469
29328W        W44459  18.696  14.385   2.948 -0.1322  0.1977  0.1193
29329W        W44460  15.110  14.577   2.438  0.3257  0.1587  0.3248
29330W        W44461   8.593  11.029   3.938 -0.0132 -0.0384  0.2809
29331W        W44462   4.520   9.458   5.390 -0.1033  0.2800 -0.0393
29332W        W44463  14.310  17.396   0.039 -0.0894  0.0971 -0.2859
29333W        W44464   8.986  11.474  11.896  0.0430 -0.2741 -0.2513
29334W        W44465   5.165  16.294   6.727 -0.0178 -0.0510  0.2307
29335W        W44466  11.765   3.451   0.180 -0.4315  0.1959  0.0659
29336W        W44467   6.218   0.947  13.783 -0.3037 -0.0825 -0.2412
29337W        W44468  10.947   8.796  12.243  0.0295  0.0905  0.0122
29338W        W44469   1.378   7.675  11.415  0.2320 -0.4343 -0.1744
29339W        W44470   5.156   9.702   1.966  0.0652 -0.2521 -0.4434
29340W        W44471  15.135   7.531  15.561 -0.2405 -0.2082 -0.0195
29341W        W44472  17.988   5.904  13.156 -0.0564  0.0326 -0.1888
29342W        W44473  15.893   9.906   4.567  0.0408  0.0492  0.0772
29343W        W44474  13.764  10.935   3.932  0.1147 -0.3300  0.1566
29344W        W44475   1.139  14.711   6.320 -0.3196  0.0487  0.3132
29345W        W44476  11.357   9.887   3.148 -0.3768  0.0861 -0.2229
29346W        W44477  12.661   5.839   0.904 -0.2087 -0.2223 -0.2032
29347W        W44478  17.181  17.094   0.840 -0.1298  0.1017  0.0580
29348W        W44479  14.084  17.129   3.658  0.1446  0.0254  0.1497
29349W        W44480   7.549  10.745  11.594  0.0579  0.0725  0.1726
29350W        W44481  18.305   2.459   1.029  0.1874 -0.1290 -0.0558
29351W        W44482   3.464  16.435  13.886  0.2754  0.0425  0.1500
29352W        W44483  10.862   6.628  12.907  0.1342 -0.1494 -0.0286
29353W        W44484   1.781   1.148   3.635 -0.0793  0.1840 -0.2320
29354W        W44485  15.982  16.080  14.435  0.0969  0.1585  0.1236
29355W        W44486  10.604   4.673  13.940  0.2376  0.1454  0.2700
29356W        W44487   9.817  18.021  15.124 -0.0220  0.0992  0.1483
29357W        W44488  15.743   5.744  15.413 -0.2636 -0.0519 -0.1457
29358W        W44489   8.690   2.827   5.958  0.4171 -0.1058  0.1059
29359W        W44490  18.045   6.005  14.129  0.0300 -0.5055  0.1027
29360W        W44491  13.693  16.902  12.930  0.0739  0.1675  0.1825
29361W        W44492  11.601   6.642  15.404 -0.1752  0.1478  0.2179
29362W        W44493   2.932   9.308   1.910 -0.1619 -0.0308  0.0899
29363W        W44494   8.114  12.021  12.935  0.2909  0.4538  0.0266
29364W        W44495   7.682   9.999   1.450 -0.1427  0.1438 -0.2799
29365W        W44496   0.324   3.891   2.233 -0.1153  0.1296  0.3047
29366W        W44497  16.294   3.009   3.590 -0.1104  0.1825 -0.1928
29367W        W44498   9.861   9.474  13.164 -0.0386 -0.2647  0.0171
29368W        W44499   8.912  10.971   3.461 -0.0311 -0.4724 -0.1832
29369W        W44500  18.076   0.178   1.741 -0.0727  0.0757  0.3614
29370W        W44501  16.859  11.546   2.439 -0.1677 -0.0683  0.1484
29371W        W44502  17.188   2.165  11.848 -0.2567 -0.0478 -0.1773
29372W        W44503  14.120  10.104   3.125 -0.0205  0.0622 -0.1110
29373W        W44504   2.058   3.333  13.501 -0.2011  0.1116 -0.0282
29374W        W44505   5.651   3.318  13.186  0.2393  0.0037  0.1330
29375W        W44506   2.886  16.166  11.361  0.1635 -0.0954 -0.0718
29376W        W44507  11.936  14.751  10.758 -0.3253 -0.2725  0.2082
29377W        W44508  17.710  14.481   3.864  0.2505 -0.0148  0.0529
29378W        W44509  11.958   0.641  13.804  0.0936 -0.0921 -0.1322
29379W        W44510   9.141   6.818  13.100  0.2955 -0.3544 -0.3757
29380W        W44511   9.771   7.206   4.999 -0.2126  0.1089  0.0569
29381W        W44512   4.826   1.718   2.386 -0.0804  0.2278 -0.1546
29382W        W44513   8.952   8.793  11.626 -0.5449  0.2513  0.0623
29383W        W44514  14.342  14.968  12.391 -0.2210 -0.0389 -0.2221
29384W        W44515   4.951  14.245   3.726 -0.1133  0.0459 -0.0357
29385W        W44516   2.961   4.279  11.087  0.3370 -0.0518  0.0542
29386W        W44517  15.183  12.781  12.614 -0.0224 -0.1622  0.2156
29387W        W44518  17.435   5.447   1.158  0.1768 -0.1040  0.2424
29388W        W44519  11.977  10.701  11.225  0.2536 -0.2681 -0.2573
29389W        W44520  11.400   2.389   4.827 -0.0684 -0.2101  0.0871
29390W        W44521   4.019   9.477   5.306 -0.0721 -0.0390 -0.1340
29391W        W44522  16.955   9.903  11.534  0.0910 -0.2000 -0.0822
29392W        W44523  15.108   2.368   3.857  0.1312  0.1851  0.1105
29393W        W44524   8.246  12.742  13.792  0.2168 -0.1836 -0.1492
29394W        W44525  15.444  11.243   2.700  0.2150  0.4678 -0.3222
29395W        W44526  17.560  15.989  11.515 -0.0394 -0.3186 -0.3265
29396W        W44527  12.514   4.677  14.703 -0.0269 -0.0308 -0.0047
29397W        W44528   6.818   6.475   4.804  0.2700 -0.0542 -0.2256
29398W        W44529   7.483   3.458  13.847  0.0890  0.0141 -0.0063
29399W        W44530   7.495   7.984   3.015  0.1025 -0.0766 -0.2594
29400W        W44531   5.827  11.312  13.974 -0.0613  0.1115 -0.0667
29401W        W44532   4.314   8.035   5.955 -0.1440 -0.0982 -0.2907
29402W        W44533   6.832  10.022  13.940  0.0523 -0.0988  0.3165
29403W        W44534   1.801  18.440  11.409  0.2107 -0.1802  0.2771
29404W        W44535  11.872   9.980  13.315 -0.1752 -0.0234  0.0130
29405W        W44536  15.171  10.577  13.847  0.0471  0.2373 -0.2293
29406W        W44537  13.964   8.114  11.612  0.1546 -0.1777  0.1464
29407W        W44538   1.862  13.962  12.604 -0.1931 -0.0410 -0.2279
29408W        W44539   0.385   5.323   3.359 -0.0537 -0.2288 -0.1864
29409W        W44540   2.484   4.497   1.113  0.2656 -0.2655  0.1953
29410W        W44541   4.488  11.659   5.321 -0.2482  0.1327  0.0562
29411W        W44542  12.769  14.476   1.770 -0.2315 -0.1088  0.0920
29412W        W44543  12.458   7.180   0.896 -0.0231 -0.3563 -0.2809
29413W        W44544  10.797  17.927  15.618 -0.4759  0.1011  0.1593
29414W        W44545  14.194  13.483  13.970  0.0474 -0.3180  0.0866
29415W        W44546  14.325  13.652   2.304 -0.0289 -0.2637 -0.1765
29416W        W44547  17.474   4.589   0.841  0.1105  0.0993 -0.0971
29417W        W44548  11.321  17.483   0.306  0.2925  0.1031  0.1371
29418W        W44549   6.493  14.340   1.543  0.2737 -0.1754 -0.2191
29419W        W44550   6.181   3.082  13.170  0.0131  0.0540  0.0202
29420W        W44551   1.738   2.333   1.610  0.0391 -0.2667 -0.1403
29421W        W44552  17.500   5.679  11.356 -0.0374  0.0521  0.0390
29422W        W44553  17.548   8.311   1.556  0.0376 -0.0650  0.1307
29423W        W44554  16.404   6.231   0.523 -0.2644  0.1294  0.0918
29424W        W44555  10.400  11.219   5.036 -0.0702 -0.2630 -0.0772
29425W        W44556  14.694   3.329  13.214 -0.0050 -0.2444  0.3508
29426W        W44557   3.193   9.217   4.113 -0.0029  0.0194  0.0737
29427W        W44558  10.033  15.106   2.773 -0.1506  0.5262 -0.4611
29428W        W44559  13.110  16.583  11.821 -0.1118  0.2095  0.1494
29429W        W44560  16.515   3.597  14.334  0.0424 -0.1506  0.0773
29430W        W44561  18.553   8.401  14.364  0.0380  0.0590  0.0286
29431W        W44562   9.350   1.347  11.010  0.0576 -0.2753  0.0222
29432W        W44563  18.009  11.136   1.571 -0.2310  0.2076  0.0767
29433W        W44564  11.375  12.623   4.498  0.1092 -0.2390 -0.2156
29434W        W44565   4.325  15.871   0.509  0.0301  0.1680 -0.1193
29435W        W44566  18.598   3.251   3.291 -0.1125  0.1589 -0.0802
29436W        W44567   2.037  13.255   2.577  0.0080 -0.2604  0.1985
29437W        W44568   3.164   4.418  15.327 -0.3075  0.0483  0.2431
29438W        W44569  15.190  17.076  14.667 -0.4009  0.1821  0.0350
29439W        W44570  18.424   8.720  15.171  0.0166  0.0598 -0.2344
29440W        W44571  10.570  10.315   4.318 -0.2075  0.1992 -0.2839
29441W        W44572  18.201  10.562  13.359  0.2398  0.3374  0.1733
29442W        W44573   7.310  12.628   2.507 -0.2064  0.2873  0.0069
29443W        W44574  10.164  14.087   0.086  0.0716  0.1380  0.1183
29444W        W44575  12.067  16.663   3.558 -0.0711  0.0650 -0.0362
29445W        W44576  16.146   2.183  14.270 -0.2212 -0.1638  0.1162
29446W        W44577  14.527   6.489   3.310  0.1815  0.0664  0.4321
29447W        W44578  17.034   2.067  10.946 -0.2810 -0.0086  0.0925
29448W        W44579  16.603   0.489  14.877 -0.0699 -0.0196 -0.0167
29449W        W44580   9.906  10.800   3.435 -0.2496 -0.0117  0.1165
29450W        W44581  12.015  13.898  10.988  0.0331 -0.0166  0.0883
29451W        W44582  10.156   1.549   4.051 -0.0927 -0.2512 -0.0455
29452W        W44583  13.303  15.784  14.075  0.0688  0.1105  0.4217
29453W        W44584   9.542   6.371   2.504 -0.2581  0.0341  0.2292
29454W        W44585   6.890  16.806   2.703  0.1093  0.0862 -0.2453
29455W        W44586  16.363   7.700  11.758  0.1733  0.4313  0.0941
29456W        W44587   1.918   7.637  14.651  0.2869 -0.3795  0.2951
29457W        W44588   4.776  16.554  11.557 -0.0498  0.0640 -0.0425
29458W        W44589   0.598   4.731   3.906  0.0232 -0.0313  0.1799
29459W        W44590  10.031   8.934  10.984 -0.0643 -0.0808  0.2777
29460W        W44591  14.162   8.638   5.328  0.1430 -0.2097 -0.0681
29461W        W44592  15.525  15.281   5.013  0.0690 -0.0348  0.2252
29462W        W44593  11.995  15.658  13.027 -0.1945  0.1512 -0.1443
29463W        W44594   6.897   8.800   9.521  0.2976  0.0725 -0.0500
29464W        W44595  17.135   2.167   4.999 -0.0576  0.0557 -0.2771
29465W        W44596  18.626   8.158  13.515  0.2806 -0.2387 -0.3237
29466W        W44597  12.459  13.377  12.496 -0.0341 -0.1841 -0.0368
29467W        W44598   7.272   5.287  11.664  0.0032 -0.2811 -0.0450
29468W        W44599  17.872   3.494  14.831 -0.0974  0.1001 -0.1187
29469W        W44600   6.882  15.210  15.103 -0.0769  0.1115  0.0830
29470W        W44601   9.677  14.830  15.570  0.0855 -0.0924 -0.3585
29471W        W44602  11.163  10.510   2.914 -0.1099  0.0215  0.4073
29472W        W44603   6.330  13.277  11.782  0.1164 -0.1636 -0.2510
29473W        W44604  16.647  11.814   2.789 -0.0570  0.2863 -0.1332
29474W        W44605   6.166  15.910   5.145  0.2115 -0.0227 -0.0915
29475W        W44606   8.834  13.351   1.359 -0.2141  0.0358 -0.2123
29476W        W44607   0.893   6.748   5.429 -0.0776  0.1356 -0.3872
29477W        W44608   8.701   1.306   3.818 -0.1231 -0.0286 -0.0160
29478W        W44609  13.605  11.925  12.931 -0.0002 -0.0625 -0.4247
29479W        W44610   7.205   4.892   1.669  0.0946 -0.2328 -0.0272
29480W        W44611   3.702   1.962  12.541  0.0453 -0.1398  0.1009
29481W        W44612   4.227   7.889  14.050 -0.2877 -0.0526  0.2881
29482W        W44613   7.232   7.603  12.828 -0.4099  0.0326  0.0307
29483W        W44614  12.049   8.104  11.724  0.1166 -0.0080  0.2000
29484W        W44615  11.452  18.582   3.158 -0.2800  0.3824 -0.3258
29485W        W44616   6.995  18.075   2.311 -0.0619  0.0983  0.1593
29486W        W44617   8.285  15.926  13.097  0.2147  0.1470 -0.0450
29487W        W44618   6.852   6.250   3.803 -0.0836  0.0377  0.0810
29488W        W44619   3.767  18.617  12.273 -0.0103 -0.1531  0.1681
29489W        W44620   6.447  18.509  15.150 -0.2265  0.1399  0.2526
29490W        W44621  17.340  14.264  13.325  0.1952  0.2252 -0.1195
29491W        W44622  16.693   8.872  11.767 -0.0137 -0.0944  0.2337
29492W        W44623   4.938  12.944   4.573  0.1787  0.0459 -0.1451
29493W        W44624  12.236   7.215   9.276 -0.2852 -0.2866 -0.1649
29494W        W44625  11.985  12.079  14.213  0.1356 -0.0781  0.1138
29495W        W44626   7.764   5.078   2.402  0.1200 -0.0693 -0.3867
29496W        W44627   6.061  16.774  13.743  0.0476  0.4648 -0.2008
29497W        W44628  12.263  10.152   4.407  0.0412 -0.2199 -0.0507
29498W        W44629  14.882   8.657   0.541  0.0009  0.0839  0.0009
29499W        W44630   8.435   3.312   1.408 -0.2408  0.0005 -0.1629
29500W        W44631   3.831   0.699  13.661 -0.2017 -0.2547  0.1059
29501W        W44632   5.229  17.532   5.062 -0.1639  0.1922  0.1937
29502W        W44633  15.086  12.564   5.066  0.2491 -0.3143 -0.1112
29503W        W44634  12.789   2.695  13.447 -0.1019  0.3862  0.0683
29504W        W44635  14.533   4.016   4.865  0.2865  0.2116  0.3306
29505W        W44636   0.981   4.994   1.584 -0.2584  0.3170 -0.2082
29506W        W44637  10.039  11.448  12.196 -0.5077 -0.2230  0.3100
29507W        W44638   8.029   6.612   1.276 -0.1940 -0.1075 -0.1347
29508W        W44639   1.701  13.360   1.376  0.1030 -0.0562 -0.2810
29509W        W44640  15.081   9.548   5.018  0.1499 -0.2198 -0.0151
29510W        W44641   6.046   3.879  14.968  0.1789 -0.0139 -0.0166
29511W        W44642   9.398   0.585  15.203 -0.2016  0.3131 -0.0846
29512W        W44643  16.465  11.902   2.311  0.3918  0.2201 -0.0104
29513W        W44644   0.445   8.395  11.368 -0.0109  0.3259  0.0443
29514W        W44645   0.927   5.543   5.320 -0.0310  0.0666 -0.4215
29515W        W44646   3.676   4.479   2.732 -0.0570 -0.0938  0.0316
29516W        W44647  17.309   2.386  11.431  0.0065 -0.2923  0.1083
29517W        W44648  13.889   6.624   5.326 -0.0084  0.0352 -0.2450
29518W        W44649   6.392  13.680   2.229 -0.0096 -0.4857  0.1609
29519W        W44650  16.649  14.152  13.228  0.3451 -0.3141  0.1470
29520W        W44651   5.743   1.025  12.090 -0.0194 -0.0028 -0.1110
29521W        W44652  10.755   0.123   5.419  0.2298  0.5598  0.0223
29522W        W44653   7.476   6.168   1.868  0.0483 -0.1095 -0.0746
29523W        W44654   7.209  14.775  14.155  0.0371 -0.6771  0.2770
29524W        W44655   9.688   6.903  14.844  0.1205 -0.1404  0.0237
29525W        W44656  11.375  13.151   4.154 -0.1630 -0.0601  0.1808
29526W        W44657   0.922   2.207   4.031  0.1675 -0.2918  0.2647
29527W        W44658  11.268  14.542   5.033 -0.0537  0.1223 -0.0230
29528W        W44659  14.949   7.668   0.238 -0.0580  0.1128 -0.1106
29529W        W44660   6.975   6.208   0.587  0.1315 -0.3548 -0.0608
29530W        W44661  16.779   2.031   2.281  0.0569  0.0794 -0.4544
29531W        W44662  14.047   6.189   2.198  0.0039 -0.2517  0.0743
29532W        W44663  18.271   9.404  15.755  0.2535  0.1033  0.1198
29533W        W44664   8.613   6.657  15.429  0.2851  0.0741 -0.1377
29534W        W44665   9.210  16.403   2.756 -0.0496  0.0525  0.1211
29535W        W44666   2.236  14.565   2.118 -0.2256 -0.1945  0.2410
29536W        W44667   0.346   9.243  11.078 -0.3090 -0.0376 -0.0797
29537W        W44668   1.779   3.817   1.754  0.0466 -0.2035  0.0683
29538W        W44669   4.332   8.429  12.510  0.0278 -0.0771  0.3685
29539W        W44670  17.227   5.352  15.057 -0.3524  0.3963  0.2373
29540W        W44671   7.253   1.261   5.896  0.2121  0.0178 -0.0873
29541W        W44672  11.109  10.224  10.764  0.0067  0.0787  0.1698
29542W        W44673   1.435  14.496  13.292  0.0538  0.0847  0.0864
29543W        W44674  12.407   9.543   4.941 -0.1561 -0.1308 -0.0286
29544W        W44675   2.425  11.431  12.868 -0.1096 -0.0290  0.1531
29545W        W44676  16.836  15.172   5.033 -0.1542  0.0736  0.0364
29546W        W44677   1.376  18.173   3.262  0.0796  0.0870  0.0340
29547W        W44678   5.746   7.536  13.618  0.3104  0.2003  0.3321
29548W        W44679  13.215   3.380  14.977  0.2823  0.1075 -0.0310
29549W        W44680   7.231   9.112  12.059  0.1793  0.1453  0.1568
29550W        W44681   1.104   8.196  10.316 -0.3659  0.0635 -0.2347
29551W        W44682   4.320  17.993  14.166  0.0756  0.1462 -0.1134
29552W        W44683   9.314  16.832  12.041 -0.0821 -0.1302 -0.1995
29553W        W44684  17.088   8.371  11.249 -0.0944  0.1783 -0.1765
29554W        W44685   6.587   4.350   1.707 -0.0542  0.0625 -0.1681
29555W        W44686  12.886  10.127   0.814  0.1061 -0.1971  0.3613
29556W        W44687  14.395   8.298   5.072 -0.1628  0.3320 -0.4722
29557W        W44688   3.892  12.972   5.243 -0.1152 -0.0598 -0.0639
29558W        W44689  13.224  13.554   3.694 -0.0575  0.1427  0.3249
29559W        W44690   9.268   3.293   3.406  0.3158  0.4685  0.1205
29560W        W44691   9.165   9.744   0.792  0.1749 -0.2312 -0.1652
29561W        W44692   3.301   2.469   2.899 -0.2637  0.1188  0.2754
29562W        W44693  10.820  10.292  13.649 -0.0173 -0.0336 -0.1201
29563W        W44694   1.515  10.629   3.386 -0.0829  0.2783 -0.2843
29564W        W44695  14.345   7.356  11.837 -0.0185 -0.0985  0.1575
29565W        W44696   6.634   3.434  13.718  0.2307  0.4262  0.0627
29566W        W44697   0.260   7.008   0.707 -0.0841  0.1714  0.0619
29567W        W44698   8.007  13.976   3.815  0.1776  0.0754 -0.1375
29568W        W44699   2.175  16.094  14.583  0.1642 -0.4466 -0.0421
29569W        W44700  15.001  17.038  15.365 -0.0970  0.1012 -0.1319
29570W        W44701  10.055   3.003   5.264  0.3029 -0.0274  0.1081
29571W        W44702  14.472  15.792   2.231 -0.1291  0.2880 -0.2072
29572W        W44703   5.109   9.095  13.811 -0.0364  0.1613  0.0399
29573W        W44704  11.380   5.550  14.735 -0.1114 -0.1368 -0.1255
29574W        W44705   9.593  12.908   3.805  0.1405  0.2314  0.1591
29575W        W44706   0.403   4.023   4.280  0.0873  0.0147 -0.1493
29576W        W44707  14.214  16.082  13.901 -0.0056  0.0025 -0.3032
29577W        W44708   3.633   3.638   3.854  0.0739 -0.0387  0.2053
29578W        W44709   8.592   4.872  14.734  0.4066 -0.2051  0.0505
29579W        W44710   0.778   1.774   5.834  0.0819 -0.2597  0.0603
29580W        W44711  10.867   7.680   1.868 -0.1720 -0.3142  0.1336
29581W        W44712   7.474   7.765   5.732  0.0335 -0.0173 -0.0307
29582W        W44713   2.826  13.280  10.660  0.1483 -0.1084  0.2675
29583W        W44714   6.586   0.508   1.088 -0.2520 -0.0497  0.2630
29584W        W44715  13.354  11.801   9.871 -0.3631  0.0751 -0.0118
29585W        W44716   0.529   1.096   2.878  0.1100  0.0531  0.1783
29586W        W44717  16.256  16.721   3.395  0.0823 -0.0094  0.2643
29587W        W44718   7.469   9.959  11.052 -0.2912 -0.2178  0.0613
29588W        W44719   2.600  10.845  11.722  0.1210 -0.1525  0.0878
29589W        W44720   4.641   6.941   4.799 -0.0213 -0.1559  0.2495
29590W        W44721   3.107   0.091   4.851 -0.2876  0.1383 -0.1611
29591W        W44722  12.322   8.087  10.428  0.0918 -0.2101 -0.0829
29592W        W44723  11.108  16.408  14.913  0.0529  0.2430  0.0363
29593W        W44724  15.277   2.709   1.522 -0.1228  0.2320 -0.2536
29594W        W44725   1.174  14.201  14.921 -0.1717  0.0374 -0.0680
29595W        W44726  15.307   4.767   5.244 -0.5309  0.0047 -0.0030
29596W        W44727  16.317  13.549   0.903 -0.1574  0.2510  0.0586
29597W        W44728  18.463   8.194  12.345  0.0225 -0.1437  0.0057
29598W        W44729  12.236   2.419  10.900  0.0987  0.3794  0.0194
29599W        W44730   0.185  18.364   3.893  0.1013  0.1465 -0.0843
29600W        W44731   0.778   8.548  13.240  0.0210 -0.1244 -0.0594
29601W        W44732   4.626   4.074   2.320 -0.0646  0.2843  0.0168
29602W        W44733   5.314  10.977   1.097  0.3937 -0.0799  0.1624
29603W        W44734   4.854   6.651  15.337  0.1022  0.2517 -0.0669
29604W        W44735   9.313  18.139  15.199  0.1959 -0.0392 -0.1097
29605W        W44736   1.278  17.346   3.738  0.0785  0.0306  0.0004
29606W        W44737  13.801   7.946  13.541  0.1559  0.1919  0.0785
29607W        W44738   4.144  17.172   5.952 -0.1526 -0.0473 -0.0248
29608W        W44739  16.467   8.757   0.853 -0.3173  0.0824  0.1274
29609W        W44740   6.722  14.143  10.045 -0.0924  0.2620 -0.0695
29610W        W44741  16.730   9.758  14.292 -0.1710  0.3786  0.0235
29611W        W44742   0.402   1.666   6.230 -0.2029 -0.1552  0.3141
29612W        W44743  13.759  13.224   3.919 -0.0039 -0.0885  0.1452
29613W        W44744   8.281   4.396   5.164  0.3252 -0.4535  0.3316
29614W        W44745  16.375  10.355  15.723 -0.0098 -0.1332  0.0455
29615W        W44746   0.281  11.911   3.239  0.1622  0.1631  0.1950
29616W        W44747  12.741  10.122   4.496 -0.0183 -0.3197  0.1376
29617W        W44748  18.331   8.854   3.175 -0.0242 -0.0000 -0.1185
29618W        W44749   7.578  10.462  13.405 -0.2084  0.0995  0.0062
29619W        W44750  10.066   1.471  14.978  0.2176  0.0850 -0.1552
29620W        W44751  12.960   5.201  10.791 -0.1051  0.1728  0.1252
29621W        W44752   8.646  13.631  12.862  0.1252  0.1368  0.1327
29622W        W44753  11.880   9.827   1.492  0.3134  0.0098 -0.0576
29623W        W44754   2.913   0.183   3.350 -0.0678  0.0557  0.1953
29624W        W44755   2.985   3.640  14.945  0.0120 -0.3188  0.0366
29625W        W44756  11.180  16.229   5.443  0.3118 -0.0649  0.3592
29626W        W44757  14.546  12.648   4.667 -0.1440  0.2350 -0.1250
29627W        W44758  11.263  13.530  14.066 -0.0748 -0.2934 -0.0794
29628W        W44759   4.446  11.085  14.257  0.4237 -0.1516  0.1649
29629W        W44760   1.320   7.506   5.760  0.1226  0.4284  0.0985
29630W        W44761   9.565   4.727  12.086 -0.1087 -0.1923  0.0272
29631W        W44762   8.836   8.375  14.162  0.2301  0.0371 -0.1265
29632W        W44763  14.075  18.142   3.653 -0.0668  0.2399 -0.0535
29633W        W44764   2.543  18.100  12.756 -0.0730 -0.0156 -0.1391
29634W        W44765  14.013   1.787  12.871 -0.0705  0.1179 -0.1395
29635W        W44766  18.055  13.449   2.933 -0.0916 -0.0640  0.0572
29636W        W44767   8.874  10.589  15.508  0.0928 -0.2371 -0.0191
29637W        W44768   1.279   0.982  11.690  0.0773  0.3075  0.1847
29638W        W44769  15.032   9.040  11.220  0.0140 -0.3250 -0.0841
29639W        W44770  16.755  17.585   3.521 -0.1283  0.0513 -0.0682
29640W        W44771   2.719   4.755  10.999  0.4433 -0.0889  0.1513
29641W        W44772  13.749  11.814  10.963 -0.2247  0.0879 -0.2959
29642W        W44773   3.489   4.173   5.577  0.0297 -0.2388  0.0635
29643W        W44774  16.849  12.312  11.979  0.1471  0.1673  0.2399
29644W        W44775   8.377  14.809  10.779  0.1134  0.1562  0.3529
29645W        W44776  16.700  13.615   0.431 -0.3162  0.2711 -0.0840
29646W        W44777  12.234  14.492  14.098 -0.1668 -0.3689 -0.0107
29647W        W44778   4.150   9.976  11.913 -0.4293 -0.3090 -0.2683
29648W        W44779  16.857  12.352   4.024  0.0188  0.1776  0.0385
29649W        W44780  18.179  11.286   5.071  0.1033  0.0557 -0.0244
29650W        W44781   8.862  16.756   2.858  0.1316 -0.1313 -0.7223
29651W        W44782  11.014  16.298   1.682  0.1468  0.2546 -0.2293
29652W        W44783  11.103   2.473  15.445 -0.1229  0.3111  0.0748
29653W        W44784  15.220  16.639  15.468 -0.0272  0.4016  0.2578
29654W        W44785  15.767   2.046  12.787 -0.2220  0.1015  0.2821
29655W        W44786   3.060   3.695   4.805  0.1131 -0.0293 -0.2013
29656W        W44787   9.662  16.984  10.486  0.3804  0.1572  0.0714
29657W        W44788   3.110  13.487  10.315 -0.1406 -0.1525  0.0322
29658W        W44789  17.388  17.392  15.450  0.0534 -0.4531 -0.1061
29659W        W44790   8.468  13.172   3.808  0.0659 -0.1231  0.1964
29660W        W44791   3.640  17.343   3.898 -0.4580  0.2476 -0.2473
29661W        W44792  17.214   4.380   1.994  0.1592 -0.1067  0.0777
29662W        W44793  14.471   6.368   2.350 -0.1390  0.0498 -0.0763
29663W        W44794   4.619   6.317   0.065 -0.4449  0.1723 -0.0221
29664W        W44795   3.426   7.936  13.026  0.2073 -0.0379 -0.0496
29665W        W44796  14.414  17.645  12.494  0.4328  0.0974  0.0498
29666W        W44797  13.564   9.987   9.679 -0.2397 -0.1685  0.1247
29667W        W44798   8.693   9.163  13.428 -0.0212  0.0777  0.2753
29668W        W44799   2.847  18.315   3.475  0.0261  0.2491 -0.2090
29669W        W44800   6.171   3.855  11.992  0.2373  0.1524  0.2439
29670W        W44801   8.505  13.551  11.665 -0.1183  0.0355  0.2634
29671W        W44802  15.378   5.524   0.001 -0.3480 -0.1548 -0.0705
29672W        W44803   5.128   5.294   1.272  0.3585 -0.1288 -0.0427
29673W        W44804  17.314   6.237   5.225 -0.0044  0.2640 -0.1446
29674W        W44805  15.648  11.709  10.070  0.0862 -0.3632 -0.1137
29675W        W44806   1.191  12.286   3.409  0.2027  0.1634  0.0820
29676W        W44807   9.919  17.263   9.463 -0.0964  0.4202 -0.3943
29677W        W44808  14.273  16.551  12.568  0.0600  0.4597 -0.0211
29678W        W44809  16.415  15.075  12.289  0.0132 -0.0615 -0.2203
29679W        W44810  14.343  12.367   1.975  0.2472  0.2419 -0.0388
29680W        W44811  17.939  15.884  13.810 -0.1016 -0.2363  0.1810
29681W        W44812  12.267   5.643   3.594 -0.1291  0.0349 -0.2887
29682W        W44813  11.245   1.323   5.673  0.0892 -0.0159  0.4672
29683W        W44814   7.252   2.282  13.127  0.1663 -0.0411  0.2302
29684W        W44815   9.018   0.702   2.173  0.0104  0.0453 -0.0217
29685W        W44816   3.140   5.444  10.556  0.2497  0.0087  0.0145
29686W        W44817   1.432   3.392  12.774  0.1728  0.1728  0.2578
29687W        W44818   8.773   4.816   0.786  0.0136 -0.1157 -0.0762
29688W        W44819   7.442   4.241   4.090  0.2208 -0.1301 -0.2282
29689W        W44820  11.733  13.610  15.668  0.2708 -0.0282 -0.1028
29690W        W44821  17.243  17.706   3.323 -0.1515  0.1619 -0.0570
29691W        W44822   9.700   4.301   3.640  0.2611 -0.1185 -0.1358
29692W        W44823  14.083   0.931  11.005  0.0890  0.1743  0.2387
29693W        W44824  10.622   7.265  13.062 -0.0648  0.0097 -0.0031
29694W        W44825  15.565  16.894  11.963  0.0435 -0.3191 -0.0403
29695W        W44826  12.883   0.953   3.729 -0.0531 -0.2040 -0.2394
29696W        W44827  12.935   4.112   0.008  0.5187 -0.0037  0.1707
29697W        W44828  10.592  14.618   3.911  0.0931  0.0925  0.2216
29698W        W44829   2.970   4.386   4.329 -0.0091  0.3291 -0.1762
29699W        W44830  14.946  18.209  10.956 -0.0990  0.0473 -0.2953
29700W        W44831  11.469  16.665  13.410 -0.0158  0.0528  0.0474
29701W        W44832  15.559   7.009   0.686 -0.4322 -0.0517 -0.0572
29702W        W44833   5.748   4.407  13.718 -0.0517  0.2170  0.1029
29703W        W44834   2.348  16.051   4.492  0.0200  0.0682  0.0168
29704W        W44835  18.124   1.103   1.580  0.0510 -0.1647 -0.1796
29705W        W44836  12.531   4.116   3.550 -0.2165 -0.3057  0.0788
29706W        W44837   4.595   3.194  13.437  0.2611  0.3365 -0.0845
29707W        W44838  16.908  14.183   4.037  0.2011 -0.2471  0.1964
29708W        W44839  17.572  17.073   3.392 -0.1956 -0.2306  0.1256
29709W        W44840   6.654  10.699   0.580 -0.0100  0.3061  0.0714
29710W        W44841  17.457   0.137   3.330  0.1462  0.0631  0.0331
29711W        W44842   1.649   0.676   4.890  0.2268  0.2078 -0.1596
29712W        W44843  15.711   7.025   4.993  0.0434  0.1652 -0.0966
29713W        W44844   8.493  17.948  14.953 -0.1776  0.0742 -0.2211
29714W        W44845   3.757  16.838   5.998  0.1424  0.0290  0.1576
29715W        W44846  13.323  14.092   3.853 -0.1901 -0.2016  0.2257
29716W        W44847   9.628  15.476   4.020  0.4805  0.0175  0.1614
29717W        W44848  18.644   9.227  14.907 -0.0555  0.0313  0.1547
29718W        W44849  12.553  10.507   9.701 -0.2958  0.1136  0.1855
29719W        W44850   9.280  13.776  10.339  0.3320  0.0317 -0.1847
29720W        W44851   0.779   7.887  12.665 -0.3657  0.2549 -0.2711
29721W        W44852  12.212  16.489   5.054 -0.3323 -0.1294 -0.0788
29722W        W44853   5.438  11.323  13.359  0.3689  0.1196  0.0266
29723W        W44854   1.607  17.770  13.703 -0.1567  0.1343  0.0615
29724W        W44855   8.772   3.935   9.904 -0.1382 -0.0838 -0.0854
29725W        W44856   9.440   7.395   4.146 -0.1855  0.2419 -0.2281
29726W        W44857   5.012  18.476   0.996 -0.0676  0.3023 -0.1653
29727W        W44858   0.525  12.457  15.221  0.3149 -0.0634  0.1770
29728W        W44859  17.184  14.487  11.611  0.0537 -0.3668  0.1304
29729W        W44860   7.568   9.713  15.552  0.3737  0.3072  0.0433
29730W        W44861  16.114  11.973  14.720  0.3154 -0.3868  0.3483
29731W        W44862   0.616  12.908  12.914  0.0111  0.1596  0.0363
29732W        W44863   5.423  16.358  11.301 -0.1490  0.0096  0.2129
29733W        W44864   4.919  16.261  14.037 -0.2779 -0.1360  0.1194
29734W        W44865  10.585   5.448  11.827 -0.1591 -0.0973 -0.1322
29735W        W44866   5.034   9.126  10.780  0.0136 -0.0044 -0.0166
29736W        W44867   3.845   7.626   0.102 -0.2214  0.1747 -0.0435
29737W        W44868   4.414  18.458   4.193 -0.0714  0.2090  0.1765
29738W        W44869  13.135   9.483   1.641 -0.2880  0.0528 -0.0567
29739W        W44870   9.901  14.964  12.432 -0.0223 -0.0682  0.2663
29740W        W44871   3.625   8.428  15.617 -0.0182  0.1387  0.2207
29741W        W44872  11.608   4.039   0.388  0.1249 -0.2382 -0.2825
29742W        W44873   1.915  18.628  12.165  0.0219  0.0086  0.2227
29743W        W44874  14.279   4.480   3.496  0.3155  0.1343  0.0101
29744W        W44875   4.845   6.383  11.638 -0.2070  0.1872 -0.0682
29745W        W44876  12.565   6.861  14.838  0.0359 -0.1374  0.4224
29746W        W44877  14.415  12.946   1.139  0.1112 -0.0603  0.0605
29747W        W44878   0.769   9.430  11.459  0.0375 -0.1387  0.0335
29748W        W44879   7.942   0.538   5.275  0.2055 -0.1514  0.0816
29749W        W44880  11.345   6.103   4.333  0.1867 -0.0521 -0.0112
29750W        W44881   8.022  10.622  11.512  0.1377 -0.4283 -0.1965
29751W        W44882   7.858   2.394   1.294 -0.1584  0.1061 -0.1982
29752W        W44883   8.102   1.832  12.457 -0.0476  0.3026 -0.1588
29753W        W44884   1.916  10.838   3.936 -0.2532 -0.1037 -0.1157
29754W        W44885  16.417   1.283   4.339  0.1074  0.1408 -0.0812
29755W        W44886   1.671   0.824  12.100  0.1304 -0.1021 -0.2193
29756W        W44887   4.080  15.269   2.264 -0.0802 -0.0006 -0.2083
29757W        W44888   9.567  13.564   5.140  0.0542 -0.1268  0.0599
29758W        W44889   7.023   8.704   3.266 -0.2228 -0.1831 -0.0160
29759W        W44890   7.923   0.177   0.983 -0.0187  0.0367  0.3513
29760W        W44891  10.810   6.900  13.383 -0.0048 -0.1293 -0.5555
29761W        W44892   0.513  17.243   2.202  0.3339  0.2098  0.1529
29762W        W44893  11.864  13.866   2.719  0.0500  0.3226  0.2386
29763W        W44894   5.064   8.896  15.560 -0.2648 -0.3771  0.1971
29764W        W44895  13.364  10.666  15.409  0.0514  0.0235 -0.2083
29765W        W44896  16.620   8.667  15.608  0.1892 -0.1091  0.0994
29766W        W44897   2.034  11.978  11.780 -0.3080  0.0616  0.3021
29767W        W44898   8.489   5.072  11.280 -0.3729  0.2501  0.0662
29768W        W44899   0.669   3.344   2.976  0.1435 -0.2374 -0.0787
29769W        W44900  11.200  16.498  15.429  0.0548 -0.1748 -0.1348
29770W        W44901   4.494   9.613  15.716 -0.3759 -0.1157 -0.1351
29771W        W44902   5.487  10.050   0.954  0.2331 -0.2375 -0.1053
29772W        W44903   9.216   3.845   2.365  0.2027 -0.2341  0.0178
29773W        W44904  14.735   1.225   0.706  0.3384 -0.0882  0.0630
29774W        W44905   7.603   9.378   4.687 -0.0342 -0.0265 -0.0686
29775W        W44906  11.076  10.908  13.082 -0.1851 -0.0848 -0.1261
29776W        W44907   6.017   2.002   0.915 -0.3223 -0.2074 -0.1042
29777W        W44908   3.875   2.937  11.485  0.3663  0.0962 -0.0518
29778W        W44909   7.390  12.085  14.882 -0.0072  0.0404 -0.2309
29779W        W44910  11.058  14.118  12.332 -0.2638 -0.2205  0.2646
29780W        W44911  13.008   1.122  15.198  0.0615 -0.1431 -0.2259
29781W        W44912   8.903   0.672  12.831 -0.1363  0.4250 -0.0054
29782W        W44913  16.460   9.901  11.113 -0.2071 -0.2098 -0.1339
29783W        W44914   4.495   4.271   3.234 -0.1038 -0.1965  0.0735
29784W        W44915  15.626  18.007   0.242 -0.1194 -0.1734 -0.3164
29785W        W44916  10.818   9.144   3.545  0.0369  0.0306 -0.1817
29786W        W44917  14.086   8.651  11.898  0.1852  0.0210  0.0568
29787W        W44918   8.312  11.217   4.806  0.1219  0.0436  0.0467
29788W        W44919   7.236   8.381  13.242 -0.0203 -0.1185  0.1224
29789W        W44920   8.363   3.582  13.439 -0.2405 -0.0557 -0.0462
29790W        W44921  13.821  10.792  15.637 -0.0531  0.4241 -0.3051
29791W        W44922  16.522   7.804   3.659  0.1917 -0.5021  0.3669
29792W        W44923   5.104   4.532  15.723 -0.0161 -0.1457  0.0229
29793W        W44924   6.667   7.975   3.086 -0.0332  0.3858 -0.1521
29794W        W44925  10.567  16.070   0.733 -0.0164 -0.0434  0.3101
29795W        W44926  10.884  15.849   3.062 -0.2789 -0.0892  0.3317
29796W        W44927   5.034   1.242   3.759 -0.2516  0.0309 -0.1996
29797W        W44928  13.359   8.200  15.387 -0.1936  0.4693 -0.0268
29798W        W44929   3.515  12.938   3.211 -0.0502 -0.4889  0.2032
29799W        W44930   1.692  14.911  11.289 -0.1618 -0.0130 -0.3797
29800W        W44931  14.879   8.233   3.375  0.2725 -0.0849 -0.2698
29801W        W44932  10.338   8.930   2.028 -0.2115 -0.0197 -0.0238
29802W        W44933   8.325   3.357   4.321 -0.1067  0.0314 -0.0927
29803W        W44934   4.910   2.903  15.193 -0.0548 -0.2854  0.0144
29804W        W44935   5.897  16.206   3.153  0.3039  0.0259 -0.5059
29805W        W44936  12.730   0.237  14.636 -0.1729 -0.0633  0.0668
29806W        W44937   7.142   2.855   4.423  0.2539 -0.0991 -0.2194
29807W        W44938  13.504  11.913  11.438  0.0445 -0.0252 -0.1256
29808W        W44939   9.863   3.111  10.886  0.1136 -0.1911  0.3579
29809W        W44940   8.547   8.673  13.435 -0.0374  0.1753  0.1477
29810W        W44941  11.462   1.435  11.505  0.1487  0.3434 -0.3792
29811W        W44942   9.255  13.050  11.395  0.0614 -0.0590 -0.1251
29812W        W44943   5.282   5.788  14.126  0.1524  0.2060  0.0020
29813W        W44944   4.074  10.456   2.357  0.0744  0.0161  0.1914
29814W        W44945  16.065   0.535  14.235  0.0590 -0.1702  0.0869
29815W        W44946  15.459   4.808  11.668  0.1453 -0.2418 -0.2250
29816W        W44947   3.899  16.100   5.409  0.2244  0.1863  0.1927
29817W        W44948   9.955  15.356  15.547  0.1044  0.2324 -0.1141
29818W        W44949   1.391  17.128  14.914  0.0492  0.0571 -0.4013
29819W        W44950   9.305  11.077   0.686  0.1352 -0.0726 -0.0961
29820W        W44951   9.731   6.089  14.591  0.1427 -0.4012  0.2728
29821W        W44952   4.567  14.168   4.042 -0.1618 -0.1959  0.2242
29822W        W44953   8.474   2.139  14.400  0.0268  0.1479 -0.2897
29823W        W44954  10.993   9.533  10.573 -0.1794  0.2934  0.0133
29824W        W44955   1.220  16.561  13.521  0.0800  0.3582  0.0507
29825W        W44956   5.236   7.242  10.949  0.0552 -0.3491  0.2803
29826W        W44957  18.239  18.411  13.439  0.1335 -0.0493  0.1787
29827W        W44958   2.495  17.496  11.962 -0.4757  0.0148  0.1609
29828W        W44959   4.204  16.636   1.397  0.0869  0.1958 -0.1822
29829W        W44960   8.737  15.688   5.239  0.1013  0.0923 -0.0007
29830W        W44961   5.315   2.070   1.863 -0.0533  0.0224 -0.0823
29831W        W44962   4.576   2.335   5.423 -0.0081  0.1629 -0.1747
29832W        W44963   0.516   1.936   3.349 -0.0096  0.0642  0.1491
29833W        W44964   8.990  16.911  11.602 -0.2756 -0.0822  0.2079
29834W        W44965  14.363   1.828   2.265 -0.1207  0.0091  0.2979
29835W        W44966  11.559   5.325   1.771 -0.1594 -0.2602 -0.3850
29836W        W44967  13.933  15.869  15.347  0.1050  0.1261  0.1099
29837W        W44968  12.467   5.984  14.229 -0.0055  0.1084  0.0495
29838W        W44969   3.118   2.275   3.367  0.2485 -0.2103 -0.3166
29839W        W44970   5.350   4.701  13.702 -0.1472  0.0292  0.0178
29840W        W44971  17.756   5.733   2.494 -0.1066 -0.2308 -0.1173
29841W        W44972   2.351   8.938   3.398  0.2476  0.0327 -0.2705
29842W        W44973   5.521  15.610   0.304 -0.2833 -0.1050  0.3345
29843W        W44974   5.084   6.259  11.208  0.1078 -0.0671  0.1145
29844W        W44975   0.489  15.501   3.174 -0.1263 -0.2566  0.1114
29845W        W44976   9.849  13.749  13.602  0.0506  0.0196 -0.1877
29846W        W44977   7.342   4.221   2.549 -0.1754  0.1376 -0.0368
29847W        W44978   1.506   2.728  11.066  0.0215 -0.1285 -0.0313
29848W        W44979   3.864  10.871  14.528  0.1818 -0.2024  0.2621
29849W        W44980   2.603   3.819  11.014  0.0544 -0.0756 -0.1769
29850W        W44981   9.813  16.328  14.008  0.0902 -0.1773  0.0614
29851W        W44982  17.727   1.645  12.659  0.3006 -0.1054  0.0464
29852W        W44983  11.278  10.441   1.859  0.1034 -0.0875 -0.0027
29853W        W44984  14.207  14.011  10.472 -0.2564  0.3164 -0.1235
29854W        W44985   0.725   5.106  14.143  0.1751 -0.0855  0.1990
29855W        W44986  14.876  17.694   3.438 -0.1556  0.3156  0.0508
29856W        W44987   8.311   9.831   2.075  0.3300 -0.1980 -0.1474
29857W        W44988   3.508   6.800   0.387 -0.2110  0.2125  0.3582
29858W        W44989  15.342   2.358  15.457 -0.0494  0.1345  0.1410
29859W        W44990   7.633   3.028  14.900 -0.0128 -0.2328  0.1589
29860W        W44991   3.939  12.565  10.241 -0.0272  0.2683  0.0005
29861W        W44992   5.382  15.037   0.985 -0.1706 -0.3048 -0.1139
29862W        W44993  17.106   2.975   2.019 -0.2206  0.0084 -0.0186
29863W        W44994  18.708  10.133  15.508  0.0360  0.1806 -0.0593
29864W        W44995   9.701   9.377  11.178 -0.0086  0.1868  0.2765
29865W        W44996   8.799   4.396   3.196 -0.0573 -0.0815 -0.0592
29866W        W44997  11.738   8.891   1.294 -0.0239 -0.0960 -0.3154
29867W        W44998  11.130  14.562  15.494  0.0101  0.3055 -0.0701
29868W        W44999  13.950  16.721   3.380 -0.2765  0.0193 -0.1322
29869W        W45000  17.938   1.887  13.643 -0.0355 -0.0901 -0.0106
29870W        W45001  11.237   2.292  12.716  0.1404  0.0949  0.3121
29871W        W45002   0.690  16.740  15.512 -0.1087 -0.2829 -0.1355
29872W        W45003   1.713  18.468   2.020  0.0313  0.2675 -0.2645
29873W        W45004  16.789  15.519   3.884  0.0611 -0.2195  0.0396
29874W        W45005  14.989  18.199   3.461 -0.0883  0.2260  0.0217
29875W        W45006  15.107  11.283  14.034  0.0412  0.1378  0.2551
29876W        W45007  11.544  10.499   4.386 -0.2061  0.0664  0.3521
29877W        W45008   6.623  11.354  11.829 -0.2208 -0.0240 -0.1490
29878W        W45009   9.043   0.131   1.147  0.3065 -0.1331 -0.2498
29879W        W45010   4.134  17.415   2.968 -0.1123 -0.0307 -0.1141
29880W        W45011   1.466   9.577   2.312  0.1257 -0.4062  0.1361
29881W        W45012   5.498   4.906   3.830  0.1820 -0.1967 -0.0828
29882W        W45013  16.342  15.394   3.715  0.4827  0.2178  0.0505
29883W        W45014  10.114  16.016   9.198 -0.1016 -0.3612  0.0393
29884W        W45015  13.524  17.924   1.630 -0.3109  0.1639  0.0090
29885W        W45016   8.973   6.388  15.740 -0.0656  0.0692 -0.1131
29886W        W45017  17.508   6.374   0.786 -0.0973 -0.0030 -0.2244
29887W        W45018  11.858  15.026   3.951 -0.1258 -0.1953 -0.0875
29888W        W45019   3.105   6.593  14.301 -0.0400 -0.0409 -0.1955
29889W        W45020   6.977   2.621  12.818  0.2089 -0.0035  0.0702
29890W        W45021  12.868   6.484  10.932 -0.5054 -0.0193 -0.0495
29891W        W45022  12.912  16.131  11.983  0.3460  0.0050 -0.1419
29892W        W45023   7.209  17.053   3.820 -0.0455 -0.0850  0.1105
29893W        W45024  10.724   2.930  10.964 -0.0817  0.2660 -0.1885
29894W        W45025   2.034  17.462  14.629 -0.2183  0.3378 -0.3552
29895W        W45026  11.675   4.480   2.773 -0.1191  0.3476 -0.0613
29896W        W45027   8.491  10.465  13.750 -0.0362  0.1306  0.2039
29897W        W45028   2.273  16.476  14.153 -0.0879  0.1891 -0.0276
29898W        W45029   0.215  14.195   3.365  0.2776  0.1787  0.1745
29899W        W45030   8.536  11.144  10.954 -0.1956 -0.1442 -0.1242
29900W        W45031  11.227  16.975  15.691 -0.2590 -0.2781 -0.0120
29901W        W45032   1.486   3.903  12.680  0.0639 -0.3820 -0.3915
29902W        W45033  13.213  16.108   2.618 -0.2390  0.1692 -0.0884
29903W        W45034   0.410  17.103  14.217  0.4684 -0.2733 -0.4026
29904W        W45035   2.941  12.792  10.926 -0.0856  0.1241  0.1565
29905W        W45036   6.643  18.361  15.649 -0.1213  0.2153 -0.0589
29906W        W45037  16.308   5.856   1.742 -0.0903  0.4152  0.1638
29907W        W45038  10.420  18.614  12.793 -0.1645 -0.3117 -0.0268
29908W        W45039  14.266  11.462   4.308  0.1517  0.0627 -0.2178
29909W        W45040  15.077  12.672   4.543 -0.2806 -0.1330 -0.2111
29910W        W45041   5.789   5.898   0.990  0.0708  0.4701 -0.2140
29911W        W45042  17.962  10.625   2.606  0.2013 -0.0261  0.5639
29912W        W45043  10.501   5.365   0.073  0.0231  0.0316  0.0970
29913W        W45044  12.403   1.803  15.560 -0.2304  0.1573 -0.0635
29914W        W45045  15.713  16.401   2.965 -0.3108 -0.1018  0.3799
29915W        W45046   0.032  15.193   1.834 -0.0032 -0.0309  0.0431
29916W        W45047   9.498  17.843  11.876  0.2824 -0.0538  0.1136
29917W        W45048   3.466  13.438   3.381 -0.0439 -0.0435  0.0641
29918W        W45049   6.000   1.050   4.024  0.1074  0.0202  0.2581
29919W        W45050  13.447   4.020   1.960 -0.2198  0.0436  0.0550
29920W        W45051  18.091   6.211   6.166 -0.2340 -0.2213 -0.0741
29921W        W45052   4.952  17.603   3.793 -0.4200 -0.0522  0.2434
29922W        W45053  11.904  18.278  15.607 -0.2007  0.1851 -0.2847
29923W        W45054   8.508   1.973   2.251 -0.0380 -0.1643  0.0136
29924W        W45055   3.978  11.207   0.930 -0.2989 -0.2291 -0.0025
29925W        W45056   9.015  14.800   5.103  0.2444 -0.0867  0.3142
29926W        W45057   9.162  10.058  13.200  0.2295  0.0960  0.0107
29927W        W45058   4.331  17.594   4.578 -0.2780 -0.3128  0.0182
29928W        W45059   8.215  13.063  15.239  0.1053 -0.1038 -0.2039
29929W        W45060  13.003  11.821  13.872  0.0668 -0.1268 -0.3008
29930W        W45061   2.025  10.143  11.602  0.3123  0.1534 -0.1554
29931W        W45062  17.181  17.246  13.469 -0.1556  0.1430 -0.0495
29932W        W45063   2.182   5.853   3.177 -0.1665  0.0340  0.1913
29933W        W45064   5.302  14.868  13.775 -0.1428 -0.0529  0.3419
29934W        W45065   0.185   5.594  11.928 -0.1083 -0.1388  0.0611
29935W        W45066  10.358  13.432  14.420  0.1467 -0.2575  0.0127
29936W        W45067   6.400   3.847   1.850 -0.2977 -0.0799  0.1121
29937W        W45068   3.193   7.872   3.578 -0.2488 -0.1277  0.0675
29938W        W45069   5.740   1.118   0.297  0.2281  0.0957 -0.1319
29939W        W45070  12.922   3.734   2.716  0.0234 -0.0580  0.1015
29940W        W45071   9.185   8.787   1.041 -0.1853  0.0243 -0.2471
29941W        W45072  14.068   4.884   1.325 -0.1415  0.0343 -0.0052
29942W        W45073   0.600   7.608  10.806 -0.2223  0.2290 -0.1364
29943W        W45074   9.288  14.329   2.775 -0.3237 -0.2152  0.3187
29944W        W45075   5.659  14.403   5.514  0.1782 -0.4563  0.1141
29945W        W45076   0.233  18.271   4.655  0.1148  0.3658 -0.1818
29946W        W45077  13.626  11.068  14.624  0.1588 -0.1548 -0.2366
29947W        W45078  13.000   3.836  15.012  0.0380 -0.0287  0.0063
29948W        W45079   9.502   8.326   0.890  0.0435 -0.5248  0.0455
29949W        W45080  16.772   3.879   2.640 -0.1023 -0.2815 -0.3083
29950W        W45081  14.656  16.167   3.840  0.7164 -0.3590  0.2084
29951W        W45082   5.718  12.184   1.678  0.3619 -0.0557 -0.1007
29952W        W45083   1.586  17.741  11.762  0.1898 -0.2880 -0.1865
29953W        W45084   6.569   3.260  11.505  0.0662  0.1579  0.1794
29954W        W45085  14.809   6.298   1.835  0.2106  0.0031 -0.1909
29955W        W45086   0.785   2.313   2.999  0.1097 -0.0096  0.1048
29956W        W45087  18.724   4.839   2.260 -0.1445  0.3118  0.0104
29957W        W45088  14.818   4.221  10.831 -0.2951  0.1891  0.2703
29958W        W45089   6.160   4.683   5.741 -0.1408 -0.1320 -0.0161
29959W        W45090  16.653  16.028   0.229 -0.0657  0.0978 -0.2151
29960W        W45091   1.721  13.950   3.725 -0.1163  0.2407 -0.0649
29961W        W45092  13.912  10.616  13.371  0.0800  0.1029  0.1727
29962W        W45093  16.238  15.151  13.932  0.1019  0.1443  0.5251
29963W        W45094  14.129   9.536  11.475 -0.1275 -0.0582  0.3692
29964W        W45095   5.072   2.454   5.744  0.2890 -0.0495 -0.1389
29965W        W45096   9.408   5.066   1.895  0.5126  0.0097 -0.0086
29966W        W45097  14.243   7.027   4.996 -0.1579 -0.0843  0.0352
29967W        W45098  12.653   9.133   0.456 -0.4195 -0.1595 -0.2536
29968W        W45099   8.958   1.814   5.447  0.1592  0.1802 -0.2171
29969W        W45100  15.200   2.386   4.882 -0.2108  0.0593 -0.0999
29970W        W45101   4.663   2.580   9.981  0.1020 -0.1452  0.0950
29971W        W45102   8.574   7.156   4.558  0.2371  0.1360 -0.1030
29972W        W45103  14.164  12.908  10.294  0.0865 -0.2336  0.0279
29973W        W45104  13.767  11.797   3.008 -0.0181  0.0830 -0.1079
29974W        W45105   5.799   2.971   2.002 -0.0664  0.2978 -0.1836
29975W        W45106  17.037   9.317   4.604 -0.0600  0.0073 -0.0509
29976W        W45107   5.390  15.736  14.169  0.1637 -0.0141 -0.4108
29977W        W45108  13.692   4.391   0.181 -0.0904 -0.0578 -0.1340
29978W        W45109  15.933  18.470  10.112 -0.1178 -0.2012  0.0878
29979W        W45110  13.401   3.485  15.421  0.0719 -0.1364  0.2059
29980W        W45111   6.871  12.554  11.499 -0.2227 -0.0942 -0.1001
29981W        W45112  12.321   4.588  14.217 -0.0896 -0.0612 -0.2498
29982W        W45113  17.878  17.404  14.157 -0.0106  0.2550 -0.1696
29983W        W45114  18.460   4.755   1.778 -0.1148 -0.2966  0.0035
29984W        W45115   6.922  17.889   3.613  0.0082 -0.0018  0.1265
29985W        W45116   5.564   2.960  12.338  0.1398 -0.3427 -0.0007
29986W        W45117  10.223  18.403  15.359 -0.1885 -0.1945  0.2649
29987W        W45118  14.711  12.808  12.341 -0.1323  0.1729  0.0679
29988W        W45119  12.911   7.022  13.172  0.1829  0.0865 -0.0039
29989W        W45120  17.989   3.182   2.977 -0.1997  0.0891  0.0222
29990W        W45121   4.691   3.982  14.914 -0.2194 -0.0986  0.0710
29991W        W45122   0.768  18.602  11.072 -0.1232  0.2052  0.3255
29992W        W45123  11.131   3.324   1.898 -0.1258  0.0277  0.1134
29993W        W45124   4.434  16.220  11.885 -0.0658 -0.2794  0.2664
29994W        W45125  16.645  11.715  12.961 -0.2480 -0.3267  0.2874
29995W        W45126   7.339  11.307  14.577  0.2349  0.3650 -0.2533
29996W        W45127   4.697  10.598   3.252  0.0622  0.4287  0.2071
29997W        W45128  13.892  15.586  12.481  0.0092  0.0080  0.2050
29998W        W45129  12.313  14.127  15.279  0.0926 -0.0394 -0.1836
29999W        W45130  16.266  14.407   5.344 -0.0487 -0.2134  0.0780
30000W        W45131  18.155   7.236  13.086  0.0287  0.2692  0.2056
30001W        W45132   0.683   5.431  12.049  0.2847  0.0658  0.1116
30002W        W45133  11.055   0.812   3.459 -0.3468  0.2051  0.1236
30003W        W45134  11.032   9.575   0.682 -0.3164 -0.3232  0.1420
30004W        W45135  17.893   0.972   4.474  0.1390  0.0818  0.1572
30005W        W45136   4.975  15.337  11.810 -0.1125  0.2115  0.0850
30006W        W45137   8.978  14.195  14.945  0.0181  0.1262 -0.2047
30007W        W45138   0.043  10.972  10.943  0.3333  0.0218  0.2660
30008W        W45139   5.094   9.550  12.220 -0.2300  0.1632 -0.1842
30009W        W45140   7.372  18.509   1.986  0.0368  0.1240  0.2115
30010W        W45141   2.103   5.200  11.645 -0.1948 -0.0606 -0.1022
30011W        W45142   8.549   8.511   3.398 -0.2473  0.1350 -0.3851
30012W        W45143  15.749  11.525  13.777  0.3663 -0.0696  0.3472
30013W        W45144  13.039   9.633  10.653 -0.0073  0.2623  0.2087
30014W        W45145  10.502   7.152   3.420  0.1785 -0.0523 -0.0787
30015W        W45146  12.486  14.830  11.397 -0.0616  0.2709  0.2568
30016W        W45147  13.168   7.172   1.734  0.1838 -0.1392 -0.0094
30017W        W45148  10.641   0.324   0.089  0.1040 -0.2894 -0.2824
30018W        W45149   9.655   3.683  12.831 -0.2098  0.1099  0.3330
30019W        W45150  12.047  12.459  15.292  0.3916 -0.1932  0.1222
30020W        W45151   9.798   7.985  14.575  0.2922 -0.0741  0.6227
30021W        W45152  15.517   1.991   3.836 -0.0805 -0.1304  0.0451
30022W        W45153   3.416   3.712   0.889  0.2392  0.2072 -0.1020
30023W        W45154   8.861   0.280  14.445  0.2212  0.1660 -0.2913
30024W        W45155  10.945  17.465  12.849  0.0902 -0.1343 -0.3318
30025W        W45156   6.250  14.064  13.725  0.1899 -0.0318 -0.1579
30026W        W45157   4.786   4.522  15.165  0.1660  0.1127 -0.0684
30027W        W45158   6.810  15.061   2.841 -0.2444  0.2209  0.3968
30028W        W45159  13.944  11.141   2.088 -0.0669 -0.0151  0.2833
30029W        W45160  13.121  18.071   3.973  0.2085 -0.0162  0.0179
30030W        W45161   9.102   4.090  13.027  0.0571  0.1461 -0.0442
30031W        W45162  16.031   7.803  10.645  0.1336 -0.0663  0.3435
30032W        W45163  18.011   9.565   2.750  0.0959 -0.1610  0.1457
30033W        W45164   8.037   2.746   5.361  0.2084 -0.2665 -0.0171
30034W        W45165   1.247  17.001   1.302  0.0667 -0.0066  0.3163
30035W        W45166   9.527   4.808  14.388  0.0251 -0.0883 -0.2037
30036W        W45167  17.904   3.742   9.535 -0.0230  0.2003  0.0555
30037W        W45168   4.007   6.650  10.901  0.0643  0.0974  0.5323
30038W        W45169  13.479  10.661   1.511 -0.3843 -0.0133 -0.2171
30039W        W45170  12.181  16.587   0.922  0.2009  0.0922 -0.2048
30040W        W45171   8.800   0.126   1.639 -0.5430 -0.0749 -0.0745
30041W        W45172  16.768   7.423   0.832  0.1681 -0.0105  0.1385
30042W        W45173  18.099   8.399  15.588 -0.1616  0.0492 -0.1264
30043W        W45174  14.141  14.054  12.258  0.2278 -0.2810  0.1759
30044W        W45175   9.091  18.502  12.411 -0.1991  0.0444 -0.0933
30045W        W45176  15.678   3.869  12.091 -0.3088 -0.0551 -0.0926
30046W        W45177  18.691   2.964   5.702  0.1407 -0.1710 -0.0256
30047W        W45178  10.408  15.103  14.142 -0.1167 -0.3190  0.4347
30048W        W45179   8.584   9.055   1.290 -0.4362 -0.0083 -0.1853
30049W        W45180  10.600   6.338  15.511 -0.0403 -0.0041 -0.0842
30050W        W45181   6.901   3.573   1.356 -0.1569 -0.1651 -0.0147
30051W        W45182   3.221   2.034  11.892  0.3514  0.2855  0.1384
30052W        W45183  16.066   8.012  14.585 -0.0073 -0.1144  0.0821
30053W        W45184   8.934  15.616   1.939 -0.0960 -0.0312 -0.4007
30054W        W45185  14.100   4.480  12.431 -0.2548 -0.0894  0.0670
30055W        W45186  16.829   6.003   3.957 -0.4365 -0.0059 -0.0892
30056W        W45187  12.238  12.952  15.426  0.0462  0.0424  0.1177
30057W        W45188  14.550   1.168   9.733  0.1895  0.2101  0.0877
30058W        W45189  11.389   1.446   6.193 -0.1465 -0.2248 -0.0098
30059W        W45190  14.366   7.551   0.277  0.1718  0.2175 -0.1609
30060W        W45191   4.147  13.094   3.839  0.0035  0.1185 -0.2235
30061W        W45192   2.330   7.327   3.720  0.0431  0.0415 -0.1948
30062W        W45193   0.399   3.175   2.063  0.0746 -0.1955  0.0819
30063W        W45194   2.853   0.716  13.238  0.0225 -0.0046 -0.0129
30064W        W45195   8.532  15.944   4.873 -0.1470  0.1084 -0.0258
30065W        W45196  15.590  16.571  12.425  0.0540  0.0333 -0.2133
30066W        W45197   3.890   7.234  14.705 -0.2403 -0.0359  0.0801
30067W        W45198   9.039  17.517   1.196 -0.0056 -0.3446 -0.0412
30068W        W45199   7.638   0.798  12.379 -0.2799 -0.0730 -0.2014
30069W        W45200   0.444  14.484  12.565 -0.0825  0.0996 -0.1677
30070W        W45201  12.841   5.294  15.147  0.1373 -0.2461  0.1270
30071W        W45202  12.666   8.531  13.857 -0.0006  0.0964 -0.0296
30072W        W45203  15.557  13.725  12.673 -0.1362 -0.3393 -0.3445
30073W        W45204  13.166   8.623  13.790 -0.1063 -0.1239  0.0628
30074W        W45205  16.130   3.692   0.013 -0.0930 -0.0078  0.2800
30075W        W45206   5.688   2.138   1.383  0.0272 -0.0707  0.0495
30076W        W45207  12.029   5.256   0.722  0.0841  0.0116  0.0381
30077W        W45208   0.803  11.737  11.063 -0.3264 -0.1717  0.4443
30078W        W45209  16.210   4.594   4.684 -0.4294 -0.1872  0.0904
30079W        W45210   7.253  12.064  15.417  0.0456 -0.2149  0.0347
30080W        W45211   5.633  15.328  14.396  0.0311 -0.1320  0.1993
30081W        W45212   9.872   0.243   5.744  0.2718  0.0736 -0.0508
30082W        W45213  17.848  16.390  14.490 -0.1022  0.0835 -0.1310
30083W        W45214  16.756   4.097   2.030 -0.0390  0.0095  0.0470
30084W        W45215   1.788  15.219   2.856 -0.0165  0.1828  0.1873
30085W        W45216   6.509   6.448   0.883  0.1734 -0.1300  0.0121
30086W        W45217   6.499   5.961  12.846  0.2468 -0.0715 -0.1614
30087W        W45218   2.426   3.210  13.084 -0.0433  0.1123  0.0894
30088W        W45219  11.586  12.267  15.335  0.0228  0.1516  0.1440
30089W        W45220   7.419  10.005  12.844 -0.1771  0.1785 -0.2476
30090W        W45221   6.997  15.151   1.031 -0.2440 -0.0014  0.2478
30091W        W45222  14.412   3.024  14.163 -0.0882 -0.1197  0.2593
30092W        W45223   7.746   8.355  13.278 -0.0112 -0.1111  0.0047
30093W        W45224   9.952   9.111  11.967  0.1787  0.2639  0.1459
30094W        W45225   0.755  17.105   0.079 -0.1403  0.0370 -0.0602
30095W        W45226   7.332   8.132  14.778 -0.0340 -0.1228  0.0833
30096W        W45227  17.221  13.041   2.201 -0.1334 -0.3000 -0.1695
30097W        W45228   4.487  17.786   3.783  0.0663 -0.2888 -0.2190
30098W        W45229   0.298   8.780   5.027  0.1525 -0.0040 -0.2265
30099W        W45230   7.300  11.152  10.529  0.0553  0.1439  0.2584
30100W        W45231   8.033  11.666  15.518  0.2643  0.1907  0.0259
30101W        W45232   0.411   8.587  13.655 -0.0436  0.2227 -0.1562
30102W        W45233  11.189   5.672  13.188 -0.1578 -0.3249 -0.2066
30103W        W45234   4.009   5.039  13.962  0.0024 -0.1047  0.0532
30104W        W45235   5.125   5.203  12.580 -0.0557  0.1757  0.1575
30105W        W45236  11.340   9.272  13.372 -0.3145  0.1826 -0.0682
30106W        W45237   9.871   3.888  11.789 -0.0486 -0.1029 -0.0900
30107W        W45238   0.770   3.636  13.676  0.1801 -0.0479 -0.0271
30108W        W45239  13.316  12.494  10.525  0.1006  0.2478  0.0838
30109W        W45240   7.640   7.013  14.087 -0.1708 -0.2114  0.0547
30110W        W45241   9.988   7.125   5.422  0.2008  0.4031  0.0440
30111W        W45242   3.900   6.096  12.025 -0.1104  0.1268 -0.0825
30112W        W45243   5.541   1.360  12.697 -0.0653 -0.3535  0.1314
30113W        W45244   8.556   0.594   0.450  0.0326  0.1692 -0.1450
30114W        W45245   7.732   6.071   1.144  0.0752  0.1354 -0.1892
30115W        W45246  16.317   3.288  15.119 -0.1190  0.2411 -0.1308
30116W        W45247  18.371   7.283  12.171 -0.1253  0.1107 -0.0000
30117W        W45248  17.343   2.131   3.564  0.1672 -0.1339 -0.0234
30118W        W45249   2.885  11.673  13.782  0.1058  0.3040 -0.0179
30119W        W45250   9.083   3.534  15.482  0.0585 -0.1066 -0.0479
30120W        W45251  10.006   2.754   4.295 -0.1530  0.2782 -0.2574
30121W        W45252  10.207  14.605  13.792  0.0581 -0.1671 -0.0192
30122W        W45253   1.494  16.465   4.219 -0.1957 -0.1435 -0.0541
30123W        W45254   2.634   0.399  14.927 -0.0227  0.2367 -0.0490
30124W        W45255   3.482  13.852   4.251  0.1043  0.0997  0.1085
30125W        W45256   3.994   1.711   0.896  0.0094 -0.4618 -0.0774
30126W        W45257  15.827  15.742   4.721  0.1558 -0.1250  0.1506
30127W        W45258   7.651  13.042  11.950 -0.1997  0.1841 -0.1832
30128W        W45259   7.859  10.078   0.563  0.0024  0.0381 -0.1043
30129W        W45260   2.208   8.240   1.346  0.2498 -0.0295  0.1577
30130W        W45261   7.631   1.181   3.016  0.0346 -0.0134 -0.1207
30131W        W45262  15.741   1.502  12.513  0.2059  0.1353  0.0181
30132W        W45263  18.435  14.511   3.400 -0.1962  0.3524  0.0486
30133W        W45264   5.920   6.987   4.479  0.1394 -0.0460  0.0353
30134W        W45265  16.152  14.354   4.804  0.0541  0.1210  0.2643
30135W        W45266  18.464   8.151  15.318 -0.3053 -0.3485  0.2471
30136W        W45267   3.758   0.965   2.964 -0.2284 -0.1335 -0.1548
30137W        W45268   2.977   2.136   3.866 -0.0870 -0.2660  0.0115
30138W        W45269   7.986   2.966   2.143 -0.1391  0.4719 -0.1068
30139W        W45270  17.640   7.772   4.498 -0.1116 -0.2420 -0.2036
30140W        W45271  15.698   1.916  14.140 -0.3277  0.1090  0.0437
30141W        W45272  10.939   0.418   4.992  0.1762  0.0372 -0.2763
30142W        W45273   4.205  17.290  12.403 -0.0114 -0.2396 -0.1561
30143W        W45274  18.354   8.741  10.852  0.2634 -0.0439 -0.0616
30144W        W45275  13.420  14.934   0.975  0.0941  0.0179 -0.1521
30145W        W45276   8.732  11.238  13.038 -0.2469  0.4524  0.0472
30146W        W45277  12.632   7.581  11.224  0.1700  0.1751  0.0712
30147W        W45278   4.102  12.349   3.113  0.2600  0.0222 -0.2227
30148W        W45279   8.014   0.652  11.031 -0.0529  0.2031  0.0084
30149W        W45280  16.869   5.936   5.964  0.0467  0.2060 -0.3438
30150W        W45281  17.458   1.702   0.122 -0.2187 -0.0930 -0.0850
30151W        W45282   4.953  14.583  12.538 -0.3736  0.0282  0.2407
30152W        W45283  18.064  13.029  10.908  0.2919  0.1209  0.4052
30153W        W45284  10.868   1.598  10.386 -0.3153 -0.2114 -0.2247
30154W        W45285  18.341   1.146  13.453  0.4647  0.2785  0.2574
30155W        W45286  15.633  16.471  15.724  0.1335 -0.3720 -0.0847
30156W        W45287   9.561   9.049   3.609 -0.0291 -0.1528 -0.2416
30157W        W45288  16.881   5.769  13.748 -0.1591 -0.2729 -0.2336
30158W        W45289  16.309  10.290   2.842 -0.2711 -0.2849 -0.0941
30159W        W45290  16.059   6.115  10.338 -0.0839  0.2293 -0.0488
30160W        W45291   8.396  11.777   1.924 -0.1305  0.3520  0.0511
30161W        W45292  15.826   9.612  15.062 -0.0306 -0.2500 -0.1600
30162W        W45293   3.174   4.648  14.352  0.2663 -0.1417 -0.0169
30163W        W45294  13.233   5.459   0.375  0.3341  0.4781  0.1101
30164W        W45295  18.402   6.678  12.335 -0.0960 -0.0343 -0.2004
30165W        W45296  13.025  13.672  13.282 -0.0681  0.0621 -0.0486
30166W        W45297  16.881  13.058   2.660 -0.4002 -0.2195 -0.2425
30167W        W45298   0.190  10.540  11.229  0.0483 -0.0532 -0.0838
30168W        W45299  10.007  12.105   2.602  0.0214 -0.0637  0.1684
30169W        W45300   7.590  13.470   0.793 -0.3658 -0.1428  0.0597
30170W        W45301  13.524  16.534   2.389 -0.0107 -0.2517  0.2875
30171W        W45302  14.645  14.202  13.057  0.0508 -0.0528  0.1348
30172W        W45303   9.805   9.814   0.148 -0.1441 -0.1998 -0.0534
30173W        W45304   6.643   0.923  13.350  0.0163 -0.6886  0.1113
30174W        W45305  11.433   0.937  13.718 -0.0635  0.0279  0.2037
30175W        W45306  11.100   8.375   3.157 -0.1289 -0.1015  0.1614
30176W        W45307  18.403   3.093  12.859 -0.1834 -0.3215 -0.1475
30177W        W45308  11.063   8.051  11.554 -0.2751  0.1252  0.3496
30178W        W45309  12.643  13.905   2.660 -0.0989  0.0922 -0.3094
30179W        W45310  16.952   1.777  13.595  0.0018  0.1615  0.0377
30180W        W45311   7.625  13.573  11.073 -0.0359 -0.1661 -0.4954
30181W        W45312   5.611  17.524  14.192  0.0355 -0.0669 -0.0756
30182W        W45313   9.860  15.712   1.783 -0.0175  0.0687 -0.0474
30183W        W45314   9.440   3.063   1.979 -0.0125 -0.1368  0.3421
30184W        W45315   5.763   9.461  13.145 -0.1682 -0.0700  0.0274
30185W        W45316  11.592  12.980   2.662 -0.0784 -0.0994 -0.0282
30186W        W45317   0.683   2.854  12.822 -0.1639  0.3081 -0.0254
30187W        W45318   1.739  15.674  15.082 -0.1308 -0.1796  0.0874
30188W        W45319   5.050  11.764  11.584 -0.0044 -0.0857  0.1712
30189W        W45320  16.680   4.786   5.923 -0.0440  0.3303 -0.3102
30190W        W45321   5.506   1.321  11.758  0.0170 -0.0573 -0.3171
30191W        W45322  12.634  10.010   2.728  0.2957 -0.0462  0.4451
30192W        W45323  10.115   9.189  13.855 -0.1763 -0.1414 -0.3442
30193W        W45324   0.499   4.196  14.458 -0.2944  0.0096  0.1168
30194W        W45325   0.651  17.029   4.467  0.0778 -0.1103  0.1641
30195W        W45326  16.410  17.472   1.486 -0.0079 -0.1439  0.0780
30196W        W45327  18.101   5.794  10.527 -0.0414 -0.3502  0.1253
30197W        W45328  14.220  10.039   0.401 -0.0684  0.1504  0.2350
30198W        W45329   8.515   0.285  14.075 -0.0234  0.2067 -0.0688
30199W        W45330  12.969   1.318  11.825  0.0353 -0.1023  0.3548
30200W        W45331   9.854  14.481  13.020 -0.0585 -0.3020 -0.1427
30201W        W45332   5.776   7.182   2.410  0.1394 -0.1864 -0.0583
30202W        W45333   1.377   7.189  11.502 -0.0650 -0.2306  0.1490
30203W        W45334   7.475   9.019  14.917 -0.0385  0.1695  0.1651
30204W        W45335   2.038  11.227   5.242  0.2091  0.0538 -0.1408
30205W        W45336  11.111   4.179  14.742  0.0518 -0.0998 -0.1370
30206W        W45337  15.208  13.255   3.644  0.0045 -0.0330 -0.1204
30207W        W45338   8.858   8.477   2.974  0.1838 -0.0371  0.2244
30208W        W45339   4.772   9.326  14.251  0.2918  0.1902  0.0547
30209W        W45340   6.301  13.272   1.339 -0.1331 -0.0300  0.0201
30210W        W45341   2.139  10.619  12.544  0.1072 -0.0533 -0.1631
30211W        W45342  10.131   3.773   2.330 -0.2827 -0.0774 -0.0192
30212W        W45343   4.961  16.253   4.673  0.2696 -0.0700 -0.2887
30213W        W45344   8.510   5.659   5.895 -0.0545 -0.2072 -0.3586
30214W        W45345   8.888   2.058  13.477  0.2042 -0.0607 -0.2197
30215W        W45346  18.314   3.610   3.032 -0.4758  0.0359 -0.1673
30216W        W45347   4.291  10.238   0.417  0.0166  0.0370  0.1195
30217W        W45348   4.332  10.851  13.557 -0.0032  0.3541 -0.0539
30218W        W45349  17.336   6.558   5.628 -0.1593  0.0178  0.1566
30219W        W45350   0.910  11.255   2.502  0.2100 -0.2889 -0.5419
30220W        W45351   6.492  14.566  11.180  0.0224  0.1315 -0.1328
30221W        W45352  11.780   0.059  10.470  0.0688  0.0294 -0.2255
30222W        W45353  11.807   4.995   1.415 -0.1489  0.0018  0.0931
30223W        W45354  11.187  17.868   1.610 -0.1428  0.3484  0.2359
30224W        W45355   7.980   7.620   4.694 -0.1590  0.0851  0.0015
30225W        W45356  18.175   5.883   0.907  0.0026 -0.4122  0.0307
30226W        W45357  17.520  13.450  10.112 -0.0357  0.2317 -0.0158
30227W        W45358   9.843   6.622   1.139  0.0487  0.0887  0.0224
30228W        W45359  15.350  17.806  11.547  0.1090 -0.2404  0.2494
30229W        W45360  14.373  12.655  14.407 -0.3733  0.2314 -0.0812
30230W        W45361   8.197  11.118   7.577 -0.1079 -0.0864  0.1287
30231W        W45362  12.034   5.925  15.085  0.1779  0.0040 -0.1029
30232W        W45363  11.836   1.621  12.328  0.0691  0.2558 -0.1215
30233W        W45364   3.883  18.712   0.773 -0.2295  0.0769  0.1643
30234W        W45365   3.216  17.210   5.403 -0.0897  0.1415  0.0328
30235W        W45366  15.943   1.618   3.453 -0.1521  0.1957 -0.0467
30236W        W45367  11.283   2.738   1.394  0.0877  0.1201  0.2810
30237W        W45368   9.173   4.093  15.636  0.1407 -0.1121  0.0582
30238W        W45369   9.436   5.899   2.402 -0.2320  0.0368 -0.2612
30239W        W45370  18.141   3.158  13.837 -0.0523 -0.0022 -0.2090
30240W        W45371   3.531  16.012   1.662 -0.0536 -0.4049 -0.1008
30241W        W45372  16.603   7.078  12.504  0.5504  0.3917  0.0685
30242W        W45373   7.089   2.682   3.901  0.0308 -0.0457 -0.1628
30243W        W45374   0.588   2.702  10.841  0.0178 -0.1151 -0.1073
30244W        W45375   8.680   8.575  10.532 -0.0102 -0.1308 -0.0591
30245W        W45376  16.145  16.581   1.355 -0.1799  0.1342 -0.0496
30246W        W45377   9.906   7.948  11.347  0.4094 -0.2045  0.0920
30247W        W45378  11.102   6.626   3.021  0.0279 -0.3639  0.0040
30248W        W45379  13.837  15.953  12.849 -0.1246  0.2460 -0.1635
30249W        W45380   0.402  14.030   5.404 -0.0565 -0.2213  0.2784
30250W        W45381   4.275   5.930  13.368  0.2511  0.2025  0.3660
30251W        W45382   2.666  17.271  11.439 -0.0947  0.1264 -0.1106
30252W        W45383   1.831   1.504   2.037 -0.0101 -0.4404  0.0441
30253W        W45384   4.551   9.752   0.399  0.2261 -0.3534 -0.0095
30254W        W45385   4.722   4.674   4.084 -0.2154 -0.0506  0.0985
30255W        W45386   7.047  10.673   3.818  0.3095 -0.1861  0.1310
30256W        W45387   1.726  12.033   4.945  0.1256 -0.2092  0.0603
30257W        W45388   1.797  15.406   1.907 -0.2997 -0.4083  0.0062
30258W        W45389   0.274  18.123   0.997 -0.0429 -0.1384  0.4047
30259W        W45390   0.082   8.986   4.499  0.0098 -0.0421 -0.3168
30260W        W45391  17.518   2.807  11.048  0.1547  0.1827 -0.2707
30261W        W45392  15.555   7.659  13.974  0.1252 -0.0718  0.0769
30262W        W45393   7.935  17.936   0.923  0.2697 -0.1731 -0.1210
30263W        W45394  18.679  17.337  11.904  0.0132 -0.0060 -0.0581
30264W        W45395   0.445   9.387   4.817 -0.1941 -0.1019  0.3393
30265W        W45396   2.822  18.372   4.033  0.1411 -0.1342  0.0725
30266W        W45397   6.328  17.523   4.038 -0.0270 -0.0879  0.2337
30267W        W45398   5.266   6.681  15.707 -0.0831  0.4126 -0.3009
30268W        W45399  15.948   3.030  13.662  0.3584  0.1605 -0.2968
30269W        W45400  10.914   3.312  13.560 -0.2736 -0.2325  0.3559
30270W        W45401  17.581   1.373   4.261 -0.1160 -0.1927  0.1007
30271W        W45402  14.667   7.712  13.988  0.1733  0.0740 -0.0007
30272W        W45403  14.595  17.678  14.964 -0.0688  0.2084  0.3088
30273W        W45404  17.830  16.522   2.339  0.2270  0.1674  0.1982
30274W        W45405  13.238   2.174   4.437 -0.1035 -0.0115  0.1129
30275W        W45406   3.148  15.135  12.702 -0.1267  0.1681 -0.1435
30276W        W45407  12.424  15.645   0.475 -0.1653  0.0459  0.0938
30277W        W45408   7.074   5.107  14.222 -0.3573  0.0484  0.1950
30278W        W45409   1.308  15.095   2.946 -0.0242 -0.2305 -0.0310
30279W        W45410  10.203   6.529  15.413  0.2352  0.0422  0.2109
30280W        W45411   8.321   1.855   0.202 -0.1805  0.1837  0.4808
30281W        W45412  13.115   9.197   0.772  0.0342 -0.1283  0.0522
30282W        W45413   1.822   4.496  10.918  0.0704  0.3108  0.1126
30283W        W45414  18.667   2.119  14.956  0.1315 -0.0438  0.1079
30284W        W45415   0.795  11.288   5.027 -0.0891 -0.2115 -0.1524
30285W        W45416  17.280  13.903  12.506  0.0617 -0.1107  0.1433
30286W        W45417  12.546  14.961   3.282 -0.3163  0.0710 -0.1844
30287W        W45418   6.003  16.696   1.307  0.0553 -0.0082 -0.1623
30288W        W45419   6.644  11.275   0.896 -0.0962  0.1614 -0.0348
30289W        W45420  11.407   1.105  11.968  0.1126 -0.1023 -0.0397
30290W        W45421   3.082  16.285   1.363 -0.3291  0.1753  0.0211
30291W        W45422   9.426  14.034  15.280 -0.0136 -0.2154  0.0783
30292W        W45423  16.857  14.590  14.001  0.0781 -0.1573 -0.2976
30293W        W45424  18.606  11.425   1.647 -0.1191  0.0410 -0.2540
30294W        W45425  16.550   4.304   2.430  0.0414 -0.1138 -0.0404
30295W        W45426  18.342   9.175   0.839 -0.2219 -0.0912  0.3844
30296W        W45427   2.790   0.331  14.182 -0.3233  0.1928 -0.0724
30297W        W45428  14.525  14.058  14.658  0.0062  0.0930  0.1836
30298W        W45429  17.711  10.140   1.837 -0.1485 -0.1409 -0.1494
30299W        W45430  12.376   0.716  10.524 -0.4957 -0.0452  0.2148
30300W        W45431  12.289  11.756  11.341  0.0206  0.3706 -0.1438
30301W        W45432   8.059  12.157  15.578 -0.5425 -0.2161 -0.0255
30302W        W45433  10.926  17.395   3.830 -0.2970 -0.1283 -0.1520
30303W        W45434  13.109   1.977   5.305  0.2730  0.0645  0.2072
30304W        W45435  15.927  12.063   0.528 -0.0735  0.0698  0.4569
30305W        W45436   9.880  14.265   3.166 -0.0392  0.2068  0.1451
30306W        W45437  17.735   6.258  10.581  0.1232 -0.3046  0.2569
30307W        W45438  18.361   1.295  14.953 -0.0138  0.0005  0.1696
30308W        W45439  14.772  12.481   1.195 -0.1594 -0.0047  0.1114
30309W        W45440   3.957   2.355  13.054 -0.1024  0.2975 -0.1508
30310W        W45441   5.022   3.609   2.070  0.2336 -0.4544  0.2968
30311W        W45442   2.645   5.591   3.902  0.2362 -0.2043 -0.1379
30312W        W45443   3.684  15.783   5.077 -0.2000  0.1741 -0.0403
30313W        W45444  16.559  18.244  14.001  0.0577 -0.2122 -0.1510
30314W        W45445   3.655   1.679  10.934  0.0141  0.1402 -0.4135
30315W        W45446   9.178  11.739   0.558  0.1392  0.0006  0.2172
30316W        W45447   9.489   0.775   2.945  0.0462 -0.0873  0.2122
30317W        W45448  17.569  17.812   4.649  0.2308  0.0501  0.2953
30318W        W45449   9.596  15.043  14.515 -0.1825 -0.0275  0.1202
30319W        W45450  17.483   5.693   5.336  0.4407  0.0413  0.2154
30320W        W45451   1.810  15.845  12.950 -0.1149 -0.1113 -0.1299
30321W        W45452  13.570   5.307  12.909 -0.1622 -0.2212  0.0757
30322W        W45453   2.093  18.391  12.591  0.3311  0.2198 -0.1986
30323W        W45454   8.256  13.689  13.165 -0.1294 -0.1303  0.1226
30324W        W45455   7.041   6.412   1.148 -0.0415 -0.0648  0.0791
30325W        W45456   0.152   0.629  15.520  0.2329  0.2077 -0.1826
30326W        W45457   4.682   1.017  12.408 -0.0557  0.3262 -0.0236
30327W        W45458  17.416  13.705  11.330 -0.0621 -0.1027 -0.2680
30328W        W45459  13.427  18.346   3.552 -0.3054 -0.0936  0.1339
30329W        W45460  15.538  10.002  12.157 -0.1364  0.2096  0.1304
30330W        W45461   3.802  10.375   2.746  0.1297 -0.1122  0.0151
30331W        W45462   1.849  16.939   5.096  0.4116  0.0790  0.0279
30332W        W45463   1.546  15.252  14.815  0.3827 -0.3053  0.1957
30333W        W45464   8.325  11.294   2.757  0.2848  0.1306 -0.2277
30334W        W45465  10.871  10.054   4.040 -0.0590  0.1168  0.4170
30335W        W45466   9.297   2.813   1.084 -0.2039 -0.2241 -0.0744
30336W        W45467   2.567   7.803  13.520 -0.1875 -0.0883 -0.2504
30337W        W45468  18.686   8.477  14.853 -0.0162  0.0319  0.1758
30338W        W45469  10.340  11.775   0.414 -0.0381 -0.3471  0.1830
30339W        W45470  17.727  14.116  12.386  0.2154 -0.3319  0.1906
30340W        W45471   3.598  11.726   5.523 -0.0278 -0.1387 -0.1957
30341W        W45472   9.301  17.653   2.666 -0.0237 -0.2569  0.2970
30342W        W45473   7.298  11.429  12.933 -0.0954  0.0949  0.0933
30343W        W45474   5.979   3.463  11.058 -0.1919 -0.2376  0.1770
30344W        W45475  13.403  10.048  14.755 -0.0793 -0.1659 -0.1401
30345W        W45476   5.417   2.816   2.850  0.1348 -0.0046 -0.2202
30346W        W45477  11.102  18.037  14.211 -0.0524  0.2310 -0.3663
30347W        W45478   7.065   9.679  15.555 -0.2070 -0.0944 -0.1203
30348W        W45479  15.427   3.374  12.102 -0.0873  0.0373 -0.0849
30349W        W45480   1.226  14.206  13.598  0.0047 -0.3188 -0.0205
30350W        W45481  18.179   4.384  14.476  0.0563 -0.0997  0.1739
30351W        W45482  17.435  12.710   9.703  0.0435  0.2555 -0.0031
30352W        W45483   7.896  18.393  11.230  0.2332 -0.4939  0.0191
30353W        W45484  12.229   0.966  15.365 -0.1245  0.0470  0.7684
30354W        W45485   5.379  17.336   3.824  0.1571 -0.0000  0.0181
30355W        W45486  11.822  12.598  11.340 -0.2914  0.0592  0.0751
30356W        W45487   5.204   7.530   1.613  0.1030 -0.1749 -0.0344
30357W        W45488   6.018  18.304  11.110 -0.1079  0.1395  0.0208
30358W        W45489  16.064   1.340   4.754  0.1290  0.1443  0.1877
30359W        W45490  18.516  16.364   4.783  0.3235  0.1736 -0.0642
30360W        W45491   3.868   5.117   3.401 -0.0757 -0.0401 -0.1732
30361W        W45492   8.274  10.883  12.979  0.0307 -0.3148  0.0437
30362W        W45493  12.293  15.971  13.664 -0.0472  0.2671 -0.1525
30363W        W45494  13.101  11.560  12.096 -0.4306  0.0435 -0.2561
30364W        W45495   9.600  15.248   0.021  0.2267  0.1933  0.2471
30365W        W45496   6.701  18.711   4.382 -0.0752 -0.3873  0.0102
30366W        W45497   9.739  12.172  11.209  0.0494  0.0656  0.0413
30367W        W45498  13.400  14.264   4.690 -0.0033 -0.1226  0.3377
30368W        W45499   0.961   4.600   3.601 -0.2459  0.2057  0.0964
30369W        W45500   5.855   4.685   0.824 -0.1041 -0.0469 -0.4866
30370W        W45501  10.006  13.905   5.351 -0.0231  0.2034  0.1509
30371W        W45502   4.263  15.768  15.524 -0.0311 -0.2054  0.1376
30372W        W45503  17.657   8.299   2.677  0.0164  0.0916  0.1674
30373W        W45504  17.964  11.092   3.565 -0.0441  0.1975 -0.0111
30374W        W45505  12.668   5.885  10.270  0.0369 -0.1992  0.2350
30375W        W45506   9.783  16.261  14.540 -0.0805 -0.0693  0.1261
30376W        W45507  16.448  16.047  14.500  0.1998 -0.2147 -0.0201
30377W        W45508  13.649  11.638  15.270  0.2970  0.0520  0.2359
30378W        W45509  14.591   8.899  12.226 -0.2646 -0.1638  0.2052
30379W        W45510   8.449  10.222  15.517 -0.1399 -0.7290 -0.0715
30380W        W45511  17.605   4.500  13.175 -0.0102 -0.1227 -0.3271
30381W        W45512  13.433   7.829   4.233  0.0204  0.0845  0.3205
30382W        W45513  17.367  17.808   5.160 -0.1267 -0.3375  0.0466
30383W        W45514   1.699   5.389  15.228  0.2313  0.2032  0.0825
30384W        W45515   0.658  15.441   0.380  0.0915 -0.1603 -0.2299
30385W        W45516  16.886   3.524   3.480 -0.0082 -0.1976  0.2840
30386W        W45517   4.192   3.889  12.927  0.2230  0.1917 -0.3780
30387W        W45518   9.827  15.444  12.443  0.0170  0.0802  0.1173
30388W        W45519   7.281  13.573   4.194  0.0385  0.0549  0.2037
30389W        W45520   8.571  11.866  14.173  0.0545 -0.2203  0.0218
30390W        W45521   4.026  18.286   3.208 -0.0711 -0.3783 -0.4861
30391W        W45522   2.458  12.913  15.502  0.2823  0.1107  0.2902
30392W        W45523   7.707  15.735   0.573  0.0970 -0.0983 -0.1227
30393W        W45524   9.897  12.973   0.276 -0.4704 -0.1652 -0.0361
30394W        W45525   7.123  15.428  15.482  0.0087  0.1186 -0.2685
30395W        W45526  13.474   2.423   2.795 -0.1948  0.0202  0.2752
30396W        W45527  12.918  10.560  15.170 -0.0513 -0.0677 -0.0170
30397W        W45528   8.974   0.499  15.489  0.1332 -0.2224 -0.2575
30398W        W45529  16.344   5.050  12.866 -0.3166 -0.1394 -0.1252
30399W        W45530   8.592  10.970   4.506 -0.1865 -0.0758 -0.1999
30400W        W45531  11.240  14.652  13.134 -0.2960  0.0584 -0.0254
30401W        W45532  13.248  12.999   0.561  0.0273  0.4427 -0.1520
30402W        W45533   6.674   0.577  15.415  0.2391 -0.1249 -0.1681
30403W        W45534   4.679  12.852  10.718  0.1743 -0.1999 -0.0212
30404W        W45535  13.856   4.869   2.611 -0.0302  0.4921  0.1615
30405W        W45536  16.283   1.315   2.094 -0.0544  0.3936 -0.1235
30406W        W45537   4.732   2.726  11.527 -0.0119 -0.2186  0.0101
30407W        W45538  15.161  15.207   1.852  0.1026  0.2262 -0.2690
30408W        W45539  10.945   5.924  15.295  0.2663  0.0815 -0.0804
30409W        W45540   0.084  12.375  13.171  0.0151  0.1052  0.4457
30410W        W45541  13.956  11.296  14.296  0.1966 -0.1231  0.0975
30411W        W45542   6.302  10.517   3.028  0.0548 -0.1001 -0.3423
30412W        W45543   8.207   1.408   0.622  0.0959  0.2684  0.2675
30413W        W45544  15.651   2.037  15.222  0.0555  0.0024 -0.0953
30414W        W45545   3.709  12.960   1.069 -0.2273  0.1328 -0.2231
30415W        W45546   8.940   7.423  11.204  0.1130 -0.0637  0.1762
30416W        W45547   3.462   3.377   3.521  0.2703 -0.1492 -0.0843
30417W        W45548   5.932  12.758  10.599  0.0679 -0.1053 -0.0252
30418W        W45549   3.127  11.524   2.623 -0.1354  0.0995 -0.1170
30419W        W45550   7.825   4.751   1.052 -0.0558 -0.0124  0.0751
30420W        W45551   2.928   1.119  11.816 -0.1851  0.0412 -0.1615
30421W        W45552   8.327   5.680   0.254  0.1707  0.2116  0.0523
30422W        W45553   5.050  18.548  13.857 -0.0394 -0.1790  0.1594
30423W        W45554  17.811   0.482   5.119  0.1999 -0.1770 -0.0253
30424W        W45555   9.528  13.192  13.660  0.4536  0.1277  0.1285
30425W        W45556  16.778   3.232  14.638 -0.2520 -0.1294 -0.2316
30426W        W45557   5.069  14.651  14.784  0.0646 -0.1781  0.1433
30427W        W45558   2.515  11.176   5.021 -0.0021 -0.2359 -0.0962
30428W        W45559  16.640   4.935   3.151 -0.3027 -0.5271 -0.0289
30429W        W45560  12.835  14.381   5.243  0.3454  0.1855 -0.2542
30430W        W45561   7.091   3.141  12.351  0.2936 -0.2483 -0.1180
30431W        W45562   7.480   7.825  13.332  0.0569  0.0370 -0.0934
30432W        W45563   2.170   7.371  13.541  0.3177 -0.1880 -0.0995
30433W        W45564   1.402   6.878   4.255 -0.3300 -0.4319 -0.5117
30434W        W45565   8.795  18.049  12.381 -0.0217 -0.1083 -0.0972
30435W        W45566  18.516  10.251  13.046 -0.1424 -0.1093  0.1147
30436W        W45567   9.799   0.189  15.133 -0.0659 -0.0393 -0.0305
30437W        W45568   5.052   6.519   0.823  0.1721 -0.2071  0.0652
30438W        W45569  14.661   1.817  11.662  0.2281 -0.1687  0.0065
30439W        W45570  12.386  18.659  14.411 -0.1093 -0.1177 -0.1099
30440W        W45571  12.832   3.450   1.695  0.1944 -0.3674  0.2404
30441W        W45572   3.537  11.861  11.297  0.3144  0.0835 -0.2742
30442W        W45573   4.561  11.054  15.314 -0.1943  0.0520 -0.1088
30443W        W45574  15.585   6.969   2.831  0.3723 -0.0475 -0.1281
30444W        W45575   1.208   3.233  14.831 -0.0135 -0.0861 -0.0849
30445W        W45576  15.618  14.371   4.687  0.0891 -0.0498 -0.4092
30446W        W45577   5.817   3.809   4.489  0.0696  0.1203  0.3302
30447W        W45578  15.106   2.985  12.028  0.1218 -0.0443  0.0192
30448W        W45579  16.165  18.182   5.557 -0.0503  0.0725  0.2317
30449W        W45580  14.223   3.441  12.223 -0.1088 -0.1965  0.1275
30450W        W45581   8.580  18.682   3.825  0.2254  0.2068  0.0044
30451W        W45582  14.968  11.498  13.182  0.1175  0.1157  0.1036
30452W        W45583   0.058   7.452  12.999 -0.0471  0.0174  0.0470
30453W        W45584   6.989  16.983  13.441 -0.0955 -0.5009 -0.0853
30454W        W45585   5.363  12.866  12.235 -0.2490 -0.0787  0.1754
30455W        W45586  10.416  18.148   2.138  0.0065  0.1349 -0.1303
30456W        W45587   3.305   7.762  11.620  0.3283  0.0274 -0.0816
30457W        W45588   1.683  15.445   4.667 -0.0433  0.1538  0.0219
30458W        W45589  11.029  11.222  14.697  0.1079  0.2252  0.1597
30459W        W45590   1.725  12.135   0.681 -0.1055 -0.0323  0.0123
30460W        W45591   6.925   4.338  13.671  0.0473  0.3687 -0.0210
30461W        W45592   1.096   6.616  13.880 -0.1960 -0.1536 -0.2249
30462W        W45593   3.799  18.699   1.590 -0.2261 -0.0078  0.0461
30463W        W45594   4.232   2.744  14.415 -0.0784 -0.1660  0.0912
30464W        W45595  13.092   1.397  13.009 -0.0339 -0.0343  0.0600
30465W        W45596   0.995   9.267  11.946  0.0144 -0.2088  0.2125
30466W        W45597  10.218  14.700  13.301 -0.1101 -0.2349  0.1921
30467W        W45598  12.279  16.245   4.267 -0.0649 -0.2916  0.0351
30468W        W45599   3.785   0.818  11.979 -0.2312 -0.0767 -0.0660
30469W        W45600  17.910   9.705   2.272  0.0857  0.1229  0.1391
30470W        W45601  15.862  16.225   1.599  0.0216 -0.0249  0.0081
30471W        W45602  18.554  16.155   0.382  0.2474 -0.0436 -0.0803
30472W        W45603  13.068  12.192  13.421 -0.1201  0.5791  0.1524
30473W        W45604  12.480  12.102   1.111  0.2297  0.0512 -0.4521
30474W        W45605  13.238  14.542  10.312 -0.0632  0.0090  0.4057
30475W        W45606  12.253   9.373  15.415 -0.1260  0.0139  0.1014
30476W        W45607   3.241   1.778   3.360  0.0540 -0.0939  0.1736
30477W        W45608  11.428   0.153   4.857 -0.2100  0.2839  0.0459
30478W        W45609  14.134  11.064   0.160 -0.1187  0.2181 -0.2559
30479W        W45610  17.892  11.117   2.491 -0.0973 -0.3232 -0.0357
30480W        W45611  11.263   9.533   3.477 -0.0893  0.2585  0.0363
30481W        W45612   5.037   3.692  15.485 -0.3299  0.0204  0.0658
30482W        W45613  14.667  10.145  15.080  0.0760  0.1524 -0.0010
30483W        W45614  14.744  11.348  11.007 -0.1563 -0.2909  0.2001
30484W        W45615   6.832  15.521   3.991  0.2667 -0.0593  0.1168
30485W        W45616   3.424  13.797   1.148 -0.0329 -0.0063 -0.2186
30486W        W45617  14.931   9.314  13.612 -0.1043  0.1265  0.5837
30487W        W45618   6.215  12.639  15.369  0.1545 -0.0533  0.0583
30488W        W45619   6.586  13.129   0.947 -0.0254 -0.1323 -0.2039
30489W        W45620   9.278   7.857   3.719 -0.3975 -0.0327  0.1085
30490W        W45621  14.541   3.252   3.125 -0.1322  0.0549 -0.1507
30491W        W45622  10.099   5.720   2.145  0.0840  0.5374 -0.2689
30492W        W45623   7.832  16.475  12.457 -0.1031  0.2527  0.0665
30493W        W45624   3.266   9.752  12.155 -0.0055  0.1716  0.1242
30494W        W45625   2.292  11.041  14.778  0.0464 -0.1296  0.4905
30495W        W45626  16.961   7.107  15.165  0.1937 -0.0541 -0.0618
30496W        W45627  16.049  14.668   0.062  0.1976 -0.2693 -0.0472
30497W        W45628   2.776   2.483   5.157  0.0908 -0.2945 -0.1561
30498W        W45629   7.182   3.429   6.244 -0.0143  0.0826 -0.0489
30499W        W45630   6.462   5.475   1.562 -0.0480  0.1867 -0.0753
30500W        W45631   8.174   4.865  10.838  0.0235 -0.0721  0.1929
30501W        W45632   7.249   6.288  15.043  0.1357  0.3085 -0.1916
30502W        W45633  18.225  18.528   1.358  0.1714 -0.0826  0.0750
30503W        W45634   8.423  17.629  13.767  0.0833  0.1118  0.0998
30504W        W45635   5.967   1.602   3.885  0.0619 -0.1160  0.1846
30505W        W45636  11.305   6.880   0.792  0.2028 -0.1691 -0.0134
30506W        W45637  11.854  18.554  14.734 -0.0434 -0.1408 -0.0626
30507W        W45638   9.694   4.206   5.047 -0.2307 -0.0163 -0.0969
30508W        W45639  13.787  14.500  11.622 -0.1653  0.0982  0.4047
30509W        W45640   4.317   7.024  13.614  0.2286 -0.2508  0.2577
30510W        W45641   9.987  15.549   0.267  0.0865 -0.1236  0.2181
30511W        W45642   6.016   4.057   5.439 -0.0387 -0.2059 -0.0838
30512W        W45643   4.510  12.223  11.350  0.0704 -0.1885  0.4063
30513W        W45644   5.946   8.472   2.216 -0.2070  0.0113 -0.1370
30514W        W45645  15.827  17.362   4.400  0.0676  0.1945  0.0117
30515W        W45646   1.709   6.944   5.112  0.1215 -0.0846  0.1604
30516W        W45647   5.832   5.019  13.452  0.2167 -0.0831  0.0005
30517W        W45648  10.799   2.387   0.032  0.1052 -0.0985  0.0169
30518W        W45649   5.388  12.348   4.936  0.2027  0.2672  0.2062
30519W        W45650  11.467   3.412   5.982  0.1979 -0.3083  0.3499
30520W        W45651  17.084  14.974  15.358 -0.1063  0.3213 -0.3750
30521W        W45652  15.503   4.968   1.271  0.0458 -0.1376  0.2637
30522W        W45653   1.640   7.941   1.609  0.1482  0.0576  0.0922
30523W        W45654   1.758  13.788   4.703  0.1104  0.0036 -0.0736
30524W        W45655   0.237  11.442  12.073 -0.0188 -0.1340  0.1024
30525W        W45656  12.352   0.492  14.445 -0.0310 -0.3702 -0.0411
30526W        W45657   5.400   4.598  11.290  0.0190 -0.1754  0.1088
30527W        W45658   0.069  17.600   3.466 -0.0623  0.1487 -0.2981
30528W        W45659   1.785  17.076   3.572 -0.0411 -0.0504 -0.0421
30529W        W45660   1.521   2.207  10.800 -0.1249  0.0493 -0.3235
30530W        W45661   2.906  13.670   4.461 -0.2776 -0.2045 -0.3072
30531W        W45662  10.702  16.613  15.368 -0.0590  0.0520  0.0181
30532W        W45663   9.696   9.940  10.819  0.2301 -0.2111  0.0160
30533W        W45664  10.738  18.181   5.553  0.1596 -0.0021  0.0662
30534W        W45665  18.155  17.862  13.261 -0.1159 -0.2433  0.3734
30535W        W45666  17.454  15.293   0.470 -0.3437  0.1813 -0.0876
30536W        W45667   7.100   5.394   1.593  0.0473  0.2404  0.2573
30537W        W45668   9.993  11.576  15.788 -0.0583  0.0543  0.2985
30538W        W45669  14.064  17.171  15.450 -0.0733 -0.1385  0.1268
30539W        W45670  12.908  16.522  10.628 -0.0742 -0.2571 -0.0407
30540W        W45671  17.762  18.339  11.810  0.0402 -0.2070 -0.1628
30541W        W45672  10.229  11.701   3.709  0.2882  0.4699 -0.0096
30542W        W45673   5.579  15.470   2.551  0.3335  0.2065  0.0131
30543W        W45674  12.392   0.863   2.236 -0.0569 -0.0820  0.0764
30544W        W45675  10.850  15.300   0.465 -0.0276  0.2212  0.3038
30545W        W45676   3.548   2.703  11.916 -0.1883  0.2433 -0.1042
30546W        W45677  15.731   7.076  12.904 -0.3788  0.0688 -0.1944
30547W        W45678  17.633   0.740  11.701  0.2156 -0.2879  0.1783
30548W        W45679  10.849  15.391  15.601  0.1467  0.0053  0.3304
30549W        W45680  18.183   6.221  12.839 -0.0097 -0.1961 -0.2176
30550W        W45681  15.795   2.542  10.065 -0.1399 -0.1708 -0.1552
30551W        W45682  13.117  10.673   3.379  0.0329  0.0941 -0.0606
30552W        W45683   5.114  18.453   1.967  0.1180 -0.1462  0.0952
30553W        W45684   2.242   5.754   2.684 -0.0015 -0.2180 -0.0720
30554W        W45685   7.835   2.133   4.582 -0.3618 -0.0140 -0.0505
30555W        W45686  17.669  10.745   5.628 -0.2830  0.0274  0.0832
30556W        W45687  14.890   0.736   0.943  0.0025  0.3533 -0.1585
30557W        W45688  15.065  12.600  11.048  0.1744 -0.0746 -0.0403
30558W        W45689   7.901   7.470   1.823 -0.1261  0.0169 -0.2685
30559W        W45690   5.813  15.620   5.820  0.1950  0.3418 -0.0226
30560W        W45691  14.834  18.619   2.330 -0.0644  0.0948 -0.1518
30561W        W45692  11.118  13.130   1.063  0.1167  0.3106  0.0821
30562W        W45693   5.444   7.549  13.160  0.1472 -0.1141 -0.1070
30563W        W45694   1.810   3.249   2.479  0.1449 -0.1078 -0.1825
30564W        W45695  13.267  18.126   4.900  0.1007  0.1420  0.1542
30565W        W45696   3.661  13.339  13.251 -0.0214  0.0202 -0.1861
30566W        W45697   9.326   9.309  11.486 -0.2557  0.2448  0.0401
30567W        W45698  16.373   4.245  12.177 -0.0523 -0.1923  0.0402
30568W        W45699   2.169  17.744   2.290  0.0886 -0.2234  0.0451
30569W        W45700   7.155   9.102  14.399  0.0114  0.1531 -0.2520
30570W        W45701   8.653  10.123  14.605  0.2445 -0.1168  0.1137
30571W        W45702   3.273  12.681  12.568 -0.0888  0.0855  0.0568
30572W        W45703   8.220  13.714  12.108 -0.0872  0.2050 -0.1283
30573W        W45704  16.986  10.173   4.863  0.3587 -0.2751  0.1070
30574W        W45705   7.079  11.305   1.637  0.1821  0.0778 -0.1519
30575W        W45706  13.532   1.108  14.978  0.4075  0.2275 -0.0992
30576W        W45707  12.961   7.248  13.585  0.0905  0.3651 -0.2272
30577W        W45708  18.230   2.856  11.076 -0.2615 -0.0604 -0.1724
30578W        W45709   1.748  17.136   2.434 -0.0404  0.2558  0.4370
30579W        W45710   2.835   0.822   4.696 -0.0279  0.0270 -0.0426
30580W        W45711  16.220  16.920  12.798 -0.0214  0.0271  0.1016
30581W        W45712   7.493  11.308  10.086 -0.0560  0.0662  0.1453
30582W        W45713  18.524   6.636  11.730 -0.0367 -0.0807 -0.0039
30583W        W45714   5.546   7.156  11.345  0.3694 -0.3183  0.2944
30584W        W45715   5.870  11.561   2.276 -0.1068 -0.0418 -0.1771
30585W        W45716  12.637  18.279  12.413  0.0874  0.0301 -0.1658
30586W        W45717   3.257  11.050  10.745 -0.2915 -0.1872 -0.1008
30587W        W45718  16.929  12.225  14.436  0.1084  0.2760 -0.0042
30588W        W45719  12.538   7.683   1.668 -0.2097  0.1442  0.2296
30589W        W45720   8.865  15.469  11.888  0.1236  0.2005  0.1809
30590W        W45721  17.485   1.706   3.862  0.0812 -0.2655 -0.0923
30591W        W45722  15.563   9.001  12.121 -0.1973 -0.0810  0.0658
30592W        W45723   5.850   2.363  13.006 -0.0526 -0.3718  0.0296
30593W        W45724  17.314  11.536  15.667  0.4845 -0.2507  0.2793
30594W        W45725  13.349   1.418  11.501 -0.0683 -0.0119 -0.0658
30595W        W45726  14.005   7.445  10.072  0.0674 -0.0151  0.0685
30596W        W45727  18.294   9.283   5.115  0.4414  0.2050  0.3919
30597W        W45728   0.445   3.737  15.277 -0.0127 -0.0510  0.0528
30598W        W45729  15.503   7.145   0.010  0.2481 -0.0552  0.2679
30599W        W45730  18.181  10.198   1.552 -0.2895  0.2617 -0.4249
30600W        W45731  10.677   1.232   0.238 -0.0661 -0.2533 -0.0758
30601W        W45732  16.361  11.381   2.295 -0.0558 -0.1882  0.0108
30602W        W45733  17.363  13.345  10.629  0.1065  0.2120  0.0655
30603W        W45734  17.842  10.537  11.310 -0.2336 -0.1376 -0.0940
30604W        W45735   8.137   4.294  15.461 -0.1610  0.0398 -0.0532
30605W        W45736   8.339  14.086   1.474 -0.0696  0.0102  0.0329
30606W        W45737   5.827   4.725  12.451  0.1685  0.0937 -0.1580
30607W        W45738   7.689  10.038  14.081 -0.3182 -0.2246  0.0189
30608W        W45739  12.455   8.144   1.359  0.0783  0.1897 -0.0354
30609W        W45740   4.249   8.058  14.834 -0.4362  0.0450 -0.1909
30610W        W45741   6.294   3.844  11.399 -0.2282 -0.0847 -0.0349
30611W        W45742  10.025   1.950  14.495 -0.1151  0.4308  0.1038
30612W        W45743  14.411  10.585  14.910  0.1022  0.1257 -0.1488
30613W        W45744   0.068  12.222  15.337  0.0107 -0.1452 -0.1224
30614W        W45745   3.466   1.328  11.327  0.1170 -0.0568  0.0646
30615W        W45746   1.874   0.666   0.589 -0.1774 -0.2524 -0.2824
30616W        W45747  14.108   2.124  15.533  0.0362  0.0794 -0.3491
30617W        W45748   7.648   8.837   3.150  0.0745  0.1532  0.1218
30618W        W45749  18.208   6.485   0.845  0.1486  0.1672  0.2095
30619W        W45750   6.259  13.751   0.216 -0.0702  0.0649  0.0100
30620W        W45751  15.193   8.572   5.102 -0.2618 -0.1214 -0.0089
30621W        W45752  17.326   6.536   2.261  0.1047 -0.2074 -0.0408
30622W        W45753   7.655   4.717   1.597 -0.1892 -0.2445  0.1729
30623W        W45754  11.437  13.403   2.366  0.1389  0.1676  0.0407
30624W        W45755   2.268  11.630  11.429 -0.1451  0.2182 -0.1205
30625W        W45756   6.863   9.170   1.902  0.0442  0.0435 -0.0191
30626W        W45757  16.696   3.689  12.309 -0.1999 -0.0258  0.1764
30627W        W45758   8.857   9.847   1.885  0.2761  0.0231  0.2558
30628W        W45759  17.476   3.825  11.834  0.0418 -0.0618  0.2700
30629W        W45760  12.707   9.085   4.246  0.1488 -0.1047 -0.2154
30630W        W45761  12.370  16.891   5.413  0.0762 -0.2213  0.0322
30631W        W45762   8.057   0.389   2.228 -0.2241 -0.1424 -0.2161
30632W        W45763  10.643  14.984   4.268 -0.2011 -0.0568  0.2024
30633W        W45764   3.215   6.934   5.427 -0.1712  0.2136  0.2534
30634W        W45765  17.429   5.807  13.160  0.2552  0.0944  0.3621
30635W        W45766  14.513  10.677   1.377  0.2260 -0.1936  0.3866
30636W        W45767   9.614  17.473  12.265 -0.2430  0.0117 -0.4073
30637W        W45768   7.888   5.633   1.177  0.3042  0.1164  0.0371
30638W        W45769   5.034  16.877  15.642 -0.2469  0.2275 -0.1304
30639W        W45770   8.489   5.302  14.964  0.1276 -0.1048 -0.4330
30640W        W45771  14.852   0.861  13.026 -0.1011 -0.3416 -0.0204
30641W        W45772   6.946  11.586  14.200  0.0132  0.2357 -0.2279
30642W        W45773   3.451   5.978  15.337 -0.0011 -0.1516  0.0038
30643W        W45774  16.373  13.262   0.294  0.0755  0.0364 -0.1380
30644W        W45775  16.386   0.196   2.797  0.1984  0.2470 -0.3716
30645W        W45776   1.805   2.208   3.033  0.1280 -0.1195  0.0870
30646W        W45777  16.618  10.812  13.431  0.3875  0.6709 -0.3084
30647W        W45778   9.780   8.058   4.550 -0.0283  0.0601 -0.2993
30648W        W45779   5.526   7.237  13.933  0.0453  0.0936  0.1879
30649W        W45780   5.479   5.119  11.534 -0.1471  0.0924 -0.1523
30650W        W45781  15.531  18.363  13.911 -0.0257  0.2014  0.1481
30651W        W45782  16.866   7.716   4.040 -0.0546  0.1351  0.1555
30652W        W45783   0.752  17.033  12.663 -0.0387  0.0966  0.2212
30653W        W45784   6.664   0.512   4.779 -0.2667  0.1558  0.0559
30654W        W45785  10.920   5.952   9.918  0.2758 -0.2078 -0.2452
30655W        W45786   8.765  15.604  10.799  0.2475  0.3046  0.4212
30656W        W45787  14.076   8.881  15.086  0.1904  0.1388 -0.1170
30657W        W45788   4.826  14.269   1.269  0.0881  0.0665  0.1889
30658W        W45789  14.060   2.088   5.670 -0.1437  0.0965 -0.1415
30659W        W45790  10.283  17.508  15.028  0.1120 -0.3647 -0.3809
30660W        W45791  14.606   7.250   1.328  0.2485  0.0587  0.0546
30661W        W45792   9.397   6.619  11.225 -0.1848  0.2461  0.2606
30662W        W45793   1.313  12.983   0.981 -0.1227  0.0559 -0.0706
30663W        W45794  17.256   5.757   4.368 -0.1426  0.0637 -0.0533
30664W        W45795   7.936  11.986   2.099  0.0838  0.0799 -0.1165
30665W        W45796  16.350  16.625   0.278 -0.1298 -0.1370  0.0837
30666W        W45797   3.176  13.562   1.513  0.0586  0.5710  0.3393
30667W        W45798  18.112   9.348  14.754  0.0461 -0.1595 -0.0500
30668W        W45799   1.488  13.594   1.764  0.0622  0.3416 -0.0910
30669W        W45800  14.702  18.252   0.444 -0.0747  0.1245 -0.1881
30670W        W45801  15.081  12.412   0.260 -0.2442  0.2005  0.0795
30671W        W45802  15.694   5.387  12.357 -0.0691 -0.0570 -0.1753
30672W        W45803   1.276   3.354   5.315 -0.1142 -0.2985 -0.3071
30673W        W45804  14.781   2.117   2.350  0.1344 -0.1551 -0.3553
30674W        W45805   8.076  11.439   3.153 -0.3893  0.4426  0.1534
30675W        W45806   6.334   9.252  11.853  0.0355 -0.0632  0.3503
30676W        W45807  11.474  17.339   0.789 -0.1076 -0.1002  0.2425
30677W        W45808   8.811   4.178   0.145  0.2753  0.2399 -0.1503
30678W        W45809  11.177   2.911  15.647 -0.1239  0.0912  0.0619
30679W        W45810  12.083   9.188  14.962  0.0173  0.2371  0.3330
30680W        W45811  14.545   5.128  11.839  0.0138 -0.2185 -0.3318
30681W        W45812   4.804   1.333  13.760  0.0192 -0.1339 -0.1134
30682W        W45813   2.769   9.398   0.990 -0.1075 -0.0396 -0.3571
30683W        W45814   4.235   9.074  15.131  0.0240 -0.1106 -0.2885
30684W        W45815   9.136   3.279  13.267  0.2805  0.0519  0.0240
30685W        W45816   6.510  17.717  14.696  0.2476 -0.1752  0.1659
30686W        W45817  14.787   0.439   1.530  0.2232 -0.1236  0.1138
30687W        W45818  15.438   9.641   5.393  0.1163  0.0993  0.2380
30688W        W45819  11.138   2.511  13.539 -0.2622  0.0456 -0.0487
30689W        W45820   9.679  17.831  13.961 -0.1530  0.0029 -0.2488
30690W        W45821   5.405   5.817  14.733  0.5615  0.1243  0.0998
30691W        W45822  14.676  15.831  15.128 -0.0584 -0.0792  0.1938
30692W        W45823  13.322  11.802   3.164 -0.0811 -0.0158  0.2817
30693W        W45824   4.381   2.377   2.637 -0.1573 -0.2526  0.0155
30694W        W45825  10.374   9.885   4.055  0.0475 -0.2119 -0.6320
30695W        W45826   3.748  12.076  11.688  0.1586  0.0052  0.0442
30696W        W45827   5.280  14.640   2.240 -0.1469 -0.4537  0.0423
30697W        W45828  18.064   0.725   5.617 -0.0764  0.0491 -0.0965
30698W        W45829   9.312  17.451   5.109  0.3024 -0.0268 -0.2503
30699W        W45830   6.180   4.965   1.614  0.0173  0.1881  0.0634
30700W        W45831   4.641  12.066  13.763 -0.0789 -0.2598 -0.1362
30701W        W45832  18.316   0.957   3.868  0.3033  0.2442 -0.3587
30702W        W45833   8.154  14.258  15.128  0.0324 -0.1528 -0.0712
30703W        W45834  13.407   1.142  12.718  0.1086 -0.2686 -0.1982
30704W        W45835   6.772   7.700  12.647 -0.1858  0.1186  0.1360
30705W        W45836  11.842   9.683  12.203 -0.3141  0.0289 -0.2831
30706W        W45837   7.692  13.919   0.408  0.0300 -0.0575  0.0609
30707W        W45838  13.632  16.218  10.861  0.0579  0.1851 -0.2627
30708W        W45839   2.728   3.244  14.061 -0.0836 -0.0525  0.0512
30709W        W45840  10.633   8.727   1.308  0.0472 -0.1427  0.2295
30710W        W45841  11.130  14.895   3.235 -0.0139  0.1265 -0.3398
30711W        W45842  13.967   9.036   0.296 -0.3034  0.0289  0.4140
30712W        W45843  14.668   6.369  14.002 -0.0679  0.1546 -0.0988
30713W        W45844  11.709   1.713   0.913  0.1833 -0.0594 -0.0575
30714W        W45845   8.751  16.935   2.108 -0.0046  0.2302 -0.0108
30715W        W45846   1.575   3.539  14.710 -0.5052 -0.0477  0.1246
30716W        W45847   6.186   6.560   0.188  0.0029  0.1850 -0.0282
30717W        W45848   6.982  15.378   2.004  0.3468 -0.0353 -0.0948
30718W        W45849   9.003  16.422   2.197 -0.1055 -0.1448 -0.0191
30719W        W45850  15.528  14.963   5.717  0.0628 -0.0558 -0.1346
30720W        W45851  12.703  12.241   5.079 -0.0136 -0.0805  0.0091
30721W        W45852   0.487   1.942   4.174 -0.1627 -0.2793 -0.1598
30722W        W45853  14.883   0.396   4.743  0.1272 -0.0565 -0.0811
30723W        W45854   2.174  12.259   2.624 -0.0615  0.3968  0.1719
30724W        W45855   0.077   6.934  12.203 -0.1401  0.4149 -0.1026
30725W        W45856   7.033   3.244  14.031  0.0358 -0.1930  0.1701
30726W        W45857   5.003  12.417   4.603  0.2051  0.0159 -0.3039
30727W        W45858   1.922   3.621  13.933  0.0543 -0.0211 -0.2609
30728W        W45859  12.282  12.386  14.785 -0.1438  0.0011 -0.2290
30729W        W45860   7.327  10.760   2.823  0.2016 -0.1182 -0.1102
30730W        W45861   9.387   8.348  14.445 -0.0934 -0.2474  0.0171
30731W        W45862  10.089   3.272   0.707 -0.3091 -0.0182  0.1158
30732W        W45863  15.654  16.808   5.232  0.0871 -0.2538 -0.1187
30733W        W45864   1.553   8.234  15.661  0.1047 -0.2860 -0.2522
30734W        W45865   4.592  11.028   5.501 -0.0951  0.3383  0.1355
30735W        W45866   9.529   6.709  10.670 -0.1220 -0.1714 -0.0136
30736W        W45867   4.226   8.758  14.723  0.2039  0.1190 -0.2787
30737W        W45868  12.328  11.141  11.031 -0.0396 -0.1942  0.0437
30738W        W45869   6.870  13.679   5.852  0.0265 -0.3035 -0.0215
30739W        W45870  10.071   8.532   2.214  0.0668 -0.0917  0.0583
30740W        W45871  15.023   4.778   4.796 -0.1104  0.2200  0.1099
30741W        W45872   3.269  11.391   3.625  0.0102 -0.0755  0.1442
30742W        W45873  15.228  18.073   2.628  0.3487  0.2857 -0.1131
30743W        W45874  15.916  18.146   1.891  0.0503  0.0610  0.2807
30744W        W45875  14.087  16.743   0.699  0.1942 -0.2333 -0.1353
30745W        W45876   4.282   6.550   1.758  0.1173  0.0735 -0.2048
30746W        W45877  17.823  18.111   4.351  0.0268 -0.0539 -0.1772
30747W        W45878   7.529  13.260   2.885  0.0004 -0.2200 -0.3178
30748W        W45879   7.572   1.767  15.733  0.1581  0.3284 -0.0874
30749W        W45880  16.720   6.941  13.505 -0.1086  0.1585  0.0379
30750W        W45881   9.288   9.846   0.348  0.0295 -0.3019 -0.3813
30751W        W45882  12.263   9.364  12.080 -0.1272 -0.1610  0.4727
30752W        W45883  18.252  18.652  11.991  0.0492 -0.1219 -0.3216
30753W        W45884   5.562  12.161   4.531  0.1372  0.1202  0.2230
30754W        W45885   0.877  15.809   4.969 -0.1820  0.0552  0.0346
30755W        W45886   4.778  13.469  12.029 -0.4074  0.3318  0.2665
30756W        W45887   1.462   7.458   3.323  0.1065  0.3822  0.0509
30757W        W45888  15.960  14.660   2.668  0.2794  0.3111  0.0039
30758W        W45889  14.506   5.183   1.760 -0.0735  0.2286 -0.0001
30759W        W45890   3.643   8.555   3.819 -0.4198  0.2577  0.2573
30760W        W45891   4.881  16.923  11.855  0.4517 -0.3104  0.0120
30761W        W45892  15.468   0.181  14.441 -0.0643 -0.0405 -0.4757
30762W        W45893  16.722   7.870  15.342 -0.2819 -0.1662  0.2649
30763W        W45894   1.909   7.233   3.943  0.1189  0.0546  0.0816
30764W        W45895  18.519   5.706  12.248  0.3526  0.0054 -0.2686
30765W        W45896  13.381   5.570  13.747 -0.1782 -0.0415 -0.0126
30766W        W45897  11.123   6.280  15.004  0.1261  0.2142  0.0209
30767W        W45898   6.258   3.905   3.177 -0.1456  0.2009 -0.1349
30768W        W45899  14.305   2.817  11.441  0.2170  0.2787  0.0446
30769W        W45900   4.025  12.029   9.991 -0.3734 -0.1874 -0.4405
30770W        W45901   9.099   0.112  15.791 -0.3088  0.0990 -0.2064
30771W        W45902  10.028   5.816  11.452  0.2191 -0.3503  0.2672
30772W        W45903   5.773  10.972   5.458 -0.0554 -0.0379 -0.1493
30773W        W45904   7.470   8.382  12.391 -0.1148  0.0379  0.0192
30774W        W45905  17.746  18.472  15.385 -0.0661  0.0306  0.0681
30775W        W45906  12.468  14.560   1.380 -0.1198  0.0939  0.1856
30776W        W45907   2.652  13.827   0.809 -0.1503  0.1115 -0.3684
30777W        W45908   2.989  13.544   0.935 -0.2065  0.3738  0.2132
30778W        W45909   6.192   8.689  10.027  0.1323 -0.0360  0.1494
30779W        W45910  14.173   0.773  13.400  0.0077  0.0753  0.0241
30780W        W45911   8.252  15.315  13.022  0.0292 -0.1258  0.1582
30781W        W45912  14.296   4.441   1.082 -0.0154  0.1319 -0.2090
30782W        W45913  12.130  15.831   2.543  0.0040 -0.1384 -0.2215
30783W        W45914  15.069  15.384   3.436 -0.1133 -0.2514 -0.1804
30784W        W45915  18.303  10.084  10.266  0.2471  0.3283 -0.0461
30785W        W45916   6.993  13.521   3.739  0.1071 -0.0915  0.0767
30786W        W45917   4.626  10.472   2.270 -0.0858  0.0650  0.0971
30787W        W45918  10.559  11.493   2.237 -0.0022  0.1460 -0.0133
30788W        W45919   8.074  12.066   1.568  0.1611 -0.0562  0.1170
30789W        W45920   1.567  12.489  12.398  0.1618 -0.0163 -0.0326
30790W        W45921   4.987  11.377   5.554  0.1158  0.1367 -0.1957
30791W        W45922  14.549   3.679   2.848 -0.0328 -0.0584 -0.2621
30792W        W45923   3.504   5.740  13.721  0.2019  0.2854  0.1023
30793W        W45924  17.287   8.471   0.604  0.0225 -0.0554  0.2034
30794W        W45925  18.027  11.265  11.706 -0.1030 -0.1641  0.2048
30795W        W45926   9.747  12.368   5.131  0.1048  0.2080  0.1997
30796W        W45927   9.066  14.683  10.784  0.0520  0.1793  0.1777
30797W        W45928   5.903  17.602  12.298 -0.0321  0.2338  0.4463
30798W        W45929   3.958  13.104   3.330 -0.2477  0.0024  0.3315
30799W        W45930  11.058   1.475  15.384 -0.2473 -0.0690  0.1416
30800W        W45931  11.895  16.482   3.979 -0.3460  0.3316  0.0102
30801W        W45932  15.238   9.824   2.448  0.0805 -0.1964  0.0219
30802W        W45933   0.913  15.371  15.772 -0.1296 -0.2191  0.1280
30803W        W45934   7.500  18.498  10.894  0.1883 -0.0656  0.0137
30804W        W45935  13.516   9.531   0.001 -0.1729 -0.1793  0.1152
30805W        W45936   6.095   4.530  15.233 -0.1028 -0.0682  0.2229
30806W        W45937   3.001  13.454   5.907  0.0808  0.1577 -0.1837
30807W        W45938   9.391   7.574   2.741  0.3060 -0.3063  0.1944
30808W        W45939  14.744  16.231   2.646 -0.2211 -0.1495 -0.0254
30809W        W45940  15.195   6.882   4.570  0.1780 -0.1341  0.1628
30810W        W45941   9.020   6.934  11.320 -0.4192 -0.0210  0.1659
30811W        W45942  11.307  16.140   3.384  0.0514  0.1685  0.0052
30812W        W45943  16.025   8.582   1.703  0.3368 -0.1062  0.4674
30813W        W45944   5.177  16.453   1.669  0.2789 -0.1549  0.0170
30814W        W45945   3.821  15.800   0.214 -0.2107  0.0172 -0.1012
30815W        W45946   6.284   4.731   1.186  0.0820  0.1310  0.0951
30816W        W45947   8.264   0.357   3.965  0.0822  0.1489  0.0599
30817W        W45948  11.521   0.666   1.205  0.2421 -0.3691 -0.1736
30818W        W45949   5.856  14.563   3.741 -0.2368  0.0575  0.2774
30819W        W45950  10.496  16.445   4.196  0.2025 -0.0513  0.1817
30820W        W45951   6.278   5.633   5.630 -0.0109  0.3749  0.0508
30821W        W45952  15.937   9.267  13.889  0.2632  0.1784 -0.4661
30822W        W45953   6.618  15.974   0.914  0.0742 -0.0772 -0.1368
30823W        W45954   8.812   2.396  11.894 -0.1175 -0.1388  0.0880
30824W        W45955  11.222  15.755   1.178 -0.2243 -0.6036 -0.4457
30825W        W45956  14.819   2.130  13.221 -0.1311  0.0321 -0.2078
30826W        W45957  17.585   5.190  14.712  0.2840 -0.0658  0.1953
30827W        W45958   8.995   7.704   2.349 -0.5141  0.1938 -0.3979
30828W        W45959  15.525   7.118  15.356  0.2993  0.0607 -0.1692
30829W        W45960   7.333   8.393   0.319 -0.1144 -0.0935 -0.3122
30830W        W45961  12.708   2.250  15.671  0.1595 -0.3622 -0.3333
30831W        W45962   3.363  13.713  15.459 -0.1509  0.1340 -0.0280
30832W        W45963   3.087  13.001  13.921  0.2769  0.0074 -0.1138
30833W        W45964  17.589   2.528  14.651  0.2896  0.0446  0.0392
30834W        W45965   8.420   5.209  13.750 -0.0485  0.0515  0.0431
30835W        W45966  15.870  15.109  15.761  0.3217  0.2037 -0.2924
30836W        W45967   5.339   2.994   4.765  0.1669 -0.0585  0.0858
30837W        W45968   1.700  11.796  10.757  0.2362 -0.0872  0.1177
30838W        W45969  11.895   3.871   3.703 -0.2200 -0.1354  0.1052
30839W        W45970   1.053   8.713  13.846  0.0657 -0.0781  0.0360
30840W        W45971   7.125   5.500  13.932 -0.2914 -0.1195 -0.1411
30841W        W45972  16.865   1.267  12.376 -0.6575 -0.2054  0.0345
30842W        W45973  17.113   1.343   5.115 -0.1683  0.3709  0.0725
30843W        W45974   2.529   7.157   0.688 -0.3060  0.0977  0.0561
30844W        W45975  18.141   6.868  13.463 -0.1864  0.0720  0.2501
30845W        W45976   5.877   7.156  10.464  0.0075  0.2836  0.0195
30846W        W45977  11.429   3.031  13.504  0.1065  0.1359 -0.1848
30847W        W45978  11.086  15.743   0.101  0.0760 -0.0772  0.1988
30848W        W45979  18.147  15.417  15.177  0.4056  0.0472  0.1100
30849W        W45980  18.150   4.050   1.027  0.0854 -0.2439 -0.1722
30850W        W45981  14.355   3.973   3.793 -0.0239 -0.1462 -0.3078
30851W        W45982   6.621  13.091  11.188  0.1806  0.0767  0.1500
30852W        W45983   5.458  15.296   3.359 -0.1966  0.2389 -0.1234
30853W        W45984   9.210   7.671   3.186  0.2234  0.3104  0.0136
30854W        W45985  15.103  15.322   4.042 -0.1529  0.1456  0.2278
30855W        W45986   5.960   9.126  12.832  0.1150 -0.0927  0.0179
30856W        W45987  16.917   1.210   4.562  0.0246  0.0972 -0.1457
30857W        W45988   9.382  14.021   3.224  0.0172  0.2395 -0.1036
30858W        W45989   2.185  15.907  15.004  0.2236  0.0435  0.2435
30859W        W45990  14.478   6.924  12.643  0.0740 -0.1881 -0.0597
30860W        W45991   3.830   3.618  13.142 -0.1593 -0.2834 -0.1512
30861W        W45992   7.494   6.601  15.503  0.0291 -0.1996 -0.0566
30862W        W45993   6.502  16.501  15.434 -0.0091  0.2364  0.3731
30863W        W45994  12.290   3.724   4.018 -0.1762 -0.1388 -0.0414
30864W        W45995   9.349   4.717  14.886 -0.0816  0.0566  0.2536
30865W        W45996  14.088   1.497  14.355 -0.1801 -0.0643 -0.1535
30866W        W45997  11.572   8.884  13.602 -0.1602  0.1240 -0.2189
30867W        W45998   3.861   2.648  15.291  0.2224 -0.1578 -0.2595
30868W        W45999  10.616   9.842  12.373 -0.2674  0.3312  0.0407
30869W        W46000  12.716  15.680  11.837 -0.1221  0.2751 -0.1346
30870W        W46001   7.318  10.199   5.263  0.0191  0.0599  0.2237
30871W        W46002   9.928   9.839   5.151 -0.0095  0.0048 -0.1411
30872W        W46003   9.355   8.670  12.940 -0.1870  0.1264  0.0213
30873W        W46004   8.948  11.982   3.057  0.2957 -0.2322  0.2613
30874W        W46005   0.507   7.860   3.651  0.1718 -0.0259 -0.0401
30875W        W46006   2.575  10.392  14.218 -0.0163 -0.1040  0.0149
30876W        W46007  14.422   8.834   0.325  0.3473 -0.0929  0.2409
30877W        W46008  16.017  11.085   1.404  0.2901 -0.2398 -0.0350
30878W        W46009  10.933   4.026   3.768  0.1513 -0.2568 -0.2493
30879W        W46010  10.648   6.094  14.926  0.1651  0.0027 -0.1637
30880W        W46011   2.173   8.188   2.467 -0.0399 -0.1265 -0.0653
30881W        W46012   2.703   7.418   5.568 -0.2585 -0.2404  0.0290
30882W        W46013   1.874   4.188  12.362  0.0908  0.3375 -0.0376
30883W        W46014   8.181   1.589   2.012 -0.0569  0.0094  0.0123
30884W        W46015  12.273   9.145  13.686  0.0609 -0.0002 -0.1570
30885W        W46016   4.032   6.013  12.877 -0.0086 -0.0505 -0.2914
30886W        W46017  18.715  17.496   5.043 -0.0654 -0.0664 -0.0257
30887W        W46018   9.873   7.502   4.331  0.2085  0.0742  0.1640
30888W        W46019   6.729  11.911  13.617  0.1792  0.2181  0.4977
30889W        W46020   6.029  12.379  14.600  0.0173  0.1160  0.2738
30890W        W46021   1.364   2.174   3.755 -0.0340  0.0285 -0.4173
30891W        W46022   2.273   8.972  15.701 -0.2947  0.1325  0.2213
30892W        W46023  12.355   7.345   2.710  0.1343 -0.2496 -0.0194
30893W        W46024   3.853  17.577  12.146  0.1450  0.1317  0.1179
30894W        W46025  17.336   9.489   4.969  0.1817  0.3852 -0.0547
30895W        W46026   8.031   9.767  13.192 -0.2165 -0.1608 -0.1986
30896W        W46027  16.345   0.045  13.934 -0.2964 -0.2028 -0.0043
30897W        W46028   9.665  11.646   5.141  0.4502  0.0169 -0.0453
30898W        W46029  13.260   8.316   2.395 -0.1013  0.1936  0.0328
30899W        W46030  18.159   1.530   1.206 -0.1998  0.0399 -0.1753
30900W        W46031  14.633  15.520   5.253 -0.1522 -0.0595 -0.1592
30901W        W46032   4.792   6.395   4.522 -0.1311 -0.1868 -0.0233
30902W        W46033  16.927  13.916   4.736 -0.0425 -0.1666  0.0450
30903W        W46034  10.844   6.111  12.379 -0.2283 -0.3097 -0.0517
30904W        W46035   2.722  17.346   4.579  0.1029  0.2720 -0.1879
30905W        W46036   2.126   2.007   1.609  0.2637  0.0718 -0.0818
30906W        W46037  16.169   3.790  12.389  0.0575  0.0974  0.0550
30907W        W46038  12.019   7.435   4.407 -0.2762  0.1047  0.1553
30908W        W46039  13.654  10.232  13.603 -0.3495 -0.0271  0.0658
30909W        W46040   6.863   6.008  12.125  0.1386 -0.4211  0.2024
30910W        W46041  10.193   9.680  12.117 -0.2580 -0.2662 -0.2528
30911W        W46042   8.886  12.087  12.386 -0.1068  0.0172 -0.1343
30912W        W46043  11.922  10.413   3.009 -0.1122 -0.1446 -0.1004
30913W        W46044  16.793  13.756   0.968  0.2286  0.0486  0.2038
30914W        W46045   4.956   9.971  11.461 -0.3249  0.2331 -0.1629
30915W        W46046   0.420  12.035  13.161  0.1411  0.2182 -0.4351
30916W        W46047   1.019   3.906   3.711 -0.1508 -0.1675 -0.0619
30917W        W46048   8.144  17.506  14.980  0.1134 -0.0322 -0.2131
30918W        W46049  11.030  11.025  12.585  0.0506 -0.1239 -0.2022
30919W        W46050  13.627   1.805   3.608 -0.1432  0.2337  0.3182
30920W        W46051   2.726   6.622   2.710  0.0495  0.0829 -0.1312
30921W        W46052  14.767  12.047   0.974  0.1622  0.0835 -0.1922
30922W        W46053   0.140   9.755   1.518  0.1069 -0.0788  0.1581
30923W        W46054  10.631  10.605  14.064 -0.3054  0.2141 -0.1786
30924W        W46055  14.990   6.827  14.129  0.1333 -0.0734 -0.0009
30925W        W46056  17.096   8.860   2.006  0.1836 -0.0453 -0.0262
30926W        W46057  12.073  15.158  12.748  0.0827  0.0910 -0.2877
30927W        W46058   2.744  18.456   0.880 -0.2287 -0.4141 -0.0676
30928W        W46059   5.259   7.270   4.153  0.0566  0.0885  0.1436
30929W        W46060  10.162  15.864  14.691  0.4163 -0.1375 -0.2358
30930W        W46061   6.682   3.779  11.820  0.1831 -0.0560 -0.4903
30931W        W46062   4.450   4.140  11.469  0.1848  0.2902 -0.2572
30932W        W46063   7.547  17.314   5.250  0.1882  0.1896 -0.2725
30933W        W46064  18.037  10.363   3.023 -0.0191  0.2792 -0.2018
30934W        W46065  17.462  14.154   2.109 -0.0333  0.0357 -0.3026
30935W        W46066   9.686  17.385  10.177 -0.1575 -0.1457  0.0188
30936W        W46067  14.430  10.122   4.678 -0.1652  0.2773 -0.1443
30937W        W46068   1.095   5.526  12.294  0.3129 -0.1361 -0.1331
30938W        W46069   4.215   8.097  11.670  0.0799  0.0832  0.0442
30939W        W46070  18.444  15.283  13.376 -0.1363  0.1379  0.3423
30940W        W46071   6.864  16.351   4.566 -0.0603 -0.2155 -0.1606
30941W        W46072   6.140  15.849   0.833 -0.2502 -0.0713  0.2169
30942W        W46073   0.249  13.542  13.328  0.2595  0.0452  0.1084
30943W        W46074  17.965  10.801  10.769  0.0693  0.4562  0.2246
30944W        W46075   5.888   7.084   0.777 -0.0880 -0.1313  0.0168
30945W        W46076   8.062  11.804  11.427 -0.0867  0.0436  0.0126
30946W        W46077   5.733  14.549  15.119  0.2472 -0.0876 -0.2218
30947W        W46078   9.856  10.833  11.653 -0.0424 -0.3268  0.0909
30948W        W46079   5.778   9.642   1.258 -0.2231 -0.0503  0.0044
30949W        W46080  15.400  18.290   5.000  0.0155 -0.1775  0.0973
30950W        W46081  14.889  10.212  14.117  0.1326  0.0320 -0.1300
30951W        W46082  15.613   9.819  10.112 -0.0718  0.3106  0.0851
30952W        W46083  15.552  10.515   5.134  0.2134  0.4308 -0.1789
30953W        W46084   6.768  14.543   1.929 -0.1739 -0.4011 -0.3747
30954W        W46085  10.147  11.924  11.360  0.3348 -0.1973 -0.2573
30955W        W46086  12.022   1.974   5.035  0.1526  0.0663 -0.1262
30956W        W46087   4.184   7.597  11.506  0.1084  0.0847  0.0077
30957W        W46088   9.969   6.799  14.465  0.1322 -0.1091 -0.0907
30958W        W46089  12.318   3.360  14.464 -0.0371 -0.0187  0.3859
30959W        W46090  13.950   5.126   0.805  0.1366  0.0099 -0.4336
30960W        W46091   9.534  16.960  11.502  0.1973 -0.0425 -0.2416
30961W        W46092   2.821   0.409  10.689 -0.1026  0.0683 -0.1909
30962W        W46093   2.877   7.155   2.793  0.1265  0.2846  0.1044
30963W        W46094  13.917  11.418  10.596  0.1076  0.1391  0.1440
30964W        W46095  16.222  15.464   2.041 -0.3230 -0.1384  0.1688
30965W        W46096   7.998  13.777   1.374 -0.2492  0.0446  0.0498
30966W        W46097  10.759  11.749  12.781 -0.2046 -0.0030 -0.1959
30967W        W46098   0.458  11.711  14.246  0.1439 -0.2040  0.1600
30968W        W46099  10.997   3.522   4.043  0.0118  0.1267 -0.0497
30969W        W46100   4.478   4.235   6.331 -0.1307 -0.0924 -0.3492
30970W        W46101   9.806  13.769  15.095 -0.0120 -0.0711  0.0250
30971W        W46102   5.413  18.182  11.253  0.0666 -0.1361 -0.1507
30972W        W46103   5.815   0.484   5.633 -0.1625 -0.3433 -0.0450
30973W        W46104   8.825   0.866   1.158  0.0257 -0.1858 -0.0444
30974W        W46105  13.159  16.659   1.252 -0.1787  0.3973  0.0469
30975W        W46106  13.568   0.632   4.198 -0.2040  0.1736  0.0950
30976W        W46107   9.886  10.295   1.983  0.0383 -0.2661  0.0510
30977W        W46108   5.793   8.867   1.967  0.1351  0.0987  0.0107
30978W        W46109  14.392   6.979  12.167 -0.0493  0.3826 -0.0383
30979W        W46110  10.493  15.002   2.708 -0.1626 -0.0072  0.1229
30980W        W46111  13.791   1.963   4.128  0.0449 -0.4553  0.1144
30981W        W46112  17.947  15.579   1.304 -0.0662 -0.1559  0.0411
30982W        W46113   1.941  14.571   6.178  0.2545  0.1878 -0.1713
30983W        W46114  13.468  11.354  10.871  0.2368 -0.2316 -0.4434
30984W        W46115   5.461   4.266   2.131 -0.2733 -0.2725 -0.6429
30985W        W46116   4.214   0.957   0.143 -0.1622 -0.1624 -0.3783
30986W        W46117   6.363  10.861   2.214 -0.0428 -0.3927 -0.0354
30987W        W46118   1.075   2.440  10.758 -0.2194 -0.1110 -0.0739
30988W        W46119  11.892   3.520   5.665 -0.0524 -0.0538 -0.0629
30989W        W46120   9.376   3.188   2.923  0.1016 -0.0552  0.2835
30990W        W46121  15.536   6.548  11.098 -0.0329  0.1487 -0.1382
30991W        W46122   9.161  13.067  13.315  0.0390 -0.0898  0.2509
30992W        W46123   8.939  13.051  12.275 -0.4318  0.1126 -0.1817
30993W        W46124   3.732   1.142   5.110  0.3208  0.0787  0.0614
30994W        W46125   5.935  14.452   1.556 -0.0389 -0.1828  0.2812
30995W        W46126   8.060  13.120   3.111 -0.1121 -0.1614 -0.0042
30996W        W46127   5.204  14.414  10.655  0.0570 -0.0161 -0.1668
30997W        W46128   4.056  16.660  14.613  0.0638 -0.1051  0.3221
30998W        W46129   3.999  12.126   0.113  0.2163 -0.3049 -0.1714
30999W        W46130  17.226   2.484   4.032  0.2070  0.1665  0.2657
31000W        W46131   7.782  14.356   0.706 -0.3532  0.0446 -0.0550
31001W        W46132   6.403   5.000  13.687  0.1325 -0.0450  0.3713
31002W        W46133  17.581   6.866  10.851 -0.0004  0.1705  0.0958
31003W        W46134  18.368   1.377   3.666  0.1561  0.0811 -0.1161
31004W        W46135   0.102   4.503   3.016  0.3885  0.2343  0.0812
31005W        W46136  10.255  18.224  13.230  0.1320  0.2086  0.0434
31006W        W46137   7.587   2.125   5.073 -0.0643  0.2372  0.0060
31007W        W46138   0.903  16.305   5.207 -0.1256 -0.2642  0.0402
31008W        W46139   5.922   0.885   3.278 -0.1633 -0.0803  0.1244
31009W        W46140  16.469   9.606   1.333 -0.1587  0.1046  0.3347
31010W        W46141  17.877   2.628   0.749  0.4245 -0.3701 -0.1502
31011W        W46142   3.797   9.297  10.882 -0.0229  0.0846  0.0812
31012W        W46143   2.901   9.524  10.949 -0.1238 -0.1047 -0.1915
31013W        W46144   9.056   8.450  15.316  0.2976  0.0798 -0.1644
31014W        W46145   8.395   8.233   0.529 -0.0813  0.0658  0.0960
31015W        W46146  13.608   1.402  13.144 -0.2217  0.0335  0.2184
31016W        W46147  15.561  17.176  13.313 -0.3506  0.0136  0.0326
31017W        W46148   5.320  18.672  12.174 -0.3958  0.2231  0.2352
31018W        W46149  13.715  17.289  14.483  0.0850  0.0991  0.2142
31019W        W46150   0.109   3.379   5.896  0.2532 -0.1286  0.0919
31020W        W46151  15.005  18.143  10.418  0.3261  0.0030  0.5271
31021W        W46152   1.797   7.626  13.840  0.0783  0.0015 -0.0596
31022W        W46153   1.408  15.388   2.543  0.1859  0.2400 -0.2865
31023W        W46154   4.809  16.712  12.605 -0.3421  0.0702  0.0822
31024W        W46155   6.458   8.968   1.169 -0.0944 -0.0121  0.0939
31025W        W46156   8.492  10.487   0.596 -0.2697 -0.1083 -0.0991
31026W        W46157   3.843   0.408   3.030 -0.0247  0.0786  0.0229
31027W        W46158  14.377  15.484  12.434 -0.2217  0.2038  0.1141
31028W        W46159  17.467  16.739  13.671 -0.1124 -0.1449 -0.1673
31029W        W46160   1.978   2.412  10.843 -0.1718  0.2266  0.2812
31030W        W46161  10.157   2.090  12.823  0.1076 -0.1110  0.0280
31031W        W46162  14.757   9.355  11.979  0.2878  0.3218  0.4601
31032W        W46163  18.043  10.302  15.735 -0.1334 -0.0312  0.0648
31033W        W46164  12.794  12.956  13.790  0.0521  0.0121 -0.0847
31034W        W46165  16.607   4.656  14.919 -0.1883  0.1914  0.1779
31035W        W46166  17.735   2.298   1.271  0.2877  0.2654 -0.2339
31036W        W46167   5.048   5.970   0.701  0.2457  0.2736 -0.5358
31037W        W46168  15.147  15.386   4.585 -0.0847 -0.1358  0.0364
31038W        W46169  15.452  12.265  12.605  0.0575  0.3512  0.0018
31039W        W46170  10.007   0.094   1.976 -0.1346 -0.2613 -0.0364
31040W        W46171   2.026  10.082   1.052  0.1125  0.2044  0.1964
31041W        W46172  14.475   4.462   3.911  0.1538 -0.0161  0.2541
31042W        W46173   2.350   6.827  14.075 -0.2377  0.0566 -0.0763
31043W        W46174   2.463  14.615  12.613  0.1452  0.0305  0.0640
31044W        W46175   3.658   9.126  12.042 -0.0449  0.0961  0.3232
31045W        W46176   6.173  16.791   3.479 -0.1342  0.2015  0.0685
31046W        W46177   7.152   1.703   0.157 -0.1228 -0.1902  0.2496
31047W        W46178  15.730   1.115  11.962  0.0171 -0.0341 -0.1199
31048W        W46179  12.706   3.405  15.038 -0.2978  0.0466 -0.1333
31049W        W46180   3.176   9.178   0.152  0.2830 -0.2456 -0.1326
31050W        W46181   1.453  12.526   0.220 -0.2159 -0.2026  0.0204
31051W        W46182  15.514   4.338   1.417 -0.0205 -0.1108  0.0416
31052W        W46183   8.987   4.496   1.951 -0.2074  0.3783 -0.1891
31053W        W46184  11.517   4.850  12.530 -0.0449 -0.1510 -0.0489
31054W        W46185   7.312   6.045   1.386 -0.0831 -0.0263  0.1259
31055W        W46186   7.165   2.355   5.378  0.1605  0.0009 -0.3304
31056W        W46187   5.368   4.019  15.731 -0.2383 -0.2366 -0.1295
31057W        W46188  17.665   7.111  11.851  0.1606  0.0125 -0.0219
31058W        W46189   4.031   8.947   3.649  0.1962 -0.1528  0.0190
31059W        W46190   2.862  14.948   0.088  0.4538  0.2236 -0.0444
31060W        W46191   1.872   5.999   2.032  0.0334  0.0793  0.1233
31061W        W46192  17.022   8.665   3.422 -0.0801 -0.0481 -0.2368
31062W        W46193   2.123  11.552  15.395  0.0579  0.0198  0.0951
31063W        W46194   8.346   6.851  13.346 -0.2640  0.0813 -0.0061
31064W        W46195   6.087   9.958   0.520 -0.1868 -0.1253 -0.2919
31065W        W46196   3.765   6.825   0.925 -0.2568  0.0412 -0.3596
31066W        W46197   7.573   8.464   1.728  0.1693  0.1380 -0.1362
31067W        W46198   7.140   6.939  13.894 -0.1949 -0.1998 -0.1723
31068W        W46199  11.927  14.557  12.547  0.0088 -0.1413 -0.0556
31069W        W46200   3.074  12.112   2.885  0.0751  0.0368  0.0761
31070W        W46201   8.682  10.315   2.109 -0.2168  0.0357  0.0219
31071W        W46202  17.536  16.927   5.107  0.0177 -0.1726 -0.0078
31072W        W46203   8.218  10.511  12.654 -0.1211  0.1534 -0.4082
31073W        W46204   4.506  11.206   5.963  0.2765  0.2531 -0.0101
31074W        W46205   9.411  14.460  12.247  0.1216 -0.0299 -0.0964
31075W        W46206   3.290  12.835  14.938 -0.0005 -0.0281 -0.1025
31076W        W46207  11.125  10.325  15.057  0.1907 -0.4325  0.0754
31077W        W46208  12.436   4.481  11.675 -0.0514  0.3025 -0.3014
31078W        W46209   2.218  16.485   3.080  0.1193 -0.0759 -0.1357
31079W        W46210   4.431  16.268  14.810 -0.1224  0.2805 -0.3275
31080W        W46211  15.840   2.883  14.197 -0.1215  0.2572 -0.1694
31081W        W46212   1.539   0.227  11.343  0.0227  0.1226  0.1476
31082W        W46213  14.255  12.389   4.991 -0.0505 -0.4930 -0.0368
31083W        W46214   5.677  11.897  12.287  0.6248  0.0669  0.1401
31084W        W46215  10.863  16.686  11.311 -0.0850 -0.1770 -0.3375
31085W        W46216   0.194   9.469  14.105  0.3344  0.0359 -0.0519
31086W        W46217  10.184   7.281  12.434  0.1850 -0.0154  0.1477
31087W        W46218   6.054  16.915   2.488 -0.3091  0.1999  0.2627
31088W        W46219   1.687  17.989  10.718  0.2694 -0.0643 -0.1528
31089W        W46220  11.000   4.716   2.085  0.0151 -0.3170 -0.0506
31090W        W46221   6.597   1.062   0.351  0.0699  0.0986 -0.0810
31091W        W46222   3.491   1.486  12.700 -0.2094  0.1871  0.2407
31092W        W46223  17.966   6.788   2.746  0.0853 -0.0468 -0.2419
31093W        W46224  13.291   1.050   5.289 -0.1632 -0.1758  0.0410
31094W        W46225   1.252   5.442   4.443 -0.0941 -0.1789  0.0259
31095W        W46226  16.164  10.719  10.660  0.1027 -0.1977 -0.2864
31096W        W46227  13.580  17.927   0.708  0.0977 -0.1400  0.0880
31097W        W46228   8.705   4.343   3.965 -0.0882  0.1500 -0.3241
31098W        W46229  15.020   2.258  15.102  0.0053 -0.1075 -0.1798
31099W        W46230   1.121   1.766   5.379 -0.1498  0.3904 -0.0389
31100W        W46231   7.526  14.756   1.523  0.0143 -0.0715  0.1702
31101W        W46232  15.496  16.224   5.013  0.0421  0.3034 -0.1268
31102W        W46233  11.016   8.226  13.024 -0.0222  0.1462  0.2623
31103W        W46234  16.019  17.641  15.656  0.0461  0.2680  0.1813
31104W        W46235  11.356   2.585  13.112  0.1404  0.2291  0.1010
31105W        W46236  13.650   8.240   3.246  0.2271  0.1362  0.1193
31106W        W46237  16.892  17.267   1.474  0.1079 -0.2046  0.1888
31107W        W46238  17.176   8.446   6.031  0.1633  0.1355 -0.2247
31108W        W46239  12.960   0.199   1.559 -0.0678  0.0924  0.4463
31109W        W46240   0.068   9.596   2.169  0.0276  0.1048  0.1656
31110W        W46241  11.965  15.119  13.311  0.3593 -0.0328  0.2785
31111W        W46242   7.908   9.307  14.699 -0.0691  0.3933 -0.2321
31112W        W46243   5.853  11.568  14.455  0.2705 -0.2915  0.3224
31113W        W46244   4.257  16.871  15.569 -0.0708  0.0581 -0.2307
31114W        W46245   3.358  14.255  12.658 -0.1029  0.6103 -0.2099
31115W        W46246   8.450   6.470   0.064  0.1295  0.3438  0.0209
31116W        W46247   4.261  14.439   3.690 -0.0960 -0.2073 -0.0708
31117W        W46248  17.006   7.011  13.951 -0.1839  0.2034  0.1724
31118W        W46249   1.006   9.346   2.401  0.1044 -0.0088  0.1327
31119W        W46250  16.924  12.571   4.955 -0.0756  0.1340 -0.0708
31120W        W46251   4.286  14.488  11.412 -0.1706 -0.2325  0.4317
31121W        W46252  18.134  13.576   0.596 -0.3729  0.2461  0.1365
31122W        W46253  11.688   7.447   0.558 -0.4093  0.2632 -0.3156
31123W        W46254   5.084  17.633   2.365 -0.0689 -0.1933  0.0181
31124W        W46255  13.428  10.280   2.513 -0.2817  0.0017 -0.0649
31125W        W46256  18.242  11.342   2.010  0.0309 -0.0058 -0.1313
31126W        W46257   4.966  12.119  11.106  0.1700 -0.1143  0.0414
31127W        W46258  17.114  13.383   0.774  0.0309  0.5496 -0.1561
31128W        W46259  17.233   7.872   1.866  0.1190 -0.0065  0.0364
31129W        W46260  15.326  15.839   4.707 -0.3373  0.5115 -0.1032
31130W        W46261   6.229   7.558  13.456 -0.0501  0.0157  0.2845
31131W        W46262  15.897  17.872   9.419 -0.2408 -0.0963  0.0663
31132W        W46263   3.162  18.261   4.869  0.0563  0.1461  0.0224
31133W        W46264  11.085   3.710  15.503 -0.1514  0.0629 -0.0324
31134W        W46265   5.692   5.413  15.598 -0.1434  0.1516 -0.2320
31135W        W46266  17.980  13.006  11.430  0.2636 -0.1438  0.2671
31136W        W46267   8.022   7.853   2.207 -0.0931  0.0557  0.1312
31137W        W46268   7.371  16.490  12.137 -0.3205 -0.1051 -0.0696
31138W        W46269   9.996   3.440  13.553  0.2211  0.2501  0.2409
31139W        W46270   8.312  17.143  15.448 -0.0843 -0.1945 -0.2453
31140W        W46271   6.235   3.563  12.918 -0.1254 -0.0849 -0.3503
31141W        W46272  13.543  16.832  11.590  0.1970  0.0380 -0.0306
31142W        W46273  15.853   4.331  12.231  0.1649  0.0582 -0.0921
31143W        W46274   4.928   4.950   0.225  0.1017 -0.4036 -0.0436
31144W        W46275   7.310  14.635   5.569  0.0632  0.0287  0.1248
31145W        W46276   0.661  13.750  15.682  0.0807 -0.1089  0.1192
31146W        W46277   4.573  12.932  13.655 -0.0212  0.1511  0.0514
31147W        W46278  16.526   7.177  10.920  0.0283  0.0181  0.1441
31148W        W46279  11.497   6.992   3.130  0.1460  0.3079 -0.1460
31149W        W46280   9.485  12.019   3.317  0.1057  0.1622  0.0364
31150W        W46281   7.183  13.826   0.611 -0.1645 -0.0602  0.0019
31151W        W46282   4.081  13.738   5.030 -0.1910  0.0037  0.0367
31152W        W46283   6.667  16.314  12.811 -0.2810 -0.2360 -0.0054
31153W        W46284  16.067  16.978  11.971 -0.0619  0.2706  0.0207
31154W        W46285   5.424  15.529   9.705  0.3626  0.0751  0.0991
31155W        W46286  12.300   9.544   0.057  0.0484  0.1794 -0.0098
31156W        W46287   5.576   6.522  14.355  0.1417 -0.1840  0.1299
31157W        W46288   2.415  11.511   3.234  0.0348  0.1039  0.2267
31158W        W46289   5.605   2.720   3.565  0.0053  0.0613  0.0773
31159W        W46290   6.643  15.437  13.324 -0.0436 -0.0799  0.1368
31160W        W46291   1.517   9.604  12.049  0.0408  0.3655  0.0492
31161W        W46292   0.081   1.285  13.605 -0.3346  0.0715 -0.4927
31162W        W46293   5.775   6.910  11.916  0.1070  0.4773 -0.0089
31163W        W46294   3.192  14.150   4.548 -0.1960  0.0353 -0.2897
31164W        W46295   8.308   9.445  15.036  0.0899 -0.1570  0.1151
31165W        W46296  12.081  13.919   1.959 -0.4279 -0.2158  0.1972
31166W        W46297   2.312  12.900  12.869  0.1111  0.2514  0.0507
31167W        W46298   4.871  12.363  12.981  0.2664  0.0850 -0.0224
31168W        W46299  17.840   6.026  11.447  0.1947 -0.1272  0.2666
31169W        W46300   1.229   2.477   4.794  0.0761 -0.0489  0.2209
31170W        W46301   9.702   9.623   1.130  0.2610 -0.0098  0.1993
31171W        W46302   7.722  17.796  12.398  0.1803  0.0980 -0.2569
31172W        W46303  10.891  11.038   4.997  0.0820 -0.0213 -0.4654
31173W        W46304  16.720   4.106  11.585 -0.0103  0.0852 -0.0355
31174W        W46305   2.424   1.748   4.604  0.1753  0.0454 -0.2135
31175W        W46306   7.390   0.303   2.725 -0.2206  0.2764  0.0461
31176W        W46307   7.556   3.567   0.189  0.0435 -0.0229 -0.0924
31177W        W46308  10.057   4.930  14.569  0.2768  0.2392 -0.1149
31178W        W46309   8.885  16.872   3.732 -0.1593  0.0359  0.1641
31179W        W46310  14.474   4.274   5.428 -0.1149 -0.1097 -0.1161
31180W        W46311   2.348   6.613   4.614  0.3241 -0.2186 -0.1460
31181W        W46312  13.886   8.201  12.106  0.3459  0.1595  0.2490
31182W        W46313   8.728  10.533   3.829  0.0320 -0.0128 -0.1576
31183W        W46314  11.204  16.546   2.095 -0.3191  0.1637 -0.0034
31184W        W46315  16.677  14.003  13.820  0.1011  0.2591  0.1439
31185W        W46316   2.891   4.213   0.815 -0.1486  0.0624  0.2698
31186W        W46317   0.713   1.482  15.251  0.0416  0.0478 -0.1903
31187W        W46318   7.262   4.833   2.521  0.3300 -0.3381  0.4133
31188W        W46319  11.298  16.764   4.573  0.1143 -0.1243  0.0737
31189W        W46320  12.344  17.701   2.173 -0.0128  0.0004  0.0611
31190W        W46321   8.716   3.532   0.061 -0.2376 -0.2664  0.0921
31191W        W46322  18.413   1.357   0.103 -0.4679  0.1002  0.3238
31192W        W46323  11.755   1.492   5.453 -0.1037  0.0148  0.1297
31193W        W46324  18.601  18.106  13.190  0.2539  0.1045  0.4755
31194W        W46325  12.937  11.599  15.760 -0.0109 -0.2168 -0.2161
31195W        W46326   8.982  13.913  12.562 -0.0061  0.1800 -0.0030
31196W        W46327  18.633   1.129   1.704  0.1793  0.0344  0.0649
31197W        W46328   1.222  11.970  12.557 -0.3188  0.0836 -0.1992
31198W        W46329   1.346  11.984   0.932  0.2389  0.0200  0.2657
31199W        W46330   3.845   9.622  12.091  0.0448  0.1512 -0.1579
31200W        W46331   1.223   2.920   4.556  0.1465 -0.0411 -0.0352
31201W        W46332  13.069  17.340  13.574  0.1301 -0.1528  0.4256
31202W        W46333  16.305   5.956  13.692 -0.1230 -0.2696 -0.0892
31203W        W46334  12.000   5.012  13.307  0.0620  0.0598  0.0059
31204W        W46335   8.593   9.885  15.123  0.2255  0.0308 -0.2367
31205W        W46336   7.910   3.312  15.274  0.2094  0.0089 -0.0307
31206W        W46337  17.175  11.072  11.673 -0.5214 -0.1166 -0.2775
31207W        W46338   2.041  14.088   4.938 -0.2539  0.0527 -0.0126
31208W        W46339  11.449   2.773   5.365  0.0645 -0.2028 -0.1140
31209W        W46340   8.038   0.988  15.154  0.1884  0.1195  0.1366
31210W        W46341  11.760   1.753   2.977  0.3131  0.0297 -0.0058
31211W        W46342   0.663   5.111  11.103 -0.0645  0.0082 -0.0833
31212W        W46343   3.176  13.170  13.482 -0.1022  0.1978 -0.0048
31213W        W46344   2.864   8.372  10.651 -0.0454 -0.0640 -0.2227
31214W        W46345  12.449  11.217   1.450 -0.1457  0.0057 -0.5657
31215W        W46346  11.058  12.488  11.013 -0.0572  0.0199 -0.0923
31216W        W46347  11.603  11.665  14.204  0.2105 -0.1468  0.1669
31217W        W46348   5.760  17.516   4.038 -0.0899 -0.0114 -0.1431
31218W        W46349  16.381  16.118   9.989  0.0748 -0.1248 -0.0010
31219W        W46350   4.320  13.448  13.724  0.2082  0.0740 -0.1522
31220W        W46351  11.440   7.489   2.471 -0.2454 -0.0389  0.0178
31221W        W46352   2.701  14.820   1.170  0.0333 -0.3064 -0.0447
31222W        W46353  13.496   1.190   5.800 -0.3159 -0.0527  0.1125
31223W        W46354   5.681  17.792  15.590  0.1656 -0.0531  0.0603
31224W        W46355  12.149   4.183  13.712 -0.1191  0.4043 -0.0119
31225W        W46356   1.191   1.182  12.682  0.1857 -0.0631 -0.1075
31226W        W46357   0.989  10.865  11.643  0.0576  0.0727  0.0752
31227W        W46358   5.263   4.577   4.177 -0.2322  0.0425  0.0903
31228W        W46359   7.238   1.911   3.572  0.0516  0.4855 -0.3243
31229W        W46360   1.863   9.591   2.804  0.0800 -0.1998 -0.3419
31230W        W46361   6.560  13.397   5.002  0.1485 -0.1871  0.1739
31231W        W46362  15.848   3.835  13.166  0.0353 -0.0627 -0.0394
31232W        W46363  15.565  16.208  12.111  0.2239  0.1197 -0.0988
31233W        W46364  13.908  18.433   2.841 -0.1052  0.0529 -0.2766
31234W        W46365   8.363  18.314  12.996  0.0678  0.1618 -0.0149
31235W        W46366  10.229  16.828   3.498  0.4816 -0.1551 -0.1725
31236W        W46367   5.502  14.506   0.950  0.0031 -0.1612  0.2616
31237W        W46368   7.900  11.395   4.445 -0.2420  0.1784  0.1337
31238W        W46369   3.478   3.710   2.227 -0.2346  0.1397  0.1457
31239W        W46370   5.845  15.795   1.254 -0.2153  0.1641 -0.1486
31240W        W46371   9.000  10.825  14.284  0.0024  0.0032  0.1217
31241W        W46372   4.190   1.718   5.480 -0.2352 -0.4335  0.2161
31242W        W46373   5.684  13.892  13.012  0.0302  0.0985 -0.2506
31243W        W46374   4.852  13.986  14.438  0.2240  0.0671  0.0669
31244W        W46375   1.234   1.812  15.615 -0.0874  0.1167  0.2696
31245W        W46376  11.210  18.522   1.426 -0.1685  0.2027  0.2960
31246W        W46377   6.250  16.278  13.731  0.0133  0.2773  0.1529
31247W        W46378  10.906  14.803   4.695 -0.0072  0.2301 -0.0696
31248W        W46379  17.671  13.029   3.885 -0.2971  0.3833 -0.3063
31249W        W46380  13.485  14.830  13.082  0.0442 -0.1626  0.0796
31250W        W46381   3.565  13.088   1.554 -0.1558 -0.1429 -0.1789
31251W        W46382  10.589   9.555  10.332  0.2302 -0.2373  0.0140
31252W        W46383   0.688   2.225  11.017 -0.0806  0.0930 -0.1520
31253W        W46384   6.769   6.446   2.575 -0.2523 -0.0540 -0.2234
31254W        W46385  17.053  11.613  11.354  0.0575  0.3204 -0.0721
31255W        W46386   3.833  10.008   1.431  0.0685 -0.0903  0.1134
31256W        W46387  17.401   1.535  14.692  0.0765 -0.4519  0.1523
31257W        W46388   9.985  18.641   0.795  0.2204  0.0153 -0.0854
31258W        W46389  11.808  14.802   2.492  0.0170 -0.2370 -0.2168
31259W        W46390   1.008   1.316   0.308 -0.0867 -0.2326  0.2230
31260W        W46391  12.305   9.153  10.756  0.1793 -0.0205 -0.0071
31261W        W46392   1.519   6.780   1.275  0.1202  0.4594 -0.0437
31262W        W46393  11.803  11.273  13.710  0.1060 -0.0654  0.2017
31263W        W46394  15.628  16.705  13.346 -0.1045  0.0694 -0.3143
31264W        W46395  15.528  15.776   2.796 -0.2072  0.3803  0.0423
31265W        W46396  13.405   9.024  12.185 -0.0953 -0.2988 -0.0805
31266W        W46397  14.345   1.012  12.975  0.0492  0.0871  0.0120
31267W        W46398   7.898   5.291  13.638 -0.4066  0.0077  0.1590
31268W        W46399  12.861   4.377   3.185  0.1882  0.0426  0.0078
31269W        W46400  11.188  14.640  12.193  0.0793 -0.2585  0.2948
31270W        W46401   3.334  12.278   4.909 -0.1707 -0.0942 -0.0809
31271W        W46402  12.499   9.202   5.668  0.4866 -0.1769 -0.0184
31272W        W46403   2.646   5.962  13.662  0.2572  0.2158 -0.2281
31273W        W46404  10.043  12.205  14.667  0.2869 -0.4219 -0.0987
31274W        W46405  14.138  10.039  15.719  0.3175 -0.1493  0.2714
31275W        W46406   0.420  11.222  11.246  0.4768  0.0761  0.2401
31276W        W46407   2.874   4.978  14.577  0.0759 -0.1632  0.3012
31277W        W46408  16.968   0.833  13.713 -0.0225 -0.0272  0.0699
31278W        W46409   2.245   0.100   3.463  0.1315 -0.0855  0.1765
31279W        W46410  13.117   8.690  14.647 -0.0462  0.2776 -0.0683
31280W        W46411   4.544  16.756   0.911  0.2249 -0.2178  0.2462
31281W        W46412  15.905  18.596   0.214  0.2298  0.0767 -0.0173
31282W        W46413  13.417  10.256  11.388  0.1266  0.2722 -0.0973
31283W        W46414   8.570   2.830   1.662 -0.5658 -0.0395  0.2072
31284W        W46415  12.605  18.224   3.679 -0.0342  0.1590 -0.0561
31285W        W46416   9.840  17.343  11.577 -0.3816  0.1490 -0.1459
31286W        W46417   4.730  16.382   4.184  0.0045  0.0723  0.0680
31287W        W46418  13.418  15.008  10.408 -0.1224 -0.1418 -0.2538
31288W        W46419   3.165   1.351   2.274  0.1285  0.1054  0.0011
31289W        W46420   9.862   4.752   3.810 -0.2414  0.0157  0.0895
31290W        W46421   2.399   4.448   3.554  0.0877 -0.0274  0.0055
31291W        W46422   6.770   7.282  14.750  0.1336 -0.0786 -0.3541
31292W        W46423   1.647  18.131  12.361 -0.2050  0.1440 -0.0399
31293W        W46424   5.559   4.147  12.502 -0.0194 -0.3206 -0.0934
31294W        W46425  11.733  10.554   1.120 -0.0401 -0.0940 -0.0094
31295W        W46426   2.474  12.402  12.586 -0.1368  0.3671  0.0960
31296W        W46427  18.632   8.650  10.463 -0.1854  0.0232  0.1037
31297W        W46428  14.991  14.507  13.776 -0.1599  0.4437 -0.1515
31298W        W46429   4.646   6.261  14.244 -0.3403 -0.2067 -0.0186
31299W        W46430  13.537  10.524   3.577 -0.1244 -0.1428  0.2398
31300W        W46431  14.536   6.770   2.055 -0.4745  0.0985  0.1666
31301W        W46432  13.473  11.032   5.948  0.0881  0.2589  0.1569
31302W        W46433   5.097  16.152  11.606  0.0080  0.1429  0.2282
31303W        W46434   8.639   5.218   3.009  0.3241  0.0828  0.4423
31304W        W46435  18.250   9.311  11.649  0.1707 -0.1551 -0.2950
31305W        W46436   8.218  18.017  12.209  0.0560  0.0353  0.0431
31306W        W46437   1.639   2.038   6.294 -0.1057 -0.0568  0.2615
31307W        W46438  10.224   5.384  11.400  0.0126 -0.2759 -0.1786
31308W        W46439  17.166  14.848  12.575 -0.1069 -0.3303  0.0025
31309W        W46440   5.898   2.475  14.422  0.0249  0.2360  0.0920
31310W        W46441  18.521   2.603  14.505 -0.1404  0.0957  0.0330
31311W        W46442   3.459  10.566   3.991  0.1054  0.1146  0.1530
31312W        W46443  11.840   6.480  11.100 -0.0986 -0.0031 -0.0926
31313W        W46444   1.270   5.392  15.760  0.1110 -0.0948 -0.0207
31314W        W46445   1.075  12.625   0.521 -0.1379 -0.1563 -0.2663
31315W        W46446   9.948  18.195   2.816 -0.0794  0.3583  0.4602
31316W        W46447  16.717   2.604   0.343  0.0730 -0.1160  0.1470
31317W        W46448  12.472  13.143   4.830 -0.1181 -0.0762  0.2114
31318W        W46449   5.277  13.180  14.139 -0.2100 -0.0291 -0.1526
31319W        W46450  15.930  17.553  13.546  0.0945  0.0562 -0.1901
31320W        W46451  12.114   4.830  10.833  0.1441  0.1957  0.0577
31321W        W46452  17.128  13.271  11.415 -0.3097 -0.0066  0.0961
31322W        W46453   0.634   7.167  12.300  0.3503  0.1303  0.1455
31323W        W46454   6.891   5.432   4.841 -0.0182  0.2994  0.3241
31324W        W46455   0.034   1.783  11.671 -0.1068 -0.0082  0.1219
31325W        W46456  18.344  16.507  11.768  0.0695 -0.0619  0.3933
31326W        W46457   9.166   7.167   3.190 -0.1671 -0.1413  0.2726
31327W        W46458   7.205  10.245  14.283 -0.0673 -0.3978  0.0598
31328W        W46459  16.751   6.150  10.850 -0.0662  0.1596  0.3927
31329W        W46460   0.694  12.825   1.477 -0.1120  0.1623 -0.4212
31330W        W46461   2.759   6.854   4.247  0.0923  0.1086  0.1049
31331W        W46462   8.283  16.511   3.201  0.2133  0.2520  0.0750
31332W        W46463   6.812   1.584   1.056  0.0925 -0.1274  0.2545
31333W        W46464   1.337   4.628  14.811  0.1418 -0.0936 -0.0688
31334W        W46465   3.383   2.942  12.538  0.0856  0.0102 -0.2614
31335W        W46466   5.491  17.211  13.784 -0.0808  0.1337  0.3531
31336W        W46467  10.901   6.888  12.034  0.2299  0.2143  0.0560
31337W        W46468  15.453   5.869  11.650 -0.0333 -0.0964 -0.3259
31338W        W46469  15.838   4.392  11.293  0.1157  0.1387 -0.3326
31339W        W46470  17.820   6.576   2.333 -0.1445  0.1026 -0.0771
31340W        W46471  13.327  15.188   0.583  0.0914  0.1545  0.1516
31341W        W46472   1.662   6.001  13.753 -0.0701 -0.0200  0.1409
31342W        W46473  11.139  17.086  13.154 -0.3653  0.3128  0.0692
31343W        W46474  16.067   2.179  13.202  0.0370  0.1051  0.0370
31344W        W46475   3.474  13.983  11.393  0.1907 -0.0424 -0.0512
31345W        W46476  18.541   2.872   4.779  0.1787 -0.1206  0.6038
31346W        W46477  14.627  17.357  12.187 -0.0245  0.0685 -0.5126
31347W        W46478   2.021   3.820  15.720 -0.1297  0.0094  0.2495
31348W        W46479  11.677  14.497  13.912 -0.1635  0.0079 -0.1308
31349W        W46480  13.540  13.372  15.173 -0.2637 -0.0285 -0.3991
31350W        W46481   1.600   8.076   6.015 -0.0221  0.0625 -0.0789
31351W        W46482  17.092  16.513  12.753 -0.2132 -0.4407 -0.0191
31352W        W46483  17.974   1.595  11.381 -0.1422 -0.1909 -0.1431
31353W        W46484  12.375  10.151  11.850  0.0272  0.1722 -0.1046
31354W        W46485   6.205   0.895   1.086  0.0428  0.1313  0.0059
31355W        W46486  15.405   9.207   1.275 -0.0059  0.1435 -0.0065
31356W        W46487   6.442  13.993   2.591 -0.1415 -0.0858 -0.2246
31357W        W46488  17.968  14.709   4.256  0.0049  0.0704  0.1503
31358W        W46489   5.429  11.518   5.215 -0.0088 -0.0008 -0.1530
31359W        W46490  13.610  14.485   3.725 -0.1316 -0.0141 -0.5240
31360W        W46491   6.914   1.492   3.862  0.3577 -0.1258 -0.1681
31361W        W46492  13.836  18.259  15.448  0.0564 -0.2707  0.3905
31362W        W46493   0.775  17.658   4.972  0.1648  0.2313 -0.0523
31363W        W46494  11.891  15.210  14.743  0.3048 -0.3327  0.3060
31364W        W46495  18.713  16.809  13.023  0.1986  0.0199  0.2257
31365W        W46496  14.513  14.128   2.330  0.0608  0.2728  0.1856
31366W        W46497  17.381  10.169   1.455 -0.1521  0.0858  0.1827
31367W        W46498  14.424  12.846  14.867  0.0989 -0.0163 -0.0054
31368W        W46499  11.888   6.889   1.570 -0.0775  0.0660  0.3219
31369W        W46500   5.816  16.844  10.807 -0.0192 -0.0183  0.1002
31370W        W46501  12.420  11.895   0.649  0.2791 -0.0476  0.0180
31371W        W46502  11.307   7.689  14.273 -0.1117  0.1942  0.1387
31372W        W46503  12.557  17.571   4.976  0.3389  0.1944  0.1671
31373W        W46504  13.046   5.297   4.861 -0.0756  0.0497  0.1055
31374W        W46505  17.733   9.365  15.609  0.1594 -0.0172 -0.3627
31375W        W46506   0.989   5.337   4.019  0.0371  0.0807 -0.0387
31376W        W46507   4.814  18.594  12.445  0.1351  0.0722  0.1954
31377W        W46508  12.150  16.727  12.841  0.0480  0.0641 -0.0647
31378W        W46509   6.705  11.177   1.942  0.0106  0.0501 -0.0352
31379W        W46510  10.762   9.824  15.360 -0.2876  0.0799 -0.0743
31380W        W46511   8.853   3.144  14.161  0.0764 -0.0313 -0.4019
31381W        W46512   9.404   9.257  15.630 -0.0050 -0.1398  0.1146
31382W        W46513  15.260   4.961  12.655 -0.1623 -0.1938 -0.1476
31383W        W46514  16.518  10.844   0.760 -0.1772 -0.4043 -0.1590
31384W        W46515  14.169   9.860   2.663  0.0216 -0.3931 -0.0047
31385W        W46516   4.802  13.650   3.154  0.0535 -0.1437 -0.0449
31386W        W46517  15.262  11.160  12.508  0.0444  0.0776 -0.1402
31387W        W46518  14.365   1.378  11.501 -0.2491 -0.2532 -0.1514
31388W        W46519  14.026  18.302   0.524  0.3275 -0.4389  0.1082
31389W        W46520  16.605  16.475   1.176 -0.4470  0.1779 -0.0446
31390W        W46521   2.558   1.736  12.467 -0.0067 -0.3910 -0.0398
31391W        W46522  13.592  11.562   2.089  0.1886 -0.2149  0.3088
31392W        W46523   8.095   1.309  14.169 -0.0738  0.0828 -0.3201
31393W        W46524  11.120   2.327   1.533 -0.1224  0.0591  0.0748
31394W        W46525  16.998  15.804  11.345 -0.0947 -0.1045  0.1484
31395W        W46526  17.727   2.015   5.326 -0.3619 -0.0134  0.0821
31396W        W46527  18.615  10.402   2.847 -0.1960 -0.3485 -0.2603
31397W        W46528  15.767  18.265   4.652  0.1349 -0.0722 -0.3745
31398W        W46529  12.736   4.254   2.633 -0.1693 -0.0482 -0.0885
31399W        W46530  16.949  15.763  12.117 -0.2699 -0.1740  0.1742
31400W        W46531   9.062   3.473   4.693 -0.0840  0.4434  0.0905
31401W        W46532   8.480  13.833   0.490 -0.0576  0.0382  0.0611
31402W        W46533   6.740   9.580  11.239  0.0476 -0.0793  0.0498
31403W        W46534  12.869   5.125   0.087 -0.3346  0.2453 -0.0178
31404W        W46535  14.356  13.793   3.937  0.0504  0.2314  0.0726
31405W        W46536  18.527  14.720  12.494 -0.0084  0.2242  0.0174
31406W        W46537  15.552  13.162  12.522 -0.0831  0.3097 -0.1775
31407W        W46538   2.725  11.027  15.045  0.0098 -0.2538  0.0893
31408W        W46539   7.467  10.934   3.667  0.0819 -0.0618  0.0218
31409W        W46540   4.967   9.903   5.052  0.2680 -0.0719 -0.2959
31410W        W46541   8.865  12.274   4.028  0.0023 -0.0656  0.1115
31411W        W46542   4.808   5.410  10.816 -0.2165  0.0055 -0.3591
31412W        W46543   6.632   3.214   2.543  0.2240 -0.0366 -0.3659
31413W        W46544  16.339   6.188  11.607 -0.1716  0.1416 -0.1730
31414W        W46545   4.300  14.686   4.655  0.0890  0.1261 -0.0828
31415W        W46546   1.212  16.807  15.715 -0.0216 -0.2756  0.0655
31416W        W46547   1.349  11.827   3.201  0.0639  0.0254  0.2456
31417W        W46548   2.346  14.623   3.972 -0.0852  0.0914 -0.2164
31418W        W46549   1.828   5.402  10.462 -0.1853  0.0443 -0.0547
31419W        W46550   4.655  13.622  15.098  0.2806 -0.1361 -0.1986
31420W        W46551  14.679  14.491   3.475  0.1796  0.2756 -0.1324
31421W        W46552  15.106   8.918   6.037  0.2135  0.2130 -0.1361
31422W        W46553   8.735   4.803  13.723  0.2170  0.1014 -0.1574
31423W        W46554  15.821   8.400   3.148 -0.0309  0.2158  0.3324
31424W        W46555   4.357  14.753   3.215 -0.2456 -0.0354  0.0595
31425W        W46556  15.142   6.949   0.361 -0.1657  0.1052  0.2377
31426W        W46557   4.966   9.244   5.338 -0.1320 -0.2496 -0.4643
31427W        W46558   5.374   3.697  13.308 -0.3691  0.2370 -0.1516
31428W        W46559   1.014   8.941   3.091 -0.0317  0.2522 -0.2772
31429W        W46560  11.982  10.336  13.793  0.0767  0.0738 -0.1028
31430W        W46561  13.327   4.853  13.638 -0.1405 -0.2324 -0.0515
31431W        W46562   7.753  10.535  14.169 -0.2556  0.0938 -0.0810
31432W        W46563  14.958   6.437  14.849 -0.0072 -0.4211 -0.2319
31433W        W46564  11.720  17.128  13.225 -0.0254  0.1157 -0.0209
31434W        W46565   7.561   9.446  12.398  0.0077 -0.0114 -0.0604
31435W        W46566   8.234   5.063   4.920 -0.1698  0.1310  0.2416
31436W        W46567   6.856   7.878   5.201 -0.3124 -0.3334 -0.3796
31437W        W46568   8.147  12.730   4.206 -0.1647  0.1300 -0.1625
31438W        W46569  10.541   0.807  13.777  0.0462  0.2471  0.0100
31439W        W46570  17.192  16.154  12.386 -0.1297 -0.0448 -0.0651
31440W        W46571   5.430   3.279  11.530 -0.4151  0.1654  0.2680
31441W        W46572   1.691   7.000  12.127  0.0518  0.0073 -0.4476
31442W        W46573  10.054  11.708  12.654  0.0487 -0.2278  0.2454
31443W        W46574   6.087   2.369  11.722 -0.1226  0.0664  0.0687
31444W        W46575  15.817  10.039  14.108 -0.0833 -0.1530  0.2893
31445W        W46576  13.065   7.556  13.209 -0.1333 -0.2924 -0.2786
31446W        W46577   5.182  13.745  12.387  0.0035  0.0464 -0.3902
31447W        W46578   8.890   3.097   3.722  0.2020 -0.0017  0.2862
31448W        W46579   9.853   7.189   3.882 -0.1341 -0.1641 -0.1437
31449W        W46580   7.826  18.321   6.111 -0.1434  0.0082 -0.3818
31450W        W46581   8.767  16.654   1.195 -0.2773  0.0176  0.1451
31451W        W46582   4.720  14.200  15.513 -0.0174  0.1144  0.1907
31452W        W46583  11.645   0.462   4.541 -0.0209  0.0598  0.0999
31453W        W46584   7.496  10.397   4.737  0.0292  0.0976  0.0285
31454W        W46585   6.886   2.223   3.905 -0.0720 -0.2091  0.0501
31455W        W46586   5.124  10.781   2.271 -0.0239  0.2003  0.0316
31456W        W46587  14.150  17.127   1.068  0.2183  0.3194 -0.0079
31457W        W46588  12.011  12.783  10.876 -0.0970 -0.0997  0.1826
31458W        W46589  16.473   1.496   2.507 -0.1990  0.1207  0.0437
31459W        W46590  17.328   7.918  14.771  0.1314 -0.0318  0.1430
31460W        W46591   0.999   7.223  10.782 -0.1195  0.2557  0.0536
31461W        W46592  14.163  15.326   4.284 -0.3431 -0.0717 -0.1743
31462W        W46593   6.072  17.903   4.297 -0.0609 -0.0565  0.0506
31463W        W46594  12.451  16.396   3.198 -0.3774  0.0825 -0.0247
31464W        W46595  10.949   1.500  14.391 -0.0926  0.1757  0.1718
31465W        W46596   5.562   1.705   1.017  0.0306 -0.2491  0.0708
31466W        W46597  11.563   5.223   0.459  0.0702 -0.3782  0.2991
31467W        W46598   3.614  14.311   2.298 -0.5256  0.1680 -0.0004
31468W        W46599   1.198  12.045  15.708  0.2838  0.0538  0.2229
31469W        W46600  17.371   9.919  14.205 -0.1026 -0.0439 -0.2312
31470W        W46601   3.079  12.153  14.772  0.1045  0.1087  0.0192
31471W        W46602  14.074   9.514  14.249 -0.0586  0.1597  0.2630
31472W        W46603  16.666   8.614   2.873 -0.1129  0.2208 -0.2073
31473W        W46604   5.110  17.602  14.210  0.0958  0.1311  0.1295
31474W        W46605  15.100  16.604  12.019 -0.0556 -0.2352 -0.0931
31475W        W46606  13.688  13.239   0.373 -0.1737 -0.4177  0.0399
31476W        W46607   4.088  11.885  13.047  0.0037 -0.0301  0.1373
31477W        W46608   4.037   1.787   2.714  0.1418 -0.1811  0.0475
31478W        W46609  16.451   7.316   4.917 -0.1518 -0.3127 -0.3148
31479W        W46610   6.533   6.867   2.741 -0.1030  0.1506 -0.0274
31480W        W46611  18.674  14.556  12.943 -0.1768 -0.2385  0.3249
31481W        W46612   6.657  10.176  10.567  0.4410 -0.3685  0.1102
31482W        W46613  11.943  10.361   0.680 -0.0426 -0.2497  0.0312
31483W        W46614  17.176   6.546  14.978  0.1457 -0.0897  0.0571
31484W        W46615   8.202  13.912  11.517 -0.1544  0.0103 -0.1490
31485W        W46616  12.337  17.218  14.875  0.2656  0.0950  0.2249
31486W        W46617   7.493   2.602   0.987  0.2679  0.1732  0.0971
31487W        W46618  17.595   4.812   2.448 -0.0335 -0.1112 -0.0924
31488W        W46619  16.081   1.958  15.031 -0.0507 -0.2240  0.0292
31489W        W46620   5.319   7.762   1.106 -0.0359  0.0491 -0.0284
31490W        W46621  17.791   5.540  13.441  0.2798  0.1038 -0.0315
31491W        W46622   0.784   0.938   5.195  0.0534 -0.1629 -0.1350
31492W        W46623   7.468  12.264   4.124 -0.0670 -0.2631  0.2589
31493W        W46624   7.540   4.143  13.219  0.1072 -0.1160 -0.1584
31494W        W46625   0.140   6.222   3.622  0.1821  0.4798  0.1902
31495W        W46626  10.560  14.054   3.039  0.1759 -0.3554 -0.0750
31496W        W46627  12.135  18.190  13.759  0.1870 -0.1556  0.0492
31497W        W46628   5.979   2.667   0.248 -0.2403 -0.1967  0.0525
31498W        W46629   2.174  12.189   1.649  0.0315 -0.0753  0.0769
31499W        W46630  17.825   5.084   0.171  0.0512 -0.0881  0.0658
31500W        W46631  10.935   8.756   4.166  0.0926 -0.3215 -0.2783
31501W        W46632   6.325  14.347   3.695  0.0408  0.1946 -0.0527
31502W        W46633   5.712  17.859  11.503 -0.0717  0.1740  0.1188
31503W        W46634  12.813  15.766  13.714  0.2784  0.5043 -0.1497
31504W        W46635  14.658   5.344  11.357  0.2601 -0.1725 -0.1840
31505W        W46636   3.266  14.372  11.230  0.0294 -0.1585  0.2453
31506W        W46637  10.997  16.214   4.937 -0.2819 -0.2693 -0.0017
31507W        W46638   5.079   6.079  12.680  0.0239 -0.1515  0.1014
31508W        W46639   1.695   4.897  15.120 -0.0235 -0.1119 -0.0526
31509W        W46640   6.886   0.986   2.500  0.1035  0.2344  0.0031
31510W        W46641   7.276   0.439  12.069  0.0049  0.2056 -0.0843
31511W        W46642   8.246   5.501   3.178 -0.0829  0.1979 -0.0420
31512W        W46643   6.541  10.713   3.709  0.3072  0.1128  0.1070
31513W        W46644   3.723   5.206  13.525  0.0534 -0.0398  0.3422
31514W        W46645   3.876  13.793  15.342  0.0873  0.3754 -0.2049
31515W        W46646   5.209  11.566  11.134  0.1649  0.4672 -0.0799
31516W        W46647   3.776   7.741   0.633 -0.0523 -0.1149 -0.0488
31517W        W46648  13.536   7.682  11.242 -0.0494  0.0016 -0.1266
31518W        W46649   0.410  14.993   1.075 -0.1017  0.0339  0.2365
31519W        W46650   2.595  17.926   0.889  0.0741  0.0198  0.0968
31520W        W46651  10.752   8.995   1.774 -0.1665 -0.0507 -0.0649
31521W        W46652  18.194  12.371  11.335  0.0965 -0.3881 -0.4744
31522W        W46653   6.352  10.227  13.640 -0.0817  0.1073  0.1874
31523W        W46654   7.543   6.344   0.572 -0.0909  0.0926 -0.0542
31524W        W46655   0.393   4.779   9.400 -0.0187 -0.0487  0.0500
31525W        W46656   8.244   7.999   3.977 -0.2970  0.4531  0.0816
31526W        W46657  13.580  11.357   9.941 -0.1111  0.3107  0.1420
31527W        W46658  15.824   3.556  15.399 -0.1915  0.0296  0.1759
31528W        W46659  11.322  10.102  11.373  0.0277  0.2808 -0.2949
31529W        W46660   9.961   1.416   4.650 -0.3829  0.1555  0.0784
31530W        W46661   9.002  17.954   3.620 -0.1328  0.4287  0.3155
31531W        W46662  10.392   6.722  10.217 -0.1357  0.3160 -0.2982
31532W        W46663  17.079  13.005  12.692 -0.0224 -0.2311 -0.1989
31533W        W46664   5.310   4.413   5.200 -0.0342 -0.0175 -0.1832
31534W        W46665   4.553   4.795  11.777 -0.0753 -0.1581 -0.2409
31535W        W46666  16.849  17.627  11.039  0.0269  0.3494  0.0755
31536W        W46667  11.373   1.426   0.714 -0.0338 -0.1709  0.3408
31537W        W46668  13.292   4.242   3.361  0.3351  0.1051 -0.0014
31538W        W46669   5.098  17.322  10.640  0.2449 -0.0995  0.2562
31539W        W46670   9.984  16.156  11.928 -0.0476 -0.0185 -0.0620
31540W        W46671   0.296   2.583  12.583  0.0944  0.0441 -0.1425
31541W        W46672  16.341  13.102   2.983 -0.1225  0.1102  0.2456
31542W        W46673  10.011   7.523  10.762 -0.0887  0.1634  0.2022
31543W        W46674   3.849   5.641  14.475  0.0181 -0.1189 -0.1045
31544W        W46675  12.231  13.379   3.475  0.1290  0.2880 -0.4859
31545W        W46676   6.175  12.020   0.348  0.0144  0.0010  0.1604
31546W        W46677  11.346   4.713   2.506 -0.1792 -0.0796 -0.1094
31547W        W46678   9.776  18.144  14.504 -0.1401 -0.2007  0.1737
31548W        W46679  10.838   3.963   1.793 -0.2159 -0.2624  0.1392
31549W        W46680   2.083  10.880   1.391  0.0665 -0.2506  0.2133
31550W        W46681   5.045   7.701  12.751 -0.1409 -0.2771  0.1274
31551W        W46682  12.246   0.420  11.026  0.0013  0.0890 -0.1407
31552W        W46683  13.104  11.335   5.180 -0.2520 -0.0798 -0.0320
31553W        W46684   1.558   3.262   3.013 -0.1904  0.0020 -0.0964
31554W        W46685  17.454  18.633  14.894  0.2484 -0.2282 -0.0932
31555W        W46686   8.278   3.977  14.234  0.0955 -0.0395 -0.0777
31556W        W46687   8.442  11.272   2.261 -0.0818 -0.1087 -0.2680
31557W        W46688  11.686  16.097   1.283 -0.1807  0.2339  0.0337
31558W        W46689   2.541   3.553   0.485  0.1122  0.1022  0.1787
31559W        W46690  12.718  18.413  13.543 -0.0441  0.0460  0.2396
31560W        W46691   0.631   9.615  14.441  0.0970  0.3238  0.1097
31561W        W46692  11.740   1.674  11.131 -0.1781  0.0168 -0.0566
31562W        W46693   1.989  18.628  14.661 -0.0880  0.1888  0.1902
31563W        W46694   3.732  15.851   4.554  0.2143 -0.1080 -0.1673
31564W        W46695   9.242  11.515  11.351  0.3312  0.0369 -0.1222
31565W        W46696   7.048   9.046  15.608 -0.3701  0.0812  0.0149
31566W        W46697   5.294   3.853   4.987  0.0894  0.1070  0.0903
31567W        W46698  13.120  13.900  13.938  0.2466  0.1675 -0.1190
31568W        W46699   0.802  13.311   4.951  0.0864 -0.0812 -0.3206
31569W        W46700  15.711  17.605   3.289  0.0548  0.0897 -0.0244
31570W        W46701   0.436   2.318  14.820 -0.1937 -0.0394  0.0168
31571W        W46702   6.077   0.629   6.111 -0.1713  0.1371 -0.4005
31572W        W46703   8.266  11.897   0.662  0.0289  0.0951 -0.4500
31573W        W46704   8.847   6.824   3.659  0.1914  0.3618 -0.3097
31574W        W46705  10.086   3.549  15.215 -0.0931 -0.2323  0.3150
31575W        W46706   7.640  14.787   5.117 -0.2654 -0.2211  0.4430
31576W        W46707   4.126  18.094   0.576  0.1109  0.2537  0.2694
31577W        W46708  18.690   5.578   2.459  0.0860 -0.1148  0.2113
31578W        W46709  11.149  18.512  12.137  0.1103  0.0941 -0.3293
31579W        W46710   5.252   4.360   4.666 -0.1784 -0.0771 -0.2132
31580W        W46711  18.363  11.875  11.179 -0.0674 -0.1484 -0.1062
31581W        W46712  18.693  14.502  15.575 -0.3047  0.1051  0.2405
31582W        W46713   8.200  11.916   4.584 -0.0213  0.0940  0.2194
31583W        W46714   1.497  15.114  10.455  0.1056 -0.2055 -0.1527
31584W        W46715   8.908   6.524  15.057  0.2853  0.2933  0.0269
31585W        W46716  10.797  13.601  11.979  0.0809 -0.2205  0.0562
31586W        W46717  13.995  13.046   5.696 -0.1606 -0.0738 -0.0543
31587W        W46718   1.506  11.047  15.630 -0.0336 -0.0624  0.2658
31588W        W46719  11.747   6.540   4.413 -0.1373  0.0985 -0.1238
31589W        W46720  10.538   8.680  10.447 -0.0439  0.1088 -0.3790
31590W        W46721  10.577  18.478   5.098 -0.2503  0.4485 -0.2144
31591W        W46722   0.972   2.156  12.247 -0.0637  0.2280  0.0901
31592W        W46723  18.124   7.462   0.012 -0.0864 -0.2099 -0.0982
31593W        W46724   7.502   7.801   2.032  0.0879 -0.1332  0.0649
31594W        W46725  17.226  11.430   9.983  0.2198  0.2057  0.3451
31595W        W46726  10.991   1.278  14.857 -0.3077 -0.0837  0.0520
31596W        W46727  17.166  14.310  15.646  0.0487 -0.0796 -0.2037
31597W        W46728  18.053  16.259  13.521 -0.0637 -0.4130 -0.5144
31598W        W46729   0.884   1.819   3.591 -0.0078 -0.1115  0.0977
31599W        W46730  12.979  14.991  13.285  0.0559  0.1602  0.1391
31600W        W46731  15.100  10.612   4.919 -0.1247 -0.0110 -0.2434
31601W        W46732   2.539  11.792  11.766 -0.1537 -0.2463 -0.2134
31602W        W46733   4.227  13.253   2.888 -0.1114  0.1370  0.1166
31603W        W46734   1.914   7.853   4.190 -0.2876  0.0662 -0.4491
31604W        W46735   0.658  13.587   5.334 -0.0626  0.0025  0.1283
31605W        W46736   7.125   5.060   4.156 -0.3172 -0.3284  0.0332
31606W        W46737   8.122  11.681   3.900  0.4827 -0.1778 -0.1291
31607W        W46738   0.918  18.494  12.181 -0.3914  0.0256 -0.1310
31608W        W46739  10.009  15.250  10.969 -0.0209 -0.3899  0.2188
31609W        W46740   3.484   5.056  12.035  0.0526  0.0282 -0.5167
31610W        W46741  15.881  17.556   1.789 -0.1721 -0.0395 -0.1043
31611W        W46742  10.928  10.496   0.093  0.0305  0.1465 -0.3010
31612W        W46743  12.265   5.099  14.401  0.4346 -0.1006  0.2192
31613W        W46744  16.857   8.022  14.787  0.1620 -0.1774 -0.0646
31614W        W46745   3.983  17.190   9.754  0.2910 -0.1715  0.2512
31615W        W46746   2.058  18.422   4.830 -0.1031 -0.2351 -0.0465
31616W        W46747  10.064   7.813  12.569 -0.1544  0.0320  0.1595
31617W        W46748  14.894   6.374  12.614  0.1855 -0.0602 -0.1729
31618W        W46749   5.010   4.901   5.268  0.0424 -0.3174  0.2724
31619W        W46750   6.777  10.927  11.726 -0.1189  0.2235 -0.1769
31620W        W46751   4.533   2.405  11.834  0.1059 -0.1744 -0.1356
31621W        W46752  14.597   7.925   0.006 -0.2607 -0.1003 -0.0472
31622W        W46753   2.799  17.714   5.581 -0.5243  0.1143  0.2149
31623W        W46754   6.340   0.750   5.003  0.5587  0.0825 -0.0020
31624W        W46755  11.516   2.604  14.895 -0.0955 -0.4703  0.0224
31625W        W46756   6.916   0.548   2.829 -0.3283  0.1037 -0.0874
31626W        W46757   1.239   1.737   3.922  0.1559  0.1045  0.2729
31627W        W46758  10.325   2.079   1.531  0.0767  0.1400  0.0553
31628W        W46759   7.595   1.356   1.835  0.1159 -0.0583  0.2361
31629W        W46760   5.080   4.366  14.816 -0.0769  0.2874 -0.1342
31630W        W46761   7.621   6.352  14.474 -0.0686 -0.0385 -0.0798
31631W        W46762  18.199   5.383   0.980 -0.0056  0.0536  0.2670
31632W        W46763  10.138  12.670   5.019 -0.2614  0.1342  0.0720
31633W        W46764  16.850   7.695   9.983  0.0821  0.0619  0.0626
31634W        W46765   4.368  15.183  12.141 -0.4306 -0.2225  0.2198
31635W        W46766   1.312  16.453   5.771 -0.0008 -0.1675  0.0454
31636W        W46767  17.337  15.924  10.078  0.2306 -0.0455 -0.3350
31637W        W46768   8.955  10.285  11.939  0.2282  0.1196  0.3287
31638W        W46769  11.764  15.110   2.012 -0.0459  0.1474 -0.2174
31639W        W46770   4.062   5.959   2.375  0.2440  0.1655  0.0235
31640W        W46771  18.533  17.536  15.498 -0.0883 -0.0181  0.0038
31641W        W46772   3.472  13.277   0.687  0.1112  0.0023  0.2049
31642W        W46773   6.166  11.923   3.679  0.0827 -0.2063 -0.0619
31643W        W46774   1.468   6.522   4.940 -0.0031 -0.3846  0.2932
31644W        W46775   6.775  13.415  15.648  0.0468  0.1349 -0.3961
31645W        W46776   8.397  15.318  10.692  0.1436  0.2594 -0.1299
31646W        W46777   8.238  18.566   4.241  0.1967  0.1015  0.1727
31647W        W46778   4.734   7.392   1.515  0.2885 -0.0886 -0.0610
31648W        W46779  14.402   8.518  13.690 -0.3351  0.5803  0.1063
31649W        W46780  17.347   7.681   4.056 -0.0139 -0.0895 -0.0347
31650W        W46781  11.480  12.135  14.081 -0.0594 -0.1023 -0.3514
31651W        W46782  12.153   2.728   0.156 -0.0206  0.3791 -0.2751
31652W        W46783   4.598  10.345  14.697 -0.2701 -0.1391 -0.0786
31653W        W46784   1.438   5.707   0.466 -0.1145 -0.1582  0.2133
31654W        W46785   1.733  16.765  12.813 -0.3706 -0.2659  0.0815
31655W        W46786   0.522   8.950  13.096 -0.1464  0.0784  0.1250
31656W        W46787   4.150  15.043   4.184  0.0378 -0.1581 -0.1736
31657W        W46788   6.547   4.717  15.016  0.1448  0.1662 -0.0770
31658W        W46789  17.892  11.919   1.264  0.4884  0.1165  0.1251
31659W        W46790  12.763  14.907  10.455  0.0659 -0.1595 -0.2410
31660W        W46791  11.426   6.951  11.199 -0.3793  0.0048  0.1839
31661W        W46792   3.451  18.488  11.760  0.1118  0.3080 -0.0759
31662W        W46793   7.096  17.285  11.748 -0.3084 -0.2978  0.0677
31663W        W46794  10.741   2.472   4.079 -0.0971 -0.0238 -0.0744
31664W        W46795   0.749   2.778   4.595  0.2438 -0.1157 -0.1409
31665W        W46796   2.765   4.628   1.608  0.1942 -0.0038  0.0296
31666W        W46797  15.020  15.825   3.724 -0.2047 -0.2523  0.1937
31667W        W46798  13.213   1.763   1.405  0.0412  0.2059 -0.2044
31668W        W46799   4.559  13.303  15.520 -0.0485  0.0587  0.0342
31669W        W46800   7.157   0.131   3.124  0.0770 -0.1080 -0.0867
31670W        W46801  10.581   2.482  12.338  0.1969  0.2683  0.1745
31671W        W46802   7.664  11.969   9.453  0.3465  0.3611  0.0722
31672W        W46803  11.780   9.263  14.502  0.0005 -0.1829 -0.2760
31673W        W46804  11.300  14.957  10.057 -0.0574  0.0510 -0.0178
31674W        W46805   5.942  15.168   0.303  0.2001 -0.0935  0.0045
31675W        W46806  10.088  17.898   0.439 -0.1362 -0.0650 -0.2187
31676W        W46807  11.083  16.724  13.624  0.2902 -0.0961 -0.2505
31677W        W46808   5.152   3.061  11.895  0.0292  0.0349 -0.4142
31678W        W46809  17.638  17.198   4.647 -0.2683 -0.1436  0.2201
31679W        W46810  15.416   8.498  12.086 -0.1985  0.0352  0.2581
31680W        W46811  16.494  10.926   1.234  0.2639 -0.2786 -0.2963
31681W        W46812   1.016  10.981   4.186  0.1043 -0.0061 -0.1010
31682W        W46813   6.623   4.149  13.989  0.5341  0.2838  0.0620
31683W        W46814  11.958  11.998  15.475  0.1278  0.4250 -0.4824
31684W        W46815   0.095   1.656   3.638 -0.2198  0.0072  0.2355
31685W        W46816   0.765   5.204  15.214  0.1503 -0.0982  0.0228
31686W        W46817   5.446  12.033   5.306 -0.0802  0.2107 -0.1036
31687W        W46818  11.372   7.198  15.327  0.1148 -0.1833  0.4887
31688W        W46819   0.299   8.870   0.450 -0.4197  0.6217 -0.2407
31689W        W46820   9.085   8.057  15.628 -0.0339  0.3025 -0.3161
31690W        W46821  14.780   7.474   2.943  0.0636  0.0378  0.1068
31691W        W46822  17.467  11.048   2.832  0.0784  0.2617  0.2310
31692W        W46823  14.388   9.104   4.407 -0.3547 -0.2415  0.0409
31693W        W46824   5.276   2.004   3.209  0.2877  0.0650 -0.2024
31694W        W46825   5.331   3.251   1.790 -0.0329  0.0733  0.0866
31695W        W46826   2.879  14.822  12.929  0.1100 -0.1340 -0.2659
31696W        W46827  12.574   8.524  14.374  0.0195  0.3167  0.0410
31697W        W46828  10.639  11.367   0.573 -0.2266 -0.0285  0.1053
31698W        W46829  13.390   9.461   3.685 -0.2028 -0.0729  0.1327
31699W        W46830   1.997   8.760   4.414 -0.1123 -0.4515  0.0131
31700W        W46831   0.970  13.967  11.987 -0.0399  0.0037  0.2294
31701W        W46832  15.224   1.542   3.990 -0.1583 -0.2151  0.4697
31702W        W46833  12.331  12.621  12.094 -0.0816 -0.0453  0.0705
31703W        W46834   8.128  14.167   0.366 -0.2908 -0.0415  0.2810
31704W        W46835   1.110   2.976  13.096  0.3652 -0.0551 -0.0590
31705W        W46836   5.487   7.312   1.141  0.1011 -0.1261 -0.3114
31706W        W46837  13.027   2.755  10.507  0.0404  0.0065  0.1069
31707W        W46838  13.182  12.441   2.381 -0.1480  0.0062  0.2639
31708W        W46839   6.471  18.294  13.792  0.0852  0.0298 -0.2347
31709W        W46840   2.875   3.235   1.909  0.0221  0.2212  0.1152
31710W        W46841  14.194   0.696  14.744 -0.2079 -0.2472  0.0174
31711W        W46842  17.135   3.806   4.227 -0.1298  0.1509 -0.2005
31712W        W46843   2.748  16.244   0.070 -0.2187 -0.3426 -0.1595
31713W        W46844   2.210   2.599  12.866  0.2615  0.3604  0.2803
31714W        W46845   1.002  13.584  10.146  0.0632 -0.0151 -0.2392
31715W        W46846  17.510  10.855  10.937 -0.1192  0.0661  0.0757
31716W        W46847   8.423   7.278  15.404 -0.0663 -0.0430  0.2149
31717W        W46848  10.409  18.191  10.726  0.0399 -0.4146 -0.0554
31718W        W46849  10.960  11.374  13.042 -0.0435  0.2833 -0.1828
31719W        W46850   5.651   9.024  14.871 -0.0741  0.1798 -0.2567
31720W        W46851   9.950   4.270  13.704 -0.2500 -0.0354 -0.1985
31721W        W46852  15.885  10.139   1.338  0.3100 -0.0866  0.1395
31722W        W46853  10.060   7.199  11.834  0.2400 -0.0673 -0.1107
31723W        W46854  16.309  14.377   0.438  0.2807  0.0186 -0.0918
31724W        W46855   3.269  17.120   0.821 -0.0476  0.0076  0.3672
31725W        W46856  11.040   2.420   1.027 -0.1474  0.2482  0.0849
31726W        W46857  14.633  11.689   3.658 -0.0188  0.0203  0.1482
31727W        W46858   8.845  13.982  10.343  0.2953 -0.1420  0.1157
31728W        W46859  16.512  12.454  14.697  0.1831 -0.2519  0.4337
31729W        W46860  13.790  17.470   2.422 -0.2883  0.1828 -0.0344
31730W        W46861  14.484   2.326  14.850  0.1863 -0.2193  0.0383
31731W        W46862   7.793   3.847   1.935  0.1977  0.0130  0.0796
31732W        W46863  10.573   5.764  11.218  0.2649  0.0790  0.0650
31733W        W46864   1.343  17.382   2.266 -0.1051 -0.3302  0.1600
31734W        W46865  17.349   4.275  14.059 -0.2400  0.0430  0.0099
31735W        W46866  18.566   3.966   1.296 -0.0015 -0.2915  0.0168
31736W        W46867  12.853   6.356   3.390  0.3466  0.1106 -0.3123
31737W        W46868   1.599   6.507   3.354  0.4086  0.1612 -0.3047
31738W        W46869   4.253  16.254   2.110 -0.4523 -0.1451  0.0172
31739W        W46870   2.385   7.254   3.268 -0.2202 -0.0359  0.1138
31740W        W46871   6.964  12.664   3.517  0.3761 -0.1381  0.0180
31741W        W46872  18.063   3.063  12.291  0.1364  0.0471  0.2246
31742W        W46873   1.964  16.746   0.370 -0.2117  0.1924 -0.2141
31743W        W46874   3.345  12.295  11.380 -0.0852 -0.2595  0.1085
31744W        W46875   3.931  14.478   3.182 -0.2704  0.0049  0.2838
31745W        W46876   4.335   2.613  11.298  0.0557 -0.2621  0.0143
31746W        W46877   5.984   2.390   3.576 -0.1881 -0.0061  0.0782
31747W        W46878  12.676  12.569  13.475 -0.1046  0.0213 -0.0827
31748W        W46879   3.816  12.801  13.042 -0.1547 -0.0319 -0.0522
31749W        W46880  11.325  11.482   2.246 -0.0352 -0.1637 -0.0861
31750W        W46881   9.255   8.482   4.429 -0.3370  0.1211 -0.0732
31751W        W46882  15.871   0.831   3.792  0.3029 -0.4090 -0.2547
31752W        W46883   6.930   7.614   0.852 -0.2225 -0.1186  0.4359
31753W        W46884   7.450  14.313   2.775  0.1718  0.0719  0.0691
31754W        W46885   5.157   3.462   2.986 -0.0911  0.2055 -0.3007
31755W        W46886   2.944   7.871   4.313 -0.0234  0.3013 -0.2651
31756W        W46887   3.575   6.366   2.514 -0.1470 -0.2246  0.0771
31757W        W46888   3.394  17.970  11.754  0.1492  0.0435  0.0292
31758W        W46889  14.290   7.707  13.708  0.2314  0.0125 -0.2319
31759W        W46890  15.652  13.073   9.951 -0.0558 -0.4734  0.0791
31760W        W46891   8.477  18.407  12.545  0.2969  0.1365 -0.1531
31761W        W46892  15.999   7.174  12.076  0.0386 -0.2633 -0.2803
31762W        W46893   3.070   6.228   2.706 -0.1444  0.0577  0.0824
31763W        W46894  18.557   5.922   3.879  0.0162 -0.1487  0.1849
31764W        W46895   8.768   7.838   0.708 -0.2697  0.0385 -0.2543
31765W        W46896  10.039   3.713   4.094 -0.2025  0.1858 -0.1593
31766W        W46897   6.712  12.006   0.293 -0.0106  0.1776 -0.2685
31767W        W46898  10.849  17.314   1.341 -0.1119  0.2472 -0.1130
31768W        W46899   7.391  15.053   2.225 -0.0508 -0.0581  0.1762
31769W        W46900  14.807   1.610   0.041 -0.0164 -0.1387  0.2229
31770W        W46901  12.062   1.277  12.774 -0.0154  0.1989  0.0262
31771W        W46902   7.918   3.873   0.383 -0.3757  0.2099 -0.1490
31772W        W46903   0.255   6.456   0.418 -0.2958 -0.3401  0.1375
31773W        W46904   8.834  11.787  11.526  0.1004 -0.0836  0.0818
31774W        W46905  16.940  12.477   4.492  0.2369 -0.1903  0.2389
31775W        W46906  10.568   4.387  11.260 -0.0911  0.3351  0.1627
31776W        W46907  18.293  17.143   1.304 -0.1506 -0.1146 -0.1528
31777W        W46908   9.236   6.257  13.311 -0.0210 -0.0950 -0.1482
31778W        W46909  10.381  18.655   4.241 -0.4068  0.0125  0.2663
31779W        W46910  15.523  16.520   2.499  0.4370  0.3827  0.0522
31780W        W46911  16.537   6.711  13.874  0.1899 -0.1796  0.1104
31781W        W46912   9.139   0.731   5.271 -0.3108 -0.2042 -0.3362
31782W        W46913  13.532   4.382  12.109  0.0144  0.2424  0.3074
31783W        W46914   1.778   5.915   4.097  0.1721 -0.1862 -0.3663
31784W        W46915  18.260  14.087   0.736 -0.0603  0.3758 -0.0403
31785W        W46916  16.925  11.796   1.124 -0.6095  0.0857 -0.0178
31786W        W46917  11.695   8.446  13.888 -0.1122  0.1983  0.1441
31787W        W46918   6.231  14.741   1.219 -0.2227  0.4665 -0.1313
31788W        W46919   5.843  11.355   3.118  0.2551  0.1605  0.3616
31789W        W46920   3.216   2.919   0.420 -0.1716  0.3343 -0.1660
31790W        W46921   2.575  12.496   9.873  0.1315  0.0725  0.5038
31791W        W46922   9.783   5.967   2.755  0.1152 -0.3081  0.0285
31792W        W46923   6.527   8.822   3.396  0.1061 -0.3094 -0.2039
31793W        W46924   6.008   8.286   5.381 -0.3522  0.1855  0.1482
31794W        W46925  12.981  15.308  14.188 -0.0253 -0.2332  0.2382
31795W        W46926  14.295  15.333   1.172  0.2528 -0.1436  0.1363
31796W        W46927  14.970  16.950   4.120  0.2966  0.1123 -0.0691
31797W        W46928   0.734   8.829  14.771  0.4018  0.2295  0.0995
31798W        W46929  12.195   9.857   0.814 -0.0999  0.0477  0.0775
31799W        W46930   8.979   4.659   0.159 -0.1523  0.0791 -0.2167
31800W        W46931   1.296  10.238   4.730 -0.0460 -0.2930 -0.0425
31801W        W46932  18.627   2.586   1.550 -0.1112  0.0159  0.1318
31802W        W46933   8.963  10.513  10.376 -0.1625 -0.0410 -0.0763
31803W        W46934   1.078   6.459   2.442 -0.1117 -0.3845 -0.2324
31804W        W46935   8.207  12.832  14.280  0.0569  0.6644  0.0078
31805W        W46936   2.448   0.326  11.685 -0.0418  0.0688 -0.0537
31806W        W46937  17.155   0.741  11.902 -0.0236  0.0104 -0.3359
31807W        W46938   9.197   4.052  13.678  0.1021  0.2065  0.2754
31808W        W46939   6.955  14.453  15.615  0.1566  0.0304  0.2283
31809W        W46940   8.797  13.723   3.306  0.2962  0.3826  0.0394
31810W        W46941  13.918   2.682  11.084  0.0953  0.3036  0.0529
31811W        W46942   1.831  14.357   3.088  0.2838 -0.0026  0.0931
31812W        W46943   3.205   4.010   0.512  0.0125 -0.1599  0.1616
31813W        W46944   8.198   3.860  15.246  0.0515 -0.2750  0.2628
31814W        W46945  13.793  16.349  12.580 -0.1060  0.1636  0.0245
31815W        W46946  13.489  13.770  11.092 -0.0690 -0.3721 -0.1770
31816W        W46947   4.803   9.061   2.466 -0.2221 -0.2828 -0.1214
31817W        W46948   5.469   9.679  12.709  0.1753 -0.0057  0.0192
31818W        W46949   6.041   9.672   2.053  0.0408  0.0339  0.3160
31819W        W46950   7.069  16.690   4.868 -0.3753 -0.0069  0.1058
31820W        W46951   8.319  16.785   4.612 -0.2476  0.0723  0.2179
31821W        W46952  14.489  18.227  10.591  0.2279  0.3367 -0.3026
31822W        W46953  15.471  13.618   4.849  0.2395 -0.1542  0.0087
31823W        W46954   5.616   6.107  13.845 -0.0093  0.1214 -0.2634
31824W        W46955   1.664   0.539   0.108  0.3995 -0.1881 -0.1476
31825W        W46956  17.644  18.032  10.062 -0.0743  0.2122  0.3758
31826W        W46957  17.116   5.955  11.161 -0.2605 -0.0207 -0.1454
31827W        W46958  13.483  16.896   1.620 -0.2696  0.1824  0.1197
31828W        W46959  15.467  10.616  12.869 -0.0869 -0.2705 -0.2104
31829W        W46960   3.373   8.660   0.212 -0.5432  0.2910  0.5021
31830W        W46961   5.826   7.874  10.474  0.0098 -0.0649 -0.0797
31831W        W46962  18.507   2.368   4.862 -0.0382  0.0538 -0.0686
31832W        W46963   7.998   9.318  10.526  0.0026 -0.3057 -0.0412
31833W        W46964  17.793   7.767   2.755 -0.0391 -0.1838  0.0729
31834W        W46965   5.719   1.017  14.082 -0.2302 -0.3529  0.0782
31835W        W46966  12.461  12.731  10.759  0.0086  0.2292 -0.1269
31836W        W46967   0.216  17.533   2.438 -0.5803 -0.0805  0.3424
31837W        W46968   5.079   0.890   3.078  0.0730  0.0441 -0.0420
31838W        W46969   5.678   1.400   3.115  0.3698  0.1984  0.3326
31839W        W46970  10.311   3.472   5.212 -0.1289 -0.0519  0.2689
31840W        W46971   0.768   6.370  11.535 -0.0948  0.3256  0.0459
31841W        W46972  14.866   3.746   9.462  0.1343 -0.0106 -0.3522
31842W        W46973   1.022   0.397   6.438  0.2043 -0.0845 -0.0273
31843W        W46974  17.003   6.975   4.556  0.1118 -0.0029 -0.2687
31844W        W46975   0.514  11.931   3.702 -0.0273  0.2005  0.1505
31845W        W46976   9.440  11.719  13.811  0.0325 -0.2373 -0.2617
31846W        W46977   8.459  12.252  13.283 -0.1016  0.1992  0.2643
31847W        W46978   6.108   5.853  11.952 -0.2225 -0.0557 -0.1258
31848W        W46979  14.965  10.659  11.749  0.1717  0.1234 -0.2754
31849W        W46980  18.283  11.469   4.554 -0.1371  0.1951  0.0632
31850W        W46981  10.655  11.510  14.423 -0.1251 -0.0820  0.1622
31851W        W46982   4.463   6.109  15.381  0.3902  0.0099  0.2908
31852W        W46983   9.964   9.370   3.319  0.0185 -0.5080 -0.1741
31853W        W46984   7.334  11.474   4.404  0.0277 -0.0533 -0.1789
31854W        W46985   3.588  11.235   1.247 -0.1816  0.2812 -0.0342
31855W        W46986   5.320  15.731   0.986  0.5065 -0.0052  0.1454
31856W        W46987   4.242  16.528   6.594 -0.2273  0.0353 -0.0553
31857W        W46988   4.115  16.072   4.336 -0.0499  0.0484 -0.2301
31858W        W46989   5.332   1.339   0.625 -0.0625 -0.0896 -0.1382
31859W        W46990   3.876  13.373  10.788  0.4051  0.0354 -0.1960
31860W        W46991  17.424   8.106  15.577 -0.2479  0.1447  0.3204
31861W        W46992  12.313   4.467   0.618  0.3344 -0.1183  0.0243
31862W        W46993   1.409  17.186   3.285  0.1661  0.0775  0.0532
31863W        W46994  16.719  15.538   2.064 -0.1274 -0.0322 -0.0782
31864W        W46995  15.600  10.966   3.145 -0.2230  0.2522 -0.0169
31865W        W46996  13.680   7.829  12.578 -0.3213 -0.1149 -0.2820
31866W        W46997   4.991  16.410  11.105 -0.0159  0.1371 -0.1016
31867W        W46998   5.455  10.591  14.949 -0.0721 -0.1069 -0.0457
31868W        W46999   6.684   2.054   2.326 -0.3991 -0.1055 -0.0179
31869W        W47000  18.619  15.258   4.098  0.1338  0.0848 -0.1726
31870W        W47001  10.611   1.051   3.662  0.0789 -0.0961  0.0105
31871W        W47002  17.963  15.714  11.335  0.1999  0.0476 -0.1671
31872W        W47003   6.490   6.637  15.370 -0.1246 -0.3463  0.0342
31873W        W47004  13.351  10.387  13.941  0.1212  0.0942  0.0605
31874W        W47005   3.648  18.632   3.145  0.0386  0.0159 -0.0489
31875W        W47006   9.882   8.039  11.834 -0.0965  0.1328 -0.1515
31876W        W47007   8.821  13.348   0.154  0.2199  0.1307 -0.0203
31877W        W47008   5.284  11.207  10.657 -0.0944  0.1308 -0.1524
31878W        W47009  10.662  10.086  15.798 -0.0946 -0.2118  0.0177
31879W        W47010   0.376   2.662   1.459 -0.0817 -0.0752  0.0475
31880W        W47011  11.886  13.261   5.550  0.0274 -0.2267  0.2649
31881W        W47012  15.933  12.227  13.058  0.4418  0.2708  0.0926
31882W        W47013   0.755  14.930   3.211  0.1782 -0.3285  0.1109
31883W        W47014   3.943   8.050  15.514  0.0584 -0.2004 -0.0912
31884W        W47015   3.278  12.682   1.312  0.0259  0.1867  0.0897
31885W        W47016  12.783  10.216  15.518  0.1081 -0.3776  0.0095
31886W        W47017   9.326   9.832  11.507 -0.1331  0.0779 -0.3176
31887W        W47018   5.963   8.969   4.875 -0.0226 -0.2940 -0.0874
31888W        W47019   4.409   2.010   2.971  0.2121 -0.0585 -0.2949
31889W        W47020  14.417   0.792  10.226 -0.0289  0.0256 -0.2459
31890W        W47021  16.177  14.316  12.248 -0.0155 -0.1961  0.0438
31891W        W47022   5.528  16.051   4.404 -0.1279 -0.2682 -0.1479
31892W        W47023  13.422   5.313   4.027 -0.1309  0.0107 -0.0240
31893W        W47024  16.410  12.182   3.200  0.1564  0.0868  0.1656
31894W        W47025   3.731   7.221   3.872  0.1070 -0.0593 -0.2003
31895W        W47026   7.362  13.830   9.567  0.0381 -0.3965  0.0819
31896W        W47027  15.175  16.866  12.894 -0.2997 -0.0074 -0.0960
31897W        W47028   5.708  15.683   3.011  0.3663 -0.3770  0.0630
31898W        W47029  14.106   9.883  12.137 -0.3164 -0.1795  0.3917
31899W        W47030  17.529  11.462   1.612  0.4190  0.1722 -0.2016
31900W        W47031   1.832   4.247   1.536 -0.2617  0.4327 -0.0741
31901W        W47032  10.081   6.190   2.421 -0.0495 -0.0362 -0.0400
31902W        W47033  18.347  14.324  11.796 -0.1195  0.1180 -0.3969
31903W        W47034  10.154   4.403   5.489  0.0262  0.1550  0.2389
31904W        W47035   5.997   8.476   2.722 -0.0699  0.0270  0.1231
31905W        W47036  13.659  11.868   3.583 -0.2343 -0.3376  0.5111
31906W        W47037   6.385   4.019  14.421 -0.0595  0.0554  0.2154
31907W        W47038   5.242  12.548   3.689  0.0221  0.2066  0.2598
31908W        W47039  12.886  16.386  12.419  0.1006  0.2427  0.1602
31909W        W47040  11.431   8.357   1.357  0.3970  0.2145 -0.0687
31910W        W47041   1.430   9.638  12.968  0.1187  0.0876  0.2838
31911W        W47042   9.772   6.219  10.493 -0.0561  0.0804  0.3270
31912W        W47043   8.452  13.620   1.085 -0.1513  0.4689 -0.1989
31913W        W47044  10.658   1.443  10.917  0.2269 -0.2781 -0.0863
31914W        W47045  11.899   1.337  14.732  0.3198  0.2645 -0.2362
31915W        W47046  17.848   7.264   1.852  0.2720  0.2220  0.1106
31916W        W47047   1.201  13.695   6.356 -0.1561  0.1004 -0.0898
31917W        W47048   0.555  13.108  14.503  0.1806  0.2719 -0.0911
31918W        W47049  11.968  16.289  14.599  0.0821  0.0124 -0.1371
31919W        W47050   8.510  18.457   0.387 -0.1661 -0.1639  0.1549
31920W        W47051   2.644   8.610   3.941  0.1013 -0.2483 -0.1609
31921W        W47052   7.005  17.004   0.611 -0.1193  0.1610  0.1852
31922W        W47053  13.685  12.719   0.573 -0.2219  0.0987 -0.1340
31923W        W47054  16.566   0.802  15.505 -0.1465 -0.0210 -0.2710
31924W        W47055   4.098   6.345  13.684  0.0056 -0.0288 -0.1792
31925W        W47056  18.654  14.769   0.311  0.1311  0.1685 -0.5378
31926W        W47057   5.492   2.814  14.303 -0.1488  0.5408 -0.0233
31927W        W47058   7.154   7.351  15.126 -0.0281  0.1295 -0.0255
31928W        W47059   5.232  13.240  14.657 -0.1979  0.1320 -0.1990
31929W        W47060  17.163  14.990  13.336 -0.0245 -0.1113  0.1154
31930W        W47061   9.020  13.427  11.086  0.2469 -0.0051 -0.0872
31931W        W47062   4.499   1.493  12.876 -0.0288 -0.0998 -0.0597
31932W        W47063   5.088   6.673   4.925  0.2473 -0.1971  0.0570
31933W        W47064   1.534  10.974  12.549 -0.1053  0.0498 -0.1553
31934W        W47065   6.223   9.348  13.998  0.0179  0.1254  0.0381
31935W        W47066  12.399  13.290   0.889  0.0234 -0.4372  0.0132
31936W        W47067  10.109   0.171  14.106  0.2750 -0.1095  0.0732
31937W        W47068   2.840   2.334  14.177 -0.1215 -0.0981  0.0203
31938W        W47069  17.975   3.906   3.737 -0.2055 -0.0694 -0.4437
31939W        W47070  14.848  13.074  11.080 -0.3016  0.2855  0.2744
31940W        W47071   1.687  10.884   4.362 -0.2227  0.3512 -0.1064
31941W        W47072   0.875  14.767  13.136  0.1692 -0.4551  0.1100
31942W        W47073   8.349  12.235  12.363  0.3389 -0.1624  0.0093
31943W        W47074  12.383   7.496  12.007 -0.2552 -0.1090  0.0279
31944W        W47075   8.717  15.619  12.308  0.3211  0.0656  0.0565
31945W        W47076   6.700   7.252   4.677 -0.0440  0.3188 -0.0305
31946W        W47077  16.991  16.450   5.727 -0.1217 -0.1535 -0.2707
31947W        W47078   7.735   1.428  12.818  0.0182 -0.1486  0.2257
31948W        W47079   7.760   7.601  10.599 -0.1392 -0.1391  0.0690
31949W        W47080  17.593  12.239   3.517 -0.1660 -0.0845 -0.0235
31950W        W47081  18.531   8.956  10.015  0.1579  0.2134  0.4509
31951W        W47082   2.087  16.861  13.864 -0.2501 -0.0348  0.0100
31952W        W47083   0.257   9.051  13.901 -0.0179  0.0599 -0.1029
31953W        W47084   0.035   5.301   0.268  0.1378  0.0173  0.0840
31954W        W47085  16.359  14.131   2.174  0.2403  0.2097 -0.3397
31955W        W47086  14.563  14.030   3.574  0.0112 -0.0975 -0.0148
31956W        W47087   9.507  13.321   4.711 -0.0086  0.0052 -0.2474
31957W        W47088   4.355  13.288  10.739  0.1539  0.0521 -0.0379
31958W        W47089  12.942  15.355   1.788 -0.1095  0.1880  0.1138
31959W        W47090   8.541   8.118   0.087  0.2900  0.0297 -0.0668
31960W        W47091   4.642   0.760  13.690  0.0725 -0.0127  0.4802
31961W        W47092  14.888  18.187  13.983  0.1970  0.1004  0.3222
31962W        W47093   7.035  15.742  13.491  0.1238  0.0751  0.3226
31963W        W47094  10.722  12.466  14.097  0.2235 -0.1967  0.0470
31964W        W47095  14.704   7.195   1.827 -0.1855 -0.0943 -0.3006
31965W        W47096  10.340   4.238   0.974  0.0884  0.1044  0.2549
31966W        W47097  18.052   5.292   5.553  0.0034  0.0477 -0.3099
31967W        W47098   3.345   9.534   1.883 -0.2299 -0.0944  0.1489
31968W        W47099   3.979  11.588   1.293 -0.1309 -0.0761 -0.3301
31969W        W47100   2.297  10.509   0.958  0.3411  0.1800  0.2271
31970W        W47101   8.352   3.135  14.101 -0.1442 -0.0545  0.1111
31971W        W47102   5.567  15.494  14.903 -0.2568 -0.3336  0.0282
31972W        W47103   0.547  17.606  14.220  0.1265 -0.1919  0.2452
31973W        W47104   3.382  15.660   2.349 -0.0266 -0.0955  0.0263
31974W        W47105   2.383   8.000  11.275 -0.2232 -0.2191 -0.3577
31975W        W47106  18.603  13.363   0.380 -0.0784 -0.1036  0.1158
31976W        W47107  10.791  17.666  11.617  0.0472  0.1797 -0.0449
31977W        W47108  10.530  14.437  15.716  0.2192 -0.1960 -0.1061
31978W        W47109  11.858  11.530  15.164 -0.1489  0.0821 -0.0448
31979W        W47110  17.700   3.482  12.312 -0.0405  0.1316  0.0861
31980W        W47111   0.818  16.336  15.774  0.1794  0.1929  0.0841
31981W        W47112  13.780  12.314   0.120 -0.1311 -0.0476 -0.0330
31982W        W47113   8.911   5.299  13.734  0.2131  0.0630 -0.1191
31983W        W47114  15.987  18.623   1.659  0.2164  0.1668 -0.0370
31984W        W47115  17.902  11.837  11.426 -0.3714  0.0892 -0.2752
31985W        W47116  14.443  14.850   1.363  0.0052 -0.1801  0.2155
31986W        W47117   9.572  18.693  11.097 -0.2062  0.1165  0.0044
31987W        W47118  13.420   7.178   4.863  0.4476  0.1923 -0.1192
31988W        W47119  13.958  12.488  13.678  0.0924 -0.0932  0.1970
31989W        W47120   2.071  16.193  15.787  0.0868 -0.3681 -0.0524
31990W        W47121  15.855   4.125  13.594 -0.3652 -0.1256 -0.0552
31991W        W47122   1.388  15.155   2.027 -0.2000 -0.3066 -0.1552
31992W        W47123   5.347  13.828   2.560 -0.4674  0.0797  0.4699
31993W        W47124   5.634  18.691  15.366  0.1012 -0.1401 -0.1245
31994W        W47125  11.764   0.049  15.676 -0.1118  0.2009 -0.2574
31995W        W47126  11.056  13.111   2.781  0.1372  0.1586  0.0679
31996W        W47127   2.779  13.915  14.193 -0.1269 -0.1132  0.2119
31997W        W47128  10.277   8.503   0.913  0.0873 -0.0557  0.0661
31998W        W47129   7.934   3.423   1.470 -0.0026  0.0730 -0.1126
31999W        W47130   8.184  14.877   0.543  0.3746 -0.2662 -0.2375
32000W        W47131  10.161  15.789  15.485  0.1908  0.0742  0.1536
32001W        W47132  15.045   7.421  14.083 -0.0593 -0.1730  0.1684
32002W        W47133   0.575   8.737  14.099 -0.3029  0.2712  0.1124
32003W        W47134   8.046  11.826  13.410 -0.2974 -0.0999 -0.0736
32004W        W47135  14.166   6.339   3.716  0.0739 -0.0736  0.2495
32005W        W47136  12.627   9.356  13.382  0.0434 -0.0883  0.2695
32006W        W47137   7.429   3.177  14.287  0.0484 -0.1814 -0.0328
32007W        W47138   6.022   7.634   2.521  0.3403  0.2587 -0.1415
32008W        W47139   2.295   4.041   4.431 -0.2037  0.2676  0.0971
32009W        W47140  14.788   1.768  12.903  0.1017  0.2209  0.1947
32010W        W47141  13.196  15.720  10.446 -0.3165 -0.2253 -0.1539
32011W        W47142   1.452   2.764  11.623  0.0215 -0.1500 -0.1757
32012W        W47143  11.020  17.687   4.711  0.2059  0.2545  0.1683
32013W        W47144   1.010  17.109  15.288  0.1015 -0.0383 -0.1439
32014W        W47145   1.614  16.580  15.186  0.1396  0.1276  0.0227
32015W        W47146  13.857  18.472   3.327 -0.1528  0.0687  0.1463
32016W        W47147   6.506   1.696  14.218 -0.0963  0.0088 -0.0520
32017W        W47148   1.035  11.090  15.313  0.0592  0.1056  0.1964
32018W        W47149  11.118  18.703   3.741  0.0644 -0.3750 -0.0512
32019W        W47150  12.627   7.899   4.893 -0.3002  0.3863  0.0864
32020W        W47151   3.585  14.464   4.893 -0.1990 -0.0634  0.3094
32021W        W47152  10.347  11.920  12.304  0.1211 -0.4319 -0.2211
32022W        W47153   0.946   5.457   2.203  0.0468  0.2387 -0.1222
32023W        W47154   1.497   8.529   0.791  0.2963  0.0568  0.1336
32024W        W47155   3.644   7.747   1.327 -0.0887  0.1423  0.3569
32025W        W47156  15.001  10.069   2.922 -0.0847 -0.1789 -0.2224
32026W        W47157   7.877   7.093   4.741 -0.3748 -0.0230  0.4400
32027W        W47158   6.061   8.189   3.118 -0.0096 -0.2423 -0.2270
32028W        W47159   4.299  11.443   2.492  0.0316  0.0016 -0.3153
32029W        W47160  15.295   4.068  14.956 -0.2474 -0.0819 -0.1223
32030W        W47161   7.908   3.418  14.148  0.1745  0.1997 -0.0553
32031W        W47162  14.780   2.608  12.192 -0.0121 -0.2492 -0.3547
32032W        W47163  18.398   3.265   0.918  0.0022  0.0631  0.3149
32033W        W47164  17.549   2.198  13.413 -0.1106  0.2646 -0.0025
32034W        W47165   2.558   9.077   0.376  0.1856 -0.0978 -0.1578
32035W        W47166  15.419   3.303  15.609  0.5084 -0.0335  0.0935
32036W        W47167  15.340  14.743   4.723 -0.0034  0.0369 -0.2046
32037W        W47168   8.536  10.613  14.613  0.2201  0.2451  0.1928
32038W        W47169   8.360   2.912   2.551 -0.1224  0.0888 -0.1969
32039W        W47170   5.148   6.327  14.058  0.0115 -0.1254 -0.4096
32040W        W47171   3.487   3.325  12.835  0.2430  0.3331 -0.4585
32041W        W47172  11.545  17.601  14.318  0.0379 -0.0257  0.1133
32042W        W47173  13.227  10.496  12.015  0.2603 -0.0683  0.2264
32043W        W47174  17.493  17.208   4.107  0.0624  0.0068 -0.0376
32044W        W47175   0.093   5.328   5.089  0.2094  0.1295 -0.0256
32045W        W47176   3.857  10.700  13.537 -0.1139  0.4691 -0.2935
32046W        W47177   2.787  16.850  11.036 -0.1015 -0.1332 -0.2499
32047W        W47178  17.094   0.571  14.704 -0.2045 -0.2090  0.0598
32048W        W47179  14.043  15.682  11.460 -0.1286  0.1046 -0.1617
32049W        W47180  14.062   8.616  11.293 -0.3186  0.7013 -0.2298
32050W        W47181  15.685   8.766  10.716 -0.0126 -0.1405  0.1401
32051W        W47182  13.764  11.522  13.232 -0.1059 -0.2364  0.5102
32052W        W47183  11.940   4.633   3.407  0.5025  0.0055 -0.0487
32053W        W47184   5.723   2.011  12.600  0.0306  0.1258  0.3894
32054W        W47185   1.189  11.617   0.331  0.2237 -0.3053 -0.0191
32055W        W47186   3.156   7.611   1.943  0.0133  0.1453 -0.0146
32056W        W47187  15.159  14.583   2.943 -0.0853 -0.0564 -0.2348
32057W        W47188   6.486  11.605   3.947 -0.0898 -0.1378  0.2567
32058W        W47189  13.768  16.585   2.930  0.0005  0.0222 -0.0413
32059W        W47190  11.261  15.166  14.319  0.1549  0.3412  0.2226
32060W        W47191   7.314  10.916   1.927  0.2230 -0.1473  0.1467
32061W        W47192  14.660  16.047   3.088 -0.0954 -0.1006 -0.0262
32062W        W47193  14.976   5.771   5.479  0.0738  0.0083 -0.2329
32063W        W47194  11.774  16.834   2.072  0.2337 -0.2249 -0.1161
32064W        W47195  16.691   3.896  15.670 -0.0863  0.3326  0.1327
32065W        W47196   5.240   7.884  13.596 -0.0397 -0.0528  0.5350
32066W        W47197   9.795  10.582  12.438 -0.2747  0.2269  0.1297
32067W        W47198  13.196   7.102  15.668 -0.2970  0.0890 -0.1380
32068W        W47199   8.263  10.946   0.364  0.2949 -0.1090 -0.1432
32069W        W47200  17.285  14.625   1.473 -0.3702  0.1851  0.2517
32070W        W47201  14.112  15.426   2.270 -0.1330  0.0655  0.0898
32071W        W47202  18.020  10.720  15.276 -0.3083  0.0523 -0.2073
32072W        W47203   1.461   3.660  15.622  0.1438  0.2167  0.1076
32073W        W47204   8.436   9.439   3.348  0.1416  0.2506 -0.1582
32074W        W47205   4.079  10.734   0.752 -0.1792  0.0063 -0.1005
32075W        W47206   0.957  17.325  14.211 -0.2267  0.0113  0.3738
32076W        W47207  10.392  11.162   3.872 -0.3674  0.2430  0.2195
32077W        W47208  18.329  11.548  14.340  0.1665 -0.0893  0.1312
32078W        W47209   7.726   0.407   4.028 -0.4341  0.3181 -0.0212
32079W        W47210   3.069  10.308   3.378  0.1727 -0.1519 -0.1563
32080W        W47211   8.948   1.008   1.687 -0.0198  0.0351  0.0546
32081W        W47212   5.064   8.390  13.477  0.0513 -0.2382 -0.2250
32082W        W47213  13.707   4.353   2.478 -0.1472 -0.0733 -0.0766
32083W        W47214  10.019   3.862  12.306 -0.3390 -0.1448  0.1913
32084W        W47215   8.668   6.633   4.228 -0.0614  0.1310 -0.2336
32085W        W47216  11.208   0.256  11.418 -0.0382 -0.1664  0.2737
32086W        W47217  16.521   9.644   2.018  0.0402  0.3249  0.2710
32087W        W47218   4.279  11.561  13.405  0.3955 -0.0001 -0.3091
32088W        W47219  12.549   1.279   3.739  0.3409  0.0344  0.2932
32089W        W47220   6.342   5.442   0.729  0.3528 -0.1346 -0.1320
32090W        W47221   0.773   7.822   2.325 -0.3143  0.0264  0.1431
32091W        W47222   3.991  13.816  11.614 -0.0029  0.1752 -0.2163
32092W        W47223   1.881  17.537  11.366  0.1085  0.2990  0.0121
32093W        W47224   9.856   9.798   1.911 -0.0937 -0.2091  0.1018
32094W        W47225   8.254  13.701   4.818 -0.0554 -0.2413 -0.0384
32095W        W47226   1.382   5.034  12.971  0.0072  0.0212 -0.1623
32096W        W47227   8.500   0.092   5.185 -0.0153  0.4165 -0.4420
32097W        W47228   6.314  16.614  10.624 -0.0185  0.0614 -0.0647
32098W        W47229   6.398   2.460  13.845 -0.4962  0.0421 -0.1415
32099W        W47230   6.230  15.523   6.087 -0.0434  0.1188 -0.0125
32100W        W47231  10.935  15.401  13.520 -0.0010  0.1544  0.0041
32101W        W47232  17.178  11.052   4.086  0.3262 -0.0518  0.0087
32102W        W47233   8.336   8.581   2.940 -0.0643 -0.0754  0.0111
32103W        W47234  10.153  16.802  13.881  0.0036 -0.0981  0.0292
32104W        W47235   2.148  14.379   4.436 -0.0640 -0.0759 -0.2328
32105W        W47236   4.936   5.601  14.863 -0.1148 -0.1313  0.2012
32106W        W47237  18.579  11.889  15.616 -0.0008  0.3459  0.0070
32107W        W47238   9.654  15.777  14.651 -0.1180  0.1381  0.0436
32108W        W47239  10.688  10.180  13.053 -0.6144  0.2263  0.2075
32109W        W47240  11.370   1.492   9.835  0.2263 -0.2551 -0.3624
32110W        W47241   7.578  12.893   4.820  0.0721  0.0691  0.1788
32111W        W47242   7.803  10.469   1.583  0.1306  0.1057  0.0960
32112W        W47243  13.466   9.757  13.788 -0.1385  0.3158 -0.0289
32113W        W47244  18.013   6.148   3.293  0.1221 -0.0236 -0.0564
32114W        W47245   2.507  15.269   0.924  0.0156  0.2522  0.0966
32115W        W47246   7.280   2.008  13.661 -0.0712  0.2136 -0.1398
32116W        W47247  15.164   3.202   1.333 -0.2462 -0.1098  0.1535
32117W        W47248   1.055   4.813   4.182 -0.2632 -0.0136 -0.2823
32118W        W47249   2.219   6.731  10.071 -0.2964 -0.3317 -0.0460
32119W        W47250  17.546  11.404  11.637 -0.0968 -0.3968 -0.3101
32120W        W47251  17.383  12.955   1.338  0.1727  0.1153 -0.3634
32121W        W47252   4.006   8.880   1.781 -0.2859  0.1743  0.1248
32122W        W47253  13.874   3.568  11.838  0.5785 -0.1350 -0.0846
32123W        W47254  18.688  14.768  15.028  0.0306  0.3357  0.2007
32124W        W47255   1.600  11.135   4.908  0.3297  0.1346 -0.0033
32125W        W47256   8.871   4.696   5.928 -0.3091  0.2510 -0.0180
32126W        W47257   7.090   2.690  11.532  0.0070 -0.2000 -0.0961
32127W        W47258   4.765   5.597   0.472 -0.2252 -0.3641 -0.3635
32128W        W47259   0.002  17.456   1.005 -0.0851 -0.0427 -0.1995
32129W        W47260  14.381   7.385   3.831 -0.0332 -0.2582  0.2167
32130W        W47261   6.576  14.305  14.164  0.1157 -0.1353 -0.1544
32131W        W47262  14.586   9.637   1.201 -0.3510 -0.0568  0.3292
32132W        W47263  17.988  10.274  12.980 -0.2865 -0.2655  0.0944
32133W        W47264   0.901   5.412  14.718 -0.0575  0.3044 -0.0927
32134W        W47265  17.436   0.970  11.196  0.1150 -0.4448 -0.3107
32135W        W47266   6.570  13.868  13.387  0.0173 -0.1668 -0.1371
32136W        W47267  12.165   3.423  11.067  0.0601 -0.2316 -0.3377
32137W        W47268   4.924  15.749  14.030  0.1775 -0.1855 -0.1227
32138W        W47269   8.730   3.765   2.237 -0.2271  0.0044 -0.1006
32139W        W47270   1.570   8.897  13.924  0.0096  0.2023 -0.0075
32140W        W47271  16.920   6.345   5.572  0.3390  0.1631 -0.0488
32141W        W47272  13.104  13.777  14.889  0.1402  0.1479 -0.3030
32142W        W47273   2.162   7.859  12.340 -0.2141  0.0624 -0.0613
32143W        W47274   6.792  17.590   3.185 -0.2733  0.3133  0.3247
32144W        W47275   6.614  18.043   1.481  0.0806 -0.1104 -0.3015
32145W        W47276  16.453   1.388   0.538 -0.0699  0.1684  0.1562
32146W        W47277  15.591  10.314  13.775  0.0119  0.1695  0.0997
32147W        W47278   1.755  15.248   0.086 -0.2514  0.1638  0.3300
32148W        W47279   4.753  11.488  15.162 -0.0768  0.1881  0.1005
32149W        W47280  10.031   2.252   3.450 -0.0815 -0.1124  0.1885
32150W        W47281  14.129  15.902  13.392  0.2634  0.0824 -0.1823
32151W        W47282   4.349  17.108  14.711 -0.2125  0.0607 -0.0549
32152W        W47283   5.705   8.570   3.203 -0.2944 -0.1841 -0.1422
32153W        W47284  13.494   0.101  12.246  0.1433 -0.3231 -0.0198
32154W        W47285  14.692   2.847  13.247  0.4512 -0.1368 -0.1337
32155W        W47286  14.407   9.787  11.773 -0.0218 -0.0819  0.0132
32156W        W47287   4.978   5.724   3.417 -0.1490 -0.0494  0.2846
32157W        W47288  12.863   6.162   2.616 -0.0968  0.1080  0.0900
32158W        W47289   0.455  11.839  15.232 -0.1773 -0.1757 -0.0908
32159W        W47290   5.128   7.894  15.275  0.0094  0.0613 -0.2703
32160W        W47291  15.119  12.152   4.677 -0.2683  0.1952  0.2758
32161W        W47292  15.359  17.563  15.196  0.3005  0.2155 -0.0387
32162W        W47293   8.291   8.311  10.706  0.0330  0.2869 -0.0304
32163W        W47294  13.937   7.772  10.457 -0.1218  0.0961 -0.1502
32164W        W47295   7.758   3.795   5.524 -0.2336  0.0618  0.3093
32165W        W47296  16.908   5.744  15.006  0.0354  0.0121 -0.2879
32166W        W47297  16.232   0.666  13.090 -0.1043  0.1872 -0.0383
32167W        W47298  14.718   9.288   0.285  0.0935 -0.3127  0.0219
32168W        W47299  17.620   9.395   3.333 -0.0658 -0.0974  0.1655
32169W        W47300   2.202   7.202  14.425  0.0057  0.4250 -0.0702
32170W        W47301  15.732   7.917  12.372 -0.0815 -0.4538 -0.1055
32171W        W47302   8.675  13.056  13.571 -0.2163  0.2811 -0.2702
32172W        W47303   3.371  10.228  10.402 -0.1470  0.0855  0.3776
32173W        W47304   1.193   8.576   2.433  0.1253 -0.0127 -0.1338
32174W        W47305  13.560  12.949  10.885  0.1183  0.0249  0.2162
32175W        W47306  13.967   2.741  14.228 -0.0664  0.0827  0.2432
32176W        W47307   1.849  11.278  12.018 -0.0491  0.1149 -0.2666
32177W        W47308  16.540   2.553   0.876  0.3595 -0.2173  0.1912
32178W        W47309   6.028   2.699  12.575 -0.1793 -0.2775 -0.0034
32179W        W47310   8.417   4.193  13.334  0.1621  0.1126  0.0991
32180W        W47311   5.765   0.667   1.259  0.1206 -0.3790 -0.0119
32181W        W47312   0.382   1.355  14.060 -0.2262 -0.0092 -0.1328
32182W        W47313   7.884   7.963   1.707 -0.1713 -0.0353  0.2351
32183W        W47314   8.120  17.582   5.584 -0.0040  0.1648  0.0246
32184W        W47315  13.118  14.143  13.088  0.0167  0.1112 -0.0725
32185W        W47316   9.723   1.976  12.179  0.0722 -0.0185 -0.0415
32186W        W47317  17.181  16.347  13.945  0.0731 -0.2230 -0.3595
32187W        W47318  15.570   0.537   4.987  0.1935  0.2634  0.4101
32188W        W47319  10.058   8.584  11.899  0.1683  0.0723  0.1543
32189W        W47320  12.796  18.518   5.120  0.1569  0.0952  0.1212
32190W        W47321  12.215   9.178   4.119 -0.2785  0.0167  0.0185
32191W        W47322  11.996   5.010  12.626  0.1097 -0.1420  0.1479
32192W        W47323  13.462   6.279  10.584  0.2198 -0.4680 -0.1363
32193W        W47324  12.642   0.424   3.785 -0.3051  0.5630  0.1431
32194W        W47325  10.437   1.306  13.664 -0.1072 -0.3280  0.2282
32195W        W47326   0.565  17.311  10.987  0.2771 -0.0226 -0.0666
32196W        W47327   9.781  15.459   1.275 -0.1800 -0.2224  0.1421
32197W        W47328   5.782   7.697  15.090  0.0528 -0.1959 -0.2130
32198W        W47329   6.594  17.091   4.796  0.1165  0.2960 -0.1593
32199W        W47330  10.672   7.996  11.250  0.1180 -0.2434  0.0736
32200W        W47331  13.370   4.278   4.621  0.1611  0.2747 -0.2312
32201W        W47332   2.839   8.467  11.963 -0.0544 -0.0009  0.0071
32202W        W47333  17.277   5.654   1.837  0.3018 -0.2865 -0.0094
32203W        W47334   6.722   2.741   1.678 -0.0948  0.0923 -0.1501
32204W        W47335  16.117  13.105  11.789 -0.0329 -0.1156  0.2216
32205W        W47336  11.884   9.194   2.877 -0.2067  0.0487 -0.0095
32206W        W47337   6.543  11.044  15.003 -0.3131  0.1446 -0.3966
32207W        W47338  17.797   5.765  10.916 -0.1249 -0.1533  0.1932
32208W        W47339   6.961   1.766  15.034 -0.1588  0.1263  0.0208
32209W        W47340  10.511   2.344   3.581 -0.1345 -0.1164  0.0843
32210W        W47341   2.670   8.190   5.597 -0.1022  0.3330  0.0445
32211W        W47342   9.393  15.751  13.804 -0.2300  0.1049  0.3128
32212W        W47343   0.258   4.459   0.487 -0.2327 -0.1428  0.0619
32213W        W47344  13.725  18.582   4.326 -0.0142  0.2729  0.2975
32214W        W47345  17.750   3.436   0.568  0.1712 -0.1219  0.2816
32215W        W47346   9.414   9.876   5.392 -0.4023  0.1682 -0.2204
32216W        W47347  16.503  14.442  13.645  0.0985 -0.0891  0.2110
32217W        W47348   9.867   1.664  11.849 -0.0069  0.3374 -0.0924
32218W        W47349  13.691  18.345   9.385 -0.3556 -0.2254 -0.0497
32219W        W47350   4.934  12.748   5.021 -0.3383  0.0188  0.2492
32220W        W47351   1.221   2.718   5.555 -0.1921 -0.1979  0.0355
32221W        W47352  15.021   6.657  13.662  0.3194 -0.0507  0.0472
32222W        W47353  16.264   1.564  10.893 -0.1499  0.1003  0.0205
32223W        W47354   1.456  15.013  14.415 -0.0555  0.1241  0.0509
32224W        W47355  14.692   2.042  11.015  0.0917 -0.0363 -0.1959
32225W        W47356  14.638  13.697   2.731 -0.0729 -0.0174 -0.1473
32226W        W47357   7.878   8.151   5.185 -0.0889 -0.0313  0.2558
32227W        W47358  12.947  18.549  13.069  0.3507 -0.1587 -0.1087
32228W        W47359   9.494  12.271   0.798 -0.4780  0.3942  0.0125
32229W        W47360   4.365   1.895   2.393 -0.4375  0.3907 -0.1172
32230W        W47361   5.686   2.004  14.302  0.2125 -0.0930  0.3582
32231W        W47362  16.656  15.278  13.186 -0.3108 -0.4838  0.2533
32232W        W47363   9.219   0.243  14.006 -0.2305  0.1187  0.1526
32233W        W47364   2.781  15.814   0.448 -0.5116  0.0195  0.1604
32234W        W47365   7.319  14.117   4.276  0.2725 -0.0151  0.1258
32235W        W47366  14.820   0.574   3.973  0.2605  0.3100  0.2070
32236W        W47367  17.869  13.916  14.634 -0.0557  0.0809 -0.2680
32237W        W47368   5.168  17.263   0.170 -0.1821  0.2180  0.1125
32238W        W47369   4.001   3.765  13.758  0.3480  0.1678  0.1520
32239W        W47370   3.934   5.981   0.478  0.2045  0.0598  0.0351
32240W        W47371  12.044  11.215   3.324  0.2415  0.1026  0.1540
32241W        W47372  13.609   0.231   5.482  0.0989 -0.0644 -0.3598
32242W        W47373  18.550  12.796  13.948 -0.0556  0.0840  0.1681
32243W        W47374   2.742   3.972   2.661 -0.2165 -0.0404  0.2734
32244W        W47375  14.085  12.503  11.661 -0.3162 -0.0144 -0.4431
32245W        W47376  15.901  14.246  12.763  0.0112 -0.2438 -0.3250
32246W        W47377  10.715   3.869  14.103  0.2086 -0.1808  0.2206
32247W        W47378   9.060  11.256   3.045  0.1303  0.1438 -0.0740
32248W        W47379   8.572  17.533   2.086  0.2455  0.0775  0.0227
32249W        W47380  17.190  13.813   0.201  0.0360  0.1528 -0.3434
32250W        W47381   6.255  15.054  15.257  0.1170  0.0286  0.2495
32251W        W47382  15.616  17.867  12.491  0.1280  0.3070  0.1898
32252W        W47383   9.152   3.016   4.630 -0.1438 -0.2436  0.4583
32253W        W47384   9.280  16.004  11.371  0.0791  0.1609  0.2202
32254W        W47385  12.268  11.902  14.599  0.1260 -0.4896  0.1520
32255W        W47386  14.677   5.679  11.770 -0.3902  0.2031  0.1373
32256W        W47387   8.809  17.062  10.599 -0.0814  0.2274  0.0312
32257W        W47388  15.247   2.751  12.409  0.0971 -0.0549  0.2679
32258W        W47389   5.386   9.252  14.400 -0.0402  0.3331  0.0098
32259W        W47390   6.487   3.377   1.891 -0.3918 -0.2217 -0.0049
32260W        W47391   7.913  18.697  10.191  0.0861  0.2090 -0.0243
32261W        W47392  13.603   1.938  12.210  0.1000 -0.6238 -0.1828
32262W        W47393   8.529  14.427  12.706  0.3977 -0.0799  0.0618
32263W        W47394  15.897   1.343  15.766  0.0800  0.3450  0.3250
32264W        W47395   4.905   4.216   4.292 -0.1151  0.1378  0.0966
32265W        W47396   1.278   1.272   1.390 -0.1046 -0.1537  0.0534
32266W        W47397   0.391   9.707   4.483 -0.0263  0.0710 -0.2476
32267W        W47398   1.971  16.364   4.374  0.1981 -0.4094 -0.1016
32268W        W47399   6.111  12.364   3.469  0.2107 -0.2430  0.0353
32269W        W47400  18.591  15.416  14.524  0.0900  0.1600  0.3617
32270W        W47401   1.397   2.195  13.276  0.2126 -0.1250  0.1360
32271W        W47402   1.049  16.657  11.435  0.1595  0.2629 -0.2930
32272W        W47403  11.789  17.371   1.206  0.1510 -0.2041 -0.0928
32273W        W47404  15.351  10.747   1.641  0.1058  0.1335  0.0153
32274W        W47405  10.537   2.291   4.910  0.0690  0.0811  0.1492
32275W        W47406   3.284  16.909  15.004 -0.1735  0.1989  0.0763
32276W        W47407   2.115  11.834  14.408  0.0646  0.0183 -0.3133
32277W        W47408   3.109  17.756   3.521  0.1117  0.2805 -0.1056
32278W        W47409  10.578  18.310  10.208 -0.0678 -0.2024  0.0132
32279W        W47410   8.962   9.572   3.164 -0.1750 -0.0195 -0.0164
32280W        W47411   5.751  15.788   1.740  0.2308 -0.0414 -0.1383
32281W        W47412   6.198   6.760  13.551 -0.0641 -0.2636 -0.0488
32282W        W47413   0.692   2.266  12.653  0.1223  0.3667 -0.1153
32283W        W47414  11.255   3.296   3.269  0.0806  0.0821  0.0902
32284W        W47415  10.132   5.218   4.026 -0.2910 -0.0557 -0.2032
32285W        W47416   9.001   5.245   2.615 -0.1178 -0.2743  0.0628
32286W        W47417   0.340   2.577   4.740  0.1291  0.0719 -0.3688
32287W        W47418  17.693   1.381  10.959  0.0347 -0.2367  0.0629
32288W        W47419  18.700  12.202   4.931 -0.0721  0.0811 -0.1128
32289W        W47420  14.853   8.126   0.486 -0.2965 -0.0820  0.0275
32290W        W47421  12.814  14.401  11.602 -0.3981 -0.2971  0.0672
32291W        W47422  18.320  17.166  13.935 -0.1363  0.2251  0.3161
32292W        W47423   7.131  13.788  11.334  0.1567  0.3307 -0.1033
32293W        W47424   1.476   9.942  11.188  0.0682 -0.4323  0.0319
32294W        W47425  10.520   4.806   0.983 -0.4035  0.0608  0.0323
32295W        W47426   8.511   0.969  13.054  0.1077  0.3790 -0.2310
32296W        W47427   3.910   5.161  14.576  0.1870  0.1163  0.0439
32297W        W47428  16.346   9.722   5.423 -0.1280 -0.0995 -0.1911
32298W        W47429  11.550  10.818   4.004  0.1993 -0.2535  0.3988
32299W        W47430   4.740   2.392  15.265 -0.1978  0.2649  0.1732
32300W        W47431   9.453  10.897  12.534 -0.2823  0.0143 -0.1274
32301W        W47432  18.134  18.404  11.378 -0.0140  0.4745 -0.1791
32302W        W47433   5.695   1.578   0.127 -0.1291 -0.0527  0.3228
32303W        W47434   3.527  11.355   0.719 -0.0348 -0.3612  0.1705
32304W        W47435  18.568   0.456   3.993  0.1130  0.0487 -0.0454
32305W        W47436   6.016   7.447  15.585 -0.0033 -0.0613 -0.1980
32306W        W47437  18.563  18.049   1.257 -0.1825 -0.2376  0.1021
32307W        W47438  10.676  16.083   3.452  0.0772  0.0902  0.0782
32308W        W47439   1.662   4.161   3.003  0.5915 -0.0365 -0.0956
32309W        W47440  15.376  17.873   3.573 -0.1815 -0.1412 -0.1697
32310W        W47441   2.677  12.988   2.967 -0.1118  0.3437  0.1921
32311W        W47442   7.424   4.090  14.592 -0.3773  0.1244  0.4169
32312W        W47443   3.000  18.146  12.518 -0.1194 -0.0399  0.0121
32313W        W47444   6.257  14.706  11.617 -0.2035 -0.1268  0.1070
32314W        W47445   3.339  15.178  11.034 -0.0158 -0.3632  0.0196
32315W        W47446  13.666  10.236  11.996  0.3596  0.0866  0.1635
32316W        W47447  12.256   1.571   2.783  0.0563  0.0529 -0.1077
32317W        W47448  13.124  14.148  14.502 -0.1291 -0.0362 -0.1436
32318W        W47449  10.896   5.387  12.247  0.0956  0.1274 -0.0836
32319W        W47450  11.154   5.477   4.763  0.0254 -0.0849 -0.2673
32320W        W47451  14.878  12.483   2.122 -0.1424 -0.2660  0.1518
32321W        W47452   3.834   8.129   4.167  0.1275 -0.1532 -0.1465
32322W        W47453   4.658  10.584   3.816 -0.1756 -0.1809 -0.0181
32323W        W47454  14.055  14.837   0.276  0.1135  0.1169 -0.4478
32324W        W47455  17.642   9.252  14.579  0.2904  0.2394  0.0823
32325W        W47456   5.258   1.748   3.679 -0.2059  0.4218  0.2236
32326W        W47457  14.264  16.809   2.174  0.1658  0.1315  0.2687
32327W        W47458   2.172   8.244  14.250 -0.0696  0.0161  0.2880
32328W        W47459   2.983  12.873   1.744  0.0757 -0.1092  0.0635
32329W        W47460  18.641   4.933   3.203  0.0643  0.3384  0.1868
32330W        W47461   0.808   5.650   3.577 -0.4220 -0.1155  0.0190
32331W        W47462   5.126   2.596   4.535  0.1951 -0.4008 -0.1772
32332W        W47463   1.942   2.826  11.925 -0.0238 -0.0756  0.1839
32333W        W47464  15.325   8.718   9.847 -0.0793 -0.1059  0.0504
32334W        W47465   8.089   5.766   5.036 -0.0229 -0.0468 -0.0340
32335W        W47466  12.760  14.201  14.947 -0.1697 -0.1604  0.2827
32336W        W47467   4.537   3.864   5.589  0.1632 -0.1790 -0.0272
32337W        W47468   6.746  14.973  14.242  0.1408  0.1025  0.1312
32338W        W47469  12.069  16.839  14.631  0.1391  0.2721  0.1389
32339W        W47470  15.705  10.600   3.513  0.2908  0.0624 -0.0304
32340W        W47471   2.252  10.200  15.037  0.0903  0.1644 -0.1493
32341W        W47472  13.504  14.544  12.223  0.2753 -0.0881 -0.0157
32342W        W47473   7.007   2.389   3.451 -0.2726 -0.2602 -0.1961
32343W        W47474   1.025   2.818  11.926 -0.1858 -0.0319  0.0112
32344W        W47475   2.122   0.177   2.162  0.1969  0.1287 -0.1523
32345W        W47476   2.767  15.681   2.203 -0.2030 -0.2665  0.1956
32346W        W47477  13.440  17.718   4.633  0.1668  0.0770  0.0903
32347W        W47478   3.107  15.933  13.130  0.0038  0.1431  0.1752
32348W        W47479   1.239   8.757  14.878 -0.0014 -0.1344  0.2122
32349W        W47480   7.937  14.272   4.319 -0.1799 -0.1042  0.0057
32350W        W47481   5.414   6.771  11.039 -0.1139 -0.0946  0.2649
32351W        W47482  17.018   4.926  15.204 -0.1314  0.0792 -0.0771
32352W        W47483  14.773   6.415   4.576 -0.0246  0.0114 -0.2017
32353W        W47484   5.903  11.988  12.722 -0.0101  0.0636  0.3467
32354W        W47485  12.973  10.613   4.355 -0.0603 -0.0116  0.1798
32355W        W47486   1.758  11.325   4.110  0.1303  0.3007 -0.0361
32356W        W47487  13.335   1.814   4.120 -0.2141 -0.1856 -0.0617
32357W        W47488  13.624  11.610  12.392  0.1211 -0.0464  0.2473
32358W        W47489  10.754   1.891   3.556  0.1525  0.0015  0.2249
32359W        W47490  18.048  15.318   4.983 -0.0818  0.2849 -0.1511
32360W        W47491   2.034   0.564  11.938 -0.0436 -0.1860 -0.0160
32361W        W47492   9.640   9.422  10.051  0.1333 -0.1734 -0.1560
32362W        W47493  13.258  10.515  14.475 -0.3594  0.0983  0.0828
32363W        W47494   4.876   2.813   0.542  0.0076 -0.2746 -0.2439
32364W        W47495  14.672  15.314  11.280 -0.3505  0.2844 -0.0695
32365W        W47496  16.561   1.381   4.934 -0.1484  0.0001 -0.1609
32366W        W47497   9.485   4.392  12.538  0.1229 -0.2714  0.4039
32367W        W47498   0.947   8.468  11.353  0.0283  0.1367 -0.0201
32368W        W47499   4.013  18.254   4.022  0.1215 -0.1408  0.2276
32369W        W47500  17.174   3.232   3.847  0.1485 -0.2530 -0.1460
32370W        W47501  11.956  14.537  15.272 -0.0850  0.3126  0.0862
32371W        W47502   8.688  10.901   3.031 -0.2014  0.0907  0.0973
32372W        W47503  14.672  15.693   1.431 -0.4258  0.3008 -0.1450
32373W        W47504  16.517  10.570  13.983 -0.1329 -0.0281 -0.0871
32374W        W47505   1.914   6.844  15.252 -0.0091 -0.2136  0.1248
32375W        W47506  17.653   2.632   5.633 -0.4001 -0.1296  0.0826
32376W        W47507   7.730  17.334   1.842  0.4711  0.1076  0.1900
32377W        W47508   5.996   5.472  12.812  0.5534  0.0625 -0.2754
32378W        W47509   7.280   0.393   5.869  0.1281 -0.3274  0.0101
32379W        W47510   3.171  14.103  13.684 -0.1872 -0.0748  0.3370
32380W        W47511   8.993   7.373  14.908 -0.3116 -0.3250  0.0792
32381W        W47512  11.853   4.446  15.453  0.1443 -0.3406 -0.4475
32382W        W47513   9.856  13.807  11.640 -0.1861 -0.0239  0.2630
32383W        W47514   3.444  10.214  12.920  0.2604 -0.1749 -0.0301
32384W        W47515   2.687  17.943   3.750  0.2010  0.0548  0.2919
32385W        W47516  12.579   3.213  15.525  0.0164 -0.0686  0.0298
32386W        W47517  15.808  15.379   2.781  0.3193 -0.0241 -0.0670
32387W        W47518   0.315  14.105  15.740  0.1657 -0.0063 -0.1826
32388W        W47519  13.119  11.362   2.104 -0.0664 -0.1180 -0.3934
32389W        W47520  10.977  11.746   4.395 -0.1741  0.5354 -0.0404
32390W        W47521   3.527   0.236  13.556  0.2583  0.0057 -0.2222
32391W        W47522   4.818  15.966   3.793  0.2434 -0.2025  0.1577
32392W        W47523   1.905   2.423   4.899 -0.0977 -0.1009  0.1994
32393W        W47524   9.240   8.170   3.186  0.1599 -0.0832 -0.1324
32394W        W47525   9.516  10.765  15.499 -0.0106 -0.2859  0.2023
32395W        W47526  17.978  13.825   1.047  0.1168 -0.0050  0.1411
32396W        W47527  10.876   1.433  13.866  0.1709  0.1227 -0.0570
32397W        W47528   3.743   1.435  15.498  0.1230 -0.1430  0.1081
32398W        W47529  13.558  13.606   9.774  0.0825  0.1252 -0.1083
32399W        W47530  10.675  12.468   2.702 -0.0146 -0.2679  0.4401
32400W        W47531  16.795  11.737   0.673  0.2269 -0.1811  0.2581
32401W        W47532   9.849   8.668   3.589 -0.1319 -0.0990 -0.0236
32402W        W47533  12.862  17.766   3.643 -0.2213  0.0067  0.1514
32403W        W47534  13.521  12.767  13.805  0.1787  0.0490  0.2262
32404W        W47535  16.327   9.985   0.302 -0.0069  0.0716 -0.0928
32405W        W47536  13.238   4.868   4.163 -0.1957 -0.2677 -0.2584
32406W        W47537   2.299   8.864  13.329  0.0515 -0.1485  0.1759
32407W        W47538   5.400  12.888   5.046 -0.4047 -0.2592  0.2625
32408W        W47539   9.214  15.196   0.352 -0.0265  0.1703  0.0931
32409W        W47540   2.777  12.389  12.971 -0.1966 -0.0577 -0.0627
32410W        W47541   4.858   8.249   2.182 -0.2776 -0.2948  0.3612
32411W        W47542  12.822  15.368   2.615 -0.0712 -0.1667 -0.2336
32412W        W47543   6.768   2.752   5.707  0.2218  0.0401  0.0171
32413W        W47544   0.657  10.529  14.173  0.0106  0.1043  0.1800
32414W        W47545   4.411  13.624  14.655  0.0937  0.0282 -0.1179
32415W        W47546   8.663   8.056  10.986 -0.1634 -0.0368  0.1224
32416W        W47547   8.377   9.116   4.275 -0.1250  0.0043  0.0266
32417W        W47548  13.741  13.668  12.611 -0.1465  0.2439 -0.0405
32418W        W47549  15.271  17.343   1.536  0.2305 -0.1725 -0.2812
32419W        W47550   8.790   0.048  15.325 -0.0617 -0.1686  0.0691
32420W        W47551  10.335   7.737  10.125  0.3042 -0.1399  0.1029
32421W        W47552  12.786   9.181   4.766 -0.2621  0.1408 -0.2114
32422W        W47553   3.186  12.048   3.943  0.1356  0.1604 -0.0930
32423W        W47554   0.095   0.280  12.665  0.0909  0.0821 -0.0901
32424W        W47555  17.715  13.126  14.096 -0.0655 -0.0576 -0.2469
32425W        W47556  13.664   7.744   0.463  0.4355 -0.1118 -0.1026
32426W        W47557  17.615  13.145  12.701 -0.3936  0.2880 -0.1599
32427W        W47558   3.341  15.140  14.440 -0.1961  0.2489 -0.0998
32428W        W47559   8.725  12.352   1.378 -0.1016 -0.1782  0.0193
32429W        W47560   5.533  10.902   1.928  0.1915 -0.0710  0.0288
32430W        W47561  11.399  14.884   4.021  0.2701  0.3413 -0.3057
32431W        W47562  15.614   4.893  14.063  0.0025 -0.0602 -0.1533
32432W        W47563   8.461   9.782  11.405 -0.1541  0.0016  0.0064
32433W        W47564  11.431   0.538  14.608  0.0865 -0.1615 -0.0297
32434W        W47565  14.872   5.462   0.170 -0.0574  0.1435 -0.3131
32435W        W47566   8.189  16.145   1.878 -0.2276  0.1896 -0.1953
32436W        W47567   4.873  12.517  15.698  0.2778 -0.0492  0.0583
32437W        W47568  14.232   0.318   2.313 -0.0174  0.0798 -0.2639
32438W        W47569  13.985  10.463   0.171 -0.1079  0.2650  0.2101
32439W        W47570  18.022  15.750   5.257 -0.2093 -0.3160  0.0267
32440W        W47571  13.029  12.382   4.209 -0.3086 -0.3334  0.0693
32441W        W47572   4.373  11.944  10.879 -0.0430  0.0418 -0.0931
32442W        W47573   3.712  11.068   4.409 -0.0054  0.1055 -0.1141
32443W        W47574   0.204   9.659  10.683  0.1469  0.0384 -0.0135
32444W        W47575   3.968   4.152   1.643 -0.2198 -0.0726 -0.2735
32445W        W47576   4.838  17.508  15.519  0.1684 -0.2674 -0.1329
32446W        W47577  11.668   0.634   5.048  0.0382 -0.3558  0.1946
32447W        W47578  18.125   2.646  14.113  0.4837 -0.1082  0.1327
32448W        W47579  17.572   0.103  10.973 -0.0581 -0.3896 -0.0599
32449W        W47580  17.102   2.238  13.687  0.0974 -0.0341 -0.0758
32450W        W47581  12.836   0.194   4.201 -0.0233  0.2998 -0.4409
32451W        W47582   8.670  16.850  11.078 -0.1246  0.0035  0.0918
32452W        W47583   7.169  13.871  12.731 -0.1245  0.1713  0.2028
32453W        W47584   4.418   0.995   5.375 -0.0783  0.0277  0.1169
32454W        W47585   6.690   8.889   0.113  0.2074 -0.1030 -0.0714
32455W        W47586  14.147   5.406  13.778  0.3471 -0.1344 -0.4337
32456W        W47587   0.741   2.853   3.091  0.0122  0.2277  0.2604
32457W        W47588  13.650   6.859   4.275  0.1590  0.0241 -0.0836
32458W        W47589   4.592   0.353   1.949 -0.1482 -0.1385 -0.2953
32459W        W47590   1.087  12.921  12.590 -0.0246  0.0924  0.2194
32460W        W47591  18.329  12.790   1.190  0.1342  0.0129 -0.2684
32461W        W47592   8.609   7.391   1.522 -0.0020 -0.0084 -0.1288
32462W        W47593  15.403  14.300  14.059  0.2251 -0.0963  0.0374
32463W        W47594  17.423  17.430   2.943  0.2356 -0.1078 -0.1211
32464W        W47595  13.624   9.267  12.863 -0.2711  0.1686  0.0474
32465W        W47596  11.511  13.136   5.215  0.1321  0.0520 -0.0378
32466W        W47597  17.197   6.409   1.750 -0.0178  0.2294 -0.1173
32467W        W47598   8.701   0.401   5.496 -0.0229 -0.1848 -0.1243
32468W        W47599   9.885   1.228   5.593 -0.1165 -0.1261  0.0941
32469W        W47600   8.625   1.338   1.332  0.1385  0.0136  0.0741
32470W        W47601  17.373   2.656   3.527  0.0639  0.3698 -0.1657
32471W        W47602   5.937   6.255  12.840  0.0995  0.1833 -0.2258
32472W        W47603   0.864  13.979   4.156  0.1333 -0.1028 -0.0433
32473W        W47604   3.494   0.391  15.486  0.2111 -0.0526 -0.0560
32474W        W47605   2.360   9.761  13.170 -0.4162  0.1185  0.1314
32475W        W47606  15.629  10.945  11.697  0.2922 -0.1385 -0.2371
32476W        W47607   4.288   6.919   0.884  0.2522  0.0779  0.0830
32477W        W47608   6.582  11.490  12.310 -0.0422 -0.4652  0.0157
32478W        W47609   6.265  15.164   5.784 -0.0917  0.2539  0.0066
32479W        W47610  14.372   2.308   3.712 -0.1738 -0.1691  0.0981
32480W        W47611  18.505  18.094  11.230  0.2004  0.1221 -0.1178
32481W        W47612  12.903   5.701   2.381  0.1432  0.1499  0.0823
32482W        W47613   1.390   6.308  14.945  0.0231 -0.0027 -0.1791
32483W        W47614   8.867  12.735   0.147  0.0024  0.0123  0.2043
32484W        W47615  12.909  13.448  15.758 -0.3196  0.1001  0.1585
32485W        W47616   8.962  12.118   4.481  0.3862  0.4089 -0.1169
32486W        W47617  12.792   6.627   0.324 -0.4326  0.1473  0.1309
32487W        W47618  17.650  10.695   3.305 -0.0716 -0.0989  0.1478
32488W        W47619   3.890  17.896   1.454 -0.5732  0.1203 -0.1221
32489W        W47620   0.650  15.288  14.569 -0.2580  0.1055 -0.1729
32490W        W47621   2.375  14.753  13.139 -0.3460  0.3698  0.1644
32491W        W47622  18.688   6.105   9.771  0.1883 -0.3458  0.0893
32492W        W47623   5.514   0.572   3.045  0.1128  0.1377  0.0395
32493W        W47624   9.304   1.181  12.181 -0.3849 -0.0656 -0.0134
32494W        W47625  15.881   0.780  13.398  0.3416 -0.2252 -0.1657
32495W        W47626   5.056   2.234  11.669 -0.1089 -0.3942  0.0297
32496W        W47627   5.450   6.501  15.233  0.2576  0.2087 -0.2009
32497W        W47628   5.954   6.403   4.559  0.3128 -0.2821  0.1098
32498W        W47629  17.426  15.070  11.769 -0.0564 -0.1443 -0.1042
32499W        W47630  11.330   4.296  10.643 -0.3176  0.1312 -0.2214
32500W        W47631   5.916   1.032  12.561 -0.3871 -0.0650 -0.1238
32501W        W47632   3.694  13.384   2.949 -0.1176  0.0582 -0.0051
32502W        W47633  10.832   2.583  11.885  0.0822  0.0354  0.0031
32503W        W47634   6.709  17.851   0.029  0.1886  0.2661  0.0050
32504W        W47635  14.629  12.940  12.777  0.0365 -0.1473 -0.2130
32505W        W47636   9.187  14.356  10.378  0.2513 -0.1438 -0.0171
32506W        W47637  17.171  10.971   3.599  0.1413  0.0474 -0.0930
32507W        W47638  12.108   5.537  11.006 -0.0905 -0.1246  0.1504
32508W        W47639   6.464   4.240  13.228  0.0256  0.1205  0.3419
32509W        W47640   1.184   2.284  15.218 -0.0359  0.0610 -0.0964
32510W        W47641   2.534   1.658  13.668  0.2950  0.0494 -0.0268
32511W        W47642   5.222  17.225   0.653 -0.0335 -0.1813 -0.1883
32512W        W47643   9.135  13.289  12.688  0.1132 -0.1229  0.3426
32513W        W47644  11.682   1.023   4.679  0.3009 -0.2393 -0.1750
32514W        W47645   6.781  15.307  10.493  0.1439  0.1691 -0.0112
32515W        W47646   5.239   5.518   4.215  0.2280  0.0359 -0.0102
32516W        W47647  11.143   2.263  14.084  0.3411  0.1625  0.4111
32517W        W47648   2.199  14.054  13.860  0.4609  0.5234 -0.2679
32518W        W47649   5.502   9.622   2.273 -0.1808  0.0143  0.2034
32519W        W47650  10.538   2.399  15.470 -0.0897  0.2053 -0.0779
32520W        W47651  10.701   3.641   4.740 -0.1573 -0.1067 -0.2807
32521W        W47652   4.969   2.629   5.163  0.2305 -0.3473 -0.2289
32522W        W47653   6.632   7.871   0.029  0.0775 -0.0262  0.2336
32523W        W47654   5.110  10.350   4.827  0.2575  0.3005  0.1278
32524W        W47655  15.105  10.553   5.535  0.0787 -0.2012 -0.1807
32525W        W47656  16.621  17.892  12.694 -0.2474  0.0750  0.0383
32526W        W47657   5.283   7.180  13.482  0.2394  0.0170 -0.1359
32527W        W47658   5.231  18.402   3.807  0.1667 -0.1505  0.2324
32528W        W47659   8.269   5.223  10.427  0.0121  0.2567 -0.3121
32529W        W47660   0.746   0.032   3.992  0.1939 -0.2057  0.0130
32530W        W47661  12.349   0.471  13.454  0.1448 -0.2482 -0.0122
32531W        W47662  18.160   1.744  14.149  0.1022  0.1080  0.0706
32532W        W47663  16.219   9.354   0.902  0.1056 -0.0524  0.0501
32533W        W47664   0.019  12.996   2.789  0.2911  0.1582 -0.0213
32534W        W47665  12.481   1.887  13.442 -0.1260  0.1430  0.0184
32535W        W47666   8.946   1.159   2.384 -0.0299 -0.0401 -0.1742
32536W        W47667  11.474  16.022  11.596 -0.1960  0.0580  0.0324
32537W        W47668  11.743   3.749  11.568 -0.1163 -0.3064 -0.0091
32538W        W47669  12.795  16.301  14.546  0.0019 -0.1252  0.0005
32539W        W47670   2.283   1.326   0.356  0.1196 -0.1156 -0.1576
32540W        W47671  17.361  15.864  11.025 -0.1197 -0.2138  0.0144
32541W        W47672  13.257  12.638  12.513  0.4559 -0.1216 -0.0712
32542W        W47673  16.519  12.137   0.493 -0.3411 -0.0924  0.1631
32543W        W47674   5.121   8.170   5.546  0.0147  0.0898 -0.0749
32544W        W47675  17.698   6.066   4.934  0.1364  0.0253  0.0596
32545W        W47676   8.442  14.788   9.849  0.0506 -0.0557 -0.0257
32546W        W47677   6.263   0.633  13.260  0.3022  0.2759  0.0300
32547W        W47678  16.578  13.008   3.495 -0.1953 -0.0916 -0.0752
32548W        W47679  10.154   8.611   3.060  0.1160  0.0560  0.0063
32549W        W47680   1.924  10.778   3.115  0.0420 -0.1794  0.5774
32550W        W47681   9.519  14.053   5.538 -0.0972  0.0678  0.1177
32551W        W47682  10.808  15.424  14.529  0.0099 -0.1883 -0.1013
32552W        W47683  12.458   6.889   2.930  0.2654 -0.1926 -0.0143
32553W        W47684  16.277   8.499  12.905 -0.1163  0.0714  0.0809
32554W        W47685  17.974  18.495   3.669  0.1734 -0.3013  0.3494
32555W        W47686  15.384  13.270  15.624  0.1239  0.1014 -0.0697
32556W        W47687   2.238  17.886   5.699  0.0284 -0.0496  0.0189
32557W        W47688   4.608   2.837   2.463 -0.1438  0.2651 -0.1026
32558W        W47689   4.200   1.598  10.408 -0.2404  0.0059 -0.3016
32559W        W47690  17.848  18.375  10.994 -0.2266  0.0242 -0.0519
32560W        W47691   9.164   6.264   3.536 -0.0414  0.2832 -0.3406
32561W        W47692   4.518  17.333   4.002  0.0018  0.0524  0.1150
32562W        W47693  13.803  10.864   4.876 -0.0759  0.2302  0.4552
32563W        W47694  12.077  14.616  13.120 -0.1252 -0.3985  0.0071
32564W        W47695  11.270  10.184   0.854  0.0992 -0.0727 -0.0795
32565W        W47696  15.063   1.961  14.612  0.0553 -0.0534  0.4017
32566W        W47697   6.250  11.331  14.690 -0.3401 -0.2564 -0.2073
32567W        W47698  13.793  11.168   5.637 -0.2110  0.3385  0.0522
32568W        W47699   4.584  12.353  12.503 -0.1516  0.1696  0.0159
32569W        W47700   7.915  18.468   4.603 -0.2501 -0.3371  0.0936
32570W        W47701  11.977   2.187   1.077 -0.1025 -0.0116  0.3624
32571W        W47702  15.584   9.819   3.616 -0.0698  0.1126  0.0677
32572W        W47703   5.192   2.831  11.369 -0.0405 -0.0912  0.1075
32573W        W47704   0.181   4.482   4.050  0.1309 -0.1937  0.0911
32574W        W47705  16.739  15.279   3.454  0.1187  0.0918  0.3088
32575W        W47706   7.413  10.071   3.206 -0.1731  0.0329 -0.0351
32576W        W47707  13.627   0.500   0.308 -0.0220  0.0343  0.4831
32577W        W47708  17.116   4.217   3.161  0.1421  0.1435 -0.1444
32578W        W47709   0.217   2.704   5.308 -0.3389  0.2208  0.0081
32579W        W47710   7.924   0.595  11.909 -0.0646  0.0965  0.0485
32580W        W47711  10.483   4.625  12.235 -0.2291  0.0727 -0.0157
32581W        W47712   5.765  14.887   1.292 -0.2985 -0.3217  0.2993
32582W        W47713   3.122   0.811   0.059  0.2640 -0.3517 -0.1420
32583W        W47714   1.079  12.332  13.979  0.2671  0.1960  0.1557
32584W        W47715  13.097   1.160  14.325  0.1411  0.3129 -0.2039
32585W        W47716  10.502   8.001   1.692 -0.0632  0.2231  0.1353
32586W        W47717  12.609  17.288   1.371  0.1802  0.1948 -0.2671
32587W        W47718   6.433  17.521   4.710  0.1714 -0.0558 -0.1371
32588W        W47719  16.586  16.690  11.850 -0.1357 -0.1058  0.4149
32589W        W47720   5.404   3.630  14.307 -0.1478 -0.4108  0.0127
32590W        W47721  10.596   2.208  11.665 -0.1237 -0.2137  0.1206
32591W        W47722  10.314  16.178   0.270  0.1561  0.1425 -0.0928
32592W        W47723   9.363   9.408  10.649 -0.0854  0.0586 -0.4291
32593W        W47724   6.381   7.244  10.330 -0.0665 -0.3945 -0.0833
32594W        W47725  18.107  10.160  11.688  0.3943  0.0162 -0.0003
32595W        W47726   4.098   3.672   1.564  0.1447  0.1641 -0.1349
32596W        W47727   8.682   5.531   9.685 -0.0206  0.0569  0.5057
32597W        W47728  13.213   4.907  11.287 -0.2671  0.1900  0.2654
32598W        W47729  16.986   5.266  13.650  0.1794 -0.2318 -0.0132
32599W        W47730   5.371  14.215   5.141 -0.2249 -0.1103  0.3395
32600W        W47731   3.563   7.317   5.130  0.1163  0.0291  0.1435
32601W        W47732   0.721  17.816   0.782 -0.1275 -0.0420 -0.1060
32602W        W47733  13.713   5.044  11.206  0.0430 -0.0443  0.0548
32603W        W47734  12.082   2.731   3.655 -0.0004  0.1918 -0.1980
32604W        W47735   0.926  16.965  11.022  0.3020  0.2048  0.1904
32605W        W47736  10.008  14.479   4.796 -0.2068  0.1867  0.1729
32606W        W47737   7.139  13.081   3.667  0.1035  0.0271  0.1090
32607W        W47738   5.469  11.730   1.462 -0.0259 -0.0026  0.1751
32608W        W47739  13.183  16.020  10.847  0.0349  0.1815  0.0742
32609W        W47740  15.051   9.962  10.328  0.1241  0.0273 -0.2352
32610W        W47741  16.207   5.488   2.412  0.1136 -0.0299  0.1099
32611W        W47742   8.704  15.853  12.744  0.0420  0.2534 -0.1585
32612W        W47743   5.986  13.381   2.025 -0.1139 -0.2551  0.0131
32613W        W47744  10.211   6.481   2.810 -0.0317 -0.0555 -0.0786
32614W        W47745   6.779  18.134   0.663  0.0449  0.3110  0.0002
32615W        W47746   2.382  11.626   5.396  0.2786  0.1574  0.0536
32616W        W47747  18.522  13.084  12.664 -0.3212  0.1495 -0.2696
32617W        W47748  13.482  17.753   3.581 -0.1452  0.1061  0.0681
32618W        W47749   1.496  14.161  12.832  0.0709  0.2367  0.0827
32619W        W47750  15.161   1.290  11.068  0.0298  0.1020  0.0379
32620W        W47751   9.724   4.650   2.046  0.0899  0.2792  0.5177
32621W        W47752  14.466   6.268  15.184  0.0125  0.1713 -0.1129
32622W        W47753   9.996   6.033   0.797  0.0893 -0.2351 -0.0657
32623W        W47754  16.120  11.757  13.264 -0.2840 -0.0741 -0.0423
32624W        W47755  10.105  17.923  14.192 -0.3908  0.2585 -0.0580
32625W        W47756  14.097  10.665  12.832  0.0044 -0.0305  0.0363
32626W        W47757  12.543   0.457   4.719 -0.2287 -0.2014 -0.1915
32627W        W47758   6.010  15.643   0.329 -0.0351  0.1648  0.1163
32628W        W47759   8.811   4.417   4.999 -0.1698  0.0392  0.1344
32629W        W47760  16.936   5.500   4.049  0.2103 -0.2057  0.0305
32630W        W47761  12.600  18.712   4.587  0.2400  0.2660  0.7095
32631W        W47762   7.677   4.955   2.890  0.0600 -0.0881 -0.0348
32632W        W47763  10.757  18.376   3.645  0.0401 -0.0979  0.4743
32633W        W47764   5.875   0.682   0.559  0.1006 -0.0311  0.0912
32634W        W47765   8.062   8.642   3.369 -0.0562 -0.1651  0.2323
32635W        W47766  13.118   4.080  12.309 -0.0239 -0.1126 -0.1802
32636W        W47767  16.319   4.188  10.392 -0.0041  0.0375 -0.0107
32637W        W47768  16.241  15.850  12.851 -0.0032 -0.4112  0.1689
32638W        W47769   9.316  14.893   2.608  0.1228 -0.0513  0.0979
32639W        W47770  10.873   0.124  12.376  0.1783  0.0511  0.1349
32640W        W47771   6.131  12.170  13.875 -0.0665 -0.0394  0.0473
32641W        W47772   3.985   2.097   2.155  0.3480  0.0797 -0.1409
32642W        W47773   1.780   0.142   0.448 -0.1770 -0.0183  0.2730
32643W        W47774   7.869   4.761   5.124 -0.4047  0.2284  0.1397
32644W        W47775   9.866   4.325   0.288 -0.0025 -0.0736 -0.1503
32645W        W47776   6.908   8.180   4.083  0.1173  0.1023 -0.0342
32646W        W47777   9.185   7.708  12.594 -0.2632 -0.0752 -0.0052
32647W        W47778  16.777  12.615  12.670 -0.4085  0.1214  0.0818
32648W        W47779   8.441  18.196  13.520 -0.0042  0.2389  0.3158
32649W        W47780   0.334   0.797   4.482 -0.1438 -0.1171  0.4916
32650W        W47781  14.609   3.033  13.712 -0.1193  0.2656 -0.2033
32651W        W47782   0.777   3.161  14.573 -0.2630  0.0678  0.3927
32652W        W47783   3.088  11.310  15.227 -0.0880 -0.4409 -0.0398
32653W        W47784  17.171   2.953   4.366  0.1448  0.0197 -0.3645
32654W        W47785   2.218   0.139  12.627 -0.1228 -0.0512 -0.0987
32655W        W47786  15.387   2.455   5.999 -0.0878  0.1259 -0.1448
32656W        W47787  13.416  16.365   3.578  0.1350 -0.0152  0.2787
32657W        W47788   9.582  14.428   4.437  0.2825  0.2233 -0.0109
32658W        W47789  17.636   3.946  12.883 -0.3013  0.0467  0.2920
32659W        W47790  18.146   0.235  12.755 -0.1407  0.0220  0.0057
32660W        W47791  15.650   8.182  14.300 -0.2504 -0.2068  0.1673
32661W        W47792   6.936  14.045   2.801  0.0727  0.0468 -0.1094
32662W        W47793   2.443   9.849   1.000 -0.2952 -0.1675  0.0755
32663W        W47794   8.098   1.827  14.637 -0.2331  0.0503  0.1210
32664W        W47795  18.569   9.821  14.055  0.0435 -0.4409  0.0630
32665W        W47796   4.991   3.062   2.716  0.0948 -0.0206 -0.0338
32666W        W47797  16.875  10.451   2.258  0.2294  0.0231  0.1261
32667W        W47798  12.201  18.135   4.053  0.0886  0.0638 -0.3779
32668W        W47799  17.982   4.518  15.182 -0.0472 -0.1909 -0.2826
32669W        W47800  14.139   7.840  11.238  0.0002 -0.0064 -0.1082
32670W        W47801   1.757   9.560   0.069  0.2940  0.2238 -0.1839
32671W        W47802   8.319  13.562   3.561  0.2762  0.1193  0.3458
32672W        W47803   9.758   0.014   0.373  0.3852  0.2590  0.0149
32673W        W47804   9.497   1.886  14.577 -0.0066 -0.1145 -0.0114
32674W        W47805  15.411  12.958  10.958  0.1999  0.0106 -0.5489
32675W        W47806  16.379  17.273  15.495 -0.1049 -0.0462  0.1934
32676W        W47807  12.604  13.687  15.186 -0.0670 -0.2496  0.1553
32677W        W47808  18.351  12.220  13.182  0.0959  0.1917  0.0947
32678W        W47809   2.760   1.179   3.961 -0.1551  0.2714 -0.1524
32679W        W47810   2.022  17.250   0.211 -0.2749 -0.2570 -0.0882
32680W        W47811  11.518  10.560  11.449 -0.1371  0.1738 -0.2421
32681W        W47812  17.461   3.331   1.290 -0.0272 -0.0662  0.0311
32682W        W47813  10.115  10.918  13.301  0.0311 -0.0586  0.2096
32683W        W47814   3.619  16.701   0.588  0.0240  0.0183 -0.3016
32684W        W47815  12.049   7.606   1.490 -0.2990 -0.1326  0.0199
32685W        W47816   7.882  16.068  12.765 -0.0305  0.2162  0.0905
32686W        W47817   2.353   3.545   1.099 -0.2367  0.3119 -0.1172
32687W        W47818   2.361   9.100   1.132  0.0971  0.0058  0.3444
32688W        W47819  11.542   5.979  14.888  0.0313 -0.0541 -0.0523
32689W        W47820  10.526   2.655  13.370 -0.1309 -0.2177  0.2775
32690W        W47821   0.882  12.762  14.755 -0.1046  0.0618  0.0700
32691W        W47822  10.385  15.311   0.010 -0.0763  0.1416  0.0788
32692W        W47823  11.699   1.897   4.652  0.1739 -0.1178 -0.1190
32693W        W47824   5.834   9.393   4.514  0.1698 -0.0657 -0.2298
32694W        W47825   8.589  17.648   0.155  0.0128 -0.1567 -0.0090
32695W        W47826  16.254   2.819  14.928  0.2059 -0.0330 -0.2552
32696W        W47827  10.856   5.026   1.278 -0.1637 -0.0382 -0.2361
32697W        W47828  14.882   4.228   2.956 -0.2149  0.2851 -0.1304
32698W        W47829   6.806  17.823  15.333  0.0954 -0.4208 -0.1462
32699W        W47830   4.152  10.645  14.878  0.1124  0.0574  0.4161
32700W        W47831   1.237  18.048  12.124  0.0083  0.2835  0.0302
32701W        W47832   4.064   9.124   4.463  0.0249  0.2277 -0.0035
32702W        W47833  12.696   6.463   1.282  0.0989 -0.0059  0.1670
32703W        W47834   8.931   7.596   4.878  0.0407  0.3132 -0.2079
32704W        W47835  11.685   5.126  10.767  0.3208  0.1225  0.0605
32705W        W47836   7.241  18.135  12.267  0.2588  0.0374  0.3600
32706W        W47837   5.359   2.978   5.272 -0.1669  0.2259 -0.1842
32707W        W47838   7.903  14.262   1.268 -0.0931  0.1604 -0.3295
32708W        W47839  11.070   6.226   4.864 -0.2913 -0.0172 -0.2260
32709W        W47840   7.355   8.327  10.679  0.1056 -0.1284  0.2839
32710W        W47841   4.149   8.526  13.336 -0.3530 -0.2264 -0.1620
32711W        W47842  10.305   7.039   3.920 -0.0469  0.2154 -0.1625
32712W        W47843   0.895  15.748  15.253 -0.2081 -0.4413 -0.0608
32713W        W47844   2.581   6.261  15.650 -0.4302 -0.0754  0.0061
32714W        W47845  10.264  13.244   3.223 -0.0979  0.1427  0.0082
32715W        W47846   4.282  14.595   0.377  0.0702 -0.2714 -0.3045
32716W        W47847  18.655   5.355   1.108  0.0874  0.1609  0.0329
32717W        W47848   9.004  15.988   1.614  0.1252 -0.1753  0.0568
32718W        W47849  17.985  11.131  12.189 -0.0892 -0.2597 -0.2479
32719W        W47850   9.013  12.155   0.958 -0.3136 -0.2896  0.3234
32720W        W47851   8.772   3.924  14.210  0.1250  0.1265  0.1796
32721W        W47852   0.763   9.867   1.039  0.1436 -0.3165  0.1451
32722W        W47853  18.471  12.558  11.735  0.3747 -0.0547 -0.0303
32723W        W47854   5.192  17.406   2.820 -0.3374 -0.0958  0.0632
32724W        W47855  12.910  11.996  12.315 -0.0191 -0.1077  0.0662
32725W        W47856  17.985   7.952   1.525  0.0709  0.1681 -0.0757
32726W        W47857   7.414   6.356  10.379 -0.2929 -0.0630  0.0168
32727W        W47858  10.520   7.329  12.046  0.0994  0.1681 -0.0954
32728W        W47859   6.110  11.622  11.360 -0.1055 -0.2003  0.1110
32729W        W47860   7.236  15.983   2.706  0.2354  0.2059  0.0611
32730W        W47861   1.776   0.910  13.187  0.0968 -0.3084 -0.0275
32731W        W47862   2.531  14.149   5.455  0.1503  0.0943 -0.0481
32732W        W47863   1.146   4.308   0.459 -0.0796 -0.2213 -0.3480
32733W        W47864  13.315  16.747   4.973 -0.0561 -0.2162 -0.0484
32734W        W47865  17.326   7.515  12.431 -0.5410  0.1825  0.1195
32735W        W47866   0.362   5.370   0.779 -0.1288 -0.0850 -0.1278
32736W        W47867   0.028   7.630   1.456 -0.0089 -0.1646  0.1146
32737W        W47868   1.525  15.905  12.479 -0.5296 -0.2148  0.2109
32738W        W47869   1.702  13.590  11.340  0.0826 -0.0456 -0.3126
32739W        W47870   0.098   3.998  10.857 -0.1754 -0.2343  0.1610
32740W        W47871  13.704   8.674  12.418  0.4967  0.0739  0.3058
32741W        W47872   5.786  17.412   0.182 -0.2905  0.0646  0.1866
32742W        W47873   0.776   0.880  12.997  0.0327 -0.2675 -0.3181
32743W        W47874   3.274   9.477   0.941 -0.0231 -0.1561 -0.0810
32744W        W47875  15.425   6.744   1.103  0.2595 -0.3000 -0.0076
32745W        W47876   7.517   8.537   3.699  0.1308  0.0083  0.2847
32746W        W47877   1.285   4.854  12.496  0.2022  0.1600 -0.2294
32747W        W47878   2.569   6.748   3.222  0.1377  0.1129  0.1371
32748W        W47879  10.762   4.382  14.338  0.2060  0.1850 -0.1476
32749W        W47880   1.889  11.298   2.367 -0.0083  0.1312 -0.0317
32750W        W47881   6.351  15.796  13.987  0.1728  0.2298  0.3087
32751W        W47882  18.175  17.780   5.240 -0.0161  0.1356 -0.1252
32752W        W47883  10.220   8.273  12.828 -0.0926  0.1058  0.3026
32753W        W47884   2.679  10.247   1.177  0.2550 -0.2289  0.0181
32754W        W47885   8.871  11.722  14.609  0.1081  0.0202  0.1051
32755W        W47886  16.198  15.912  13.614  0.0462  0.0889  0.3496
32756W        W47887  10.989   1.430   2.718  0.0269  0.3793 -0.1873
32757W        W47888   6.539  17.395  11.420 -0.3997  0.1304 -0.0384
32758W        W47889  13.981  16.288   0.915 -0.1186 -0.3376 -0.2049
32759W        W47890   4.855   9.506   0.735  0.1835 -0.0201  0.3378
32760W        W47891  10.688   2.527   2.936 -0.1687  0.1776 -0.1862
32761W        W47892   1.000   9.803   2.691 -0.1469  0.1335  0.0489
32762W        W47893   1.998   5.818   1.220  0.0612 -0.0449  0.1313
32763W        W47894   4.711   7.803  14.122  0.0301 -0.1074  0.2123
32764W        W47895   2.211  13.932   5.769  0.1122  0.0636  0.1612
32765W        W47896  16.466  17.928   1.681 -0.2359 -0.0024  0.3226
32766W        W47897  16.443   3.556   0.701 -0.0714  0.1786 -0.3059
32767W        W47898  10.116   9.569   0.827 -0.2295 -0.3431  0.0686
32768W        W47899   0.774   1.163  13.694 -0.1669 -0.0192 -0.0155
32769W        W47900   0.103  14.062  12.974  0.0120 -0.1394  0.0781
32770W        W47901  18.483  10.134  12.031 -0.5341  0.2820 -0.2600
32771W        W47902   7.170  14.681   4.258  0.1980  0.0263 -0.0300
32772W        W47903   7.663   0.618   2.377 -0.0479  0.2837 -0.0338
32773W        W47904  18.688  16.089   3.455  0.1626 -0.1022  0.0948
32774W        W47905  12.322   8.215   0.771 -0.2166  0.0908 -0.0183
32775W        W47906   3.952  14.544   5.310 -0.1934 -0.4200  0.0569
32776W        W47907  17.277   6.054  14.797  0.3992  0.2329 -0.0666
32777W        W47908   3.992  11.953   2.576  0.3043  0.1041  0.1246
32778W        W47909  14.669   3.894  11.357  0.0299 -0.1053 -0.0444
32779W        W47910  14.254  12.182   1.409 -0.1422 -0.1343  0.4461
32780W        W47911  15.724   2.892   1.336 -0.2889 -0.3528 -0.2284
32781W        W47912   6.467   3.548  10.952 -0.2071  0.1224 -0.0636
32782W        W47913   6.603  14.818   5.227  0.3056 -0.0805 -0.0280
32783W        W47914   0.923  18.727   5.356  0.1634  0.1060  0.1865
32784W        W47915   1.352  14.831  15.413  0.1050  0.1065  0.3306
32785W        W47916   2.005   4.015   3.360 -0.1084  0.2530 -0.1198
32786W        W47917  15.642  16.477  14.687  0.0685  0.1535 -0.1118
32787W        W47918   3.884  16.625   2.272 -0.0503 -0.0962  0.1465
32788W        W47919   1.755  16.057   2.304  0.0400  0.0412  0.3976
32789W        W47920   2.711  13.199  14.223 -0.0870  0.3274  0.1220
32790W        W47921   9.037  10.771  14.775  0.0004  0.3160  0.1699
32791W        W47922   7.907   9.916   0.069  0.1781  0.2410 -0.2984
32792W        W47923  16.830  15.615   0.054 -0.1850 -0.0922  0.3534
32793W        W47924   2.430   8.279  15.088  0.0587 -0.2107  0.0770
32794W        W47925   2.665   0.186   5.159  0.0823 -0.1487 -0.0993
32795W        W47926   4.978   7.194  12.863  0.1439  0.1602  0.2330
32796W        W47927   6.908   0.382   2.355 -0.2174 -0.1254 -0.1544
32797W        W47928   0.603   8.773   1.273 -0.2766  0.1043 -0.1243
32798W        W47929   3.154   7.489   5.333 -0.1298  0.2953  0.2292
32799W        W47930  15.771   9.791   0.074 -0.0680 -0.0527 -0.0184
32800W        W47931   4.986   2.571  13.957 -0.1470 -0.0637  0.1961
32801W        W47932  15.619   4.087   0.638  0.4261 -0.0188 -0.1292
32802W        W47933   0.868   2.312   0.595  0.2582 -0.0266  0.4052
32803W        W47934  16.056   4.216  10.839  0.0614 -0.3716 -0.0467
32804W        W47935  14.158  17.373  13.311 -0.0465 -0.0322  0.0665
32805W        W47936   4.881   0.576   0.753  0.1146 -0.4531 -0.1535
32806W        W47937   8.296   4.393  11.116 -0.1213 -0.2537 -0.4807
32807W        W47938   3.530  14.349  14.634 -0.0601 -0.0663  0.1976
32808W        W47939  17.851   8.969  14.938 -0.2292  0.2181 -0.0490
32809W        W47940   4.068  17.978   3.641 -0.0588 -0.6762 -0.0660
32810W        W47941   1.618   4.709   3.056 -0.0601  0.0636 -0.0311
32811W        W47942  11.943   0.537  10.609  0.1298 -0.1203  0.0059
32812W        W47943   9.631  11.584  15.307 -0.0297 -0.0768  0.2158
32813W        W47944  12.483   2.136   1.967 -0.0921 -0.2242  0.2825
32814W        W47945   1.986  16.472   4.920 -0.1950 -0.1288  0.0473
32815W        W47946  14.184   6.753   1.437  0.1140  0.0322  0.0880
32816W        W47947   9.355  12.770  12.787  0.2554  0.0707  0.0593
32817W        W47948  17.029   9.212  11.971  0.0600 -0.2133 -0.3439
32818W        W47949  18.697   7.686  12.240 -0.2706  0.1748  0.0758
32819W        W47950   4.676  11.869  12.638  0.2780 -0.0919  0.0973
32820W        W47951  14.680   5.817   3.724 -0.1731 -0.1234 -0.0453
32821W        W47952   1.838   4.577  15.528  0.1400  0.0816 -0.2696
32822W        W47953  11.098  18.501  14.349  0.1007 -0.0218 -0.4241
32823W        W47954  16.168  15.084  11.789 -0.0694  0.0644 -0.1438
32824W        W47955  11.128   2.776   9.773 -0.0872  0.0404  0.0268
32825W        W47956  18.672   1.311   3.074 -0.1920 -0.1436 -0.3844
32826W        W47957   7.860  12.173  11.975 -0.1720  0.4335  0.0984
32827W        W47958  14.607  12.967  15.608 -0.3571 -0.1260  0.1480
32828W        W47959   3.259  12.819   0.798 -0.2158  0.1111 -0.2844
32829W        W47960   7.340   7.408   0.598 -0.1959 -0.1497 -0.1237
32830W        W47961   5.685  14.143  12.449  0.2402  0.0008 -0.0592
32831W        W47962  15.748   0.199   2.603 -0.1339  0.1991  0.1674
32832W        W47963  13.373  15.559   0.950 -0.3823 -0.1225  0.1850
32833W        W47964  17.283   0.137   0.297 -0.0424  0.4409 -0.0388
32834W        W47965   3.228  14.582  15.797 -0.1248 -0.0759  0.1370
32835W        W47966   2.432  17.308  10.542 -0.5061 -0.2135 -0.1081
32836W        W47967  18.635   2.481  12.914 -0.0446 -0.2087  0.1644
32837W        W47968  10.531  12.758   3.750  0.1224 -0.1109 -0.1440
32838W        W47969   8.374  12.328   1.831 -0.0199  0.1555 -0.1809
32839W        W47970   5.137   3.292  12.291  0.0629 -0.0403  0.0736
32840W        W47971  17.474   9.364  13.430 -0.3366 -0.1515  0.0469
32841W        W47972   2.370   1.643   5.456  0.0315  0.0218 -0.2010
32842W        W47973  18.223   4.948  12.509 -0.0088 -0.0698 -0.0287
32843W        W47974  18.514  18.148  12.702 -0.0333 -0.2148 -0.0662
32844W        W47975   3.649  13.511  11.217 -0.3594 -0.0979 -0.1796
32845W        W47976  16.952  12.335  13.390  0.2343 -0.0738 -0.2296
32846W        W47977  12.081   5.765   5.102 -0.1627 -0.1270  0.1495
32847W        W47978  14.514  12.802   2.195 -0.0537 -0.1980  0.4490
32848W        W47979   8.955  16.116   4.168  0.0452  0.2639  0.2071
32849W        W47980   3.423   9.522  15.113 -0.2571 -0.1772 -0.2137
32850W        W47981  17.761   2.669   3.174  0.3987  0.3728  0.0698
32851W        W47982  17.368   2.516   4.626  0.0825 -0.1204  0.2286
32852W        W47983   9.239  14.451  15.304  0.1083 -0.1499  0.1299
32853W        W47984   8.728   1.170  11.574  0.0147  0.1046  0.0451
32854W        W47985   0.439   3.206  12.430  0.1887 -0.3612 -0.2276
32855W        W47986   6.809   4.216   5.818 -0.1313  0.0046  0.1275
32856W        W47987   1.192   4.945  11.709 -0.2713  0.0997 -0.0637
32857W        W47988   3.660   5.776   4.546 -0.3786  0.0942 -0.0148
32858W        W47989   4.611  13.780   1.823 -0.0007 -0.0107 -0.0088
32859W        W47990   4.942  16.208   2.081 -0.2665  0.0143 -0.0922
32860W        W47991  17.039   0.805   3.746 -0.0597 -0.0832 -0.0158
32861W        W47992   0.800   2.267   4.546  0.1415  0.1317 -0.2081
32862W        W47993   3.504   6.540  11.643  0.1690  0.0724  0.1104
32863W        W47994  13.320  16.246  12.825  0.2783  0.4155 -0.0730
32864W        W47995   6.909   9.831   0.204 -0.0341 -0.0362 -0.0603
32865W        W47996   8.822  17.757   2.809  0.0332 -0.0132  0.2437
32866W        W47997  11.063  13.832  14.458  0.0440 -0.4034 -0.1488
32867W        W47998   3.389  18.002   1.309  0.3982 -0.0642 -0.1845
32868W        W47999   6.344   6.273   5.558 -0.3672  0.1653  0.1151
32869W        W48000  12.011  11.386   5.622 -0.1455  0.1965 -0.2734
32870W        W48001   5.839  13.753  11.075  0.0077  0.1927  0.2060
32871W        W48002   6.333   7.021   2.074 -0.0729 -0.1005 -0.0187
32872W        W48003   4.880  15.680   5.882 -0.3682 -0.2242  0.2293
32873W        W48004   5.653  14.199   4.667  0.0537 -0.1583 -0.0398
32874W        W48005  14.929   3.040  10.761 -0.2051 -0.1786  0.0187
32875W        W48006   2.489  13.307   0.904 -0.0844 -0.1411  0.1477
32876W        W48007   1.989   6.382   4.937 -0.1205 -0.0508  0.2206
32877W        W48008   5.255  14.772  14.282 -0.1712  0.0510 -0.2786
32878W        W48009   0.981  12.996  14.289  0.0884  0.2071  0.0151
32879W        W48010   1.730  11.499  11.571 -0.1586 -0.1466 -0.2278
32880W        W48011  17.518  18.098   3.488  0.0436  0.2420  0.1636
32881W        W48012   3.666  13.049   2.094  0.6739  0.1884 -0.0268
32882W        W48013   2.395   0.806   4.206 -0.0725  0.2383 -0.0793
32883W        W48014   6.592   9.679   2.507 -0.0656 -0.1936 -0.0930
32884W        W48015   1.376  17.794   0.916  0.3079  0.0756  0.0740
32885W        W48016   3.015  16.665   0.659 -0.0016 -0.1193 -0.1720
32886W        W48017   1.111   1.970   0.314 -0.2354  0.2990 -0.2396
32887W        W48018  10.096  17.010   2.283  0.2014 -0.1711  0.3668
32888W        W48019  11.085   8.533   1.795 -0.0618  0.0101 -0.1190
32889W        W48020   4.036   6.994   3.420 -0.1589 -0.2203  0.0060
32890W        W48021  12.457  10.807  11.442  0.0346  0.0921  0.0171
32891W        W48022  14.562   7.760  14.549 -0.1975 -0.0018 -0.0702
32892W        W48023   3.739   9.131   2.772  0.0160  0.0477  0.1103
32893W        W48024   0.705  11.299  11.682  0.2904  0.4700  0.1815
32894W        W48025   3.648   7.448   2.247  0.1194  0.0482 -0.0580
32895W        W48026  15.371  17.042   1.182  0.2976 -0.2519 -0.0387
32896W        W48027   4.997  12.588  15.103 -0.2547  0.0082  0.2092
32897W        W48028   7.638  12.548   5.975  0.3501 -0.1342 -0.0421
32898W        W48029   3.662  14.554   1.859 -0.0583  0.0328  0.1208
32899W        W48030   8.126   3.007   4.636 -0.0431 -0.0831  0.0385
32900W        W48031  15.609  14.270   5.265  0.0743 -0.1250  0.1050
32901W        W48032  10.902   1.443  11.909  0.0359 -0.0529  0.0628
32902W        W48033  13.361  11.160  15.751 -0.1186  0.1857 -0.2586
32903W        W48034   2.630   8.779  14.774  0.0525  0.0078  0.2180
32904W        W48035  18.042  17.475   3.039 -0.4763 -0.1518  0.1278
32905W        W48036  17.891   3.622  10.448  0.0127  0.2289  0.3607
32906W        W48037   3.425   9.838   3.255  0.1412  0.0680 -0.0722
32907W        W48038  10.207  18.709  13.431 -0.1599 -0.3210 -0.1097
32908W        W48039   3.263   9.349   5.361 -0.0220 -0.0018 -0.1965
32909W        W48040  16.606   8.840   5.297 -0.2489  0.0722 -0.1331
32910W        W48041  10.885   2.215  14.598  0.0622 -0.2904 -0.0522
32911W        W48042   3.322   7.025  13.415 -0.0848  0.2338 -0.1032
32912W        W48043  17.869   0.521  13.137  0.0567 -0.0533 -0.1359
32913W        W48044  16.033   4.309  14.107 -0.1027 -0.2227 -0.0037
32914W        W48045   7.240  14.888  11.350 -0.0876  0.0240  0.1941
32915W        W48046   7.467   0.134  15.806  0.0023 -0.2569  0.1315
32916W        W48047   2.327   1.201   4.553 -0.0128  0.1201 -0.1063
32917W        W48048  16.472   8.886   1.626 -0.1491 -0.0039 -0.1926
32918W        W48049   4.861  17.684  12.615  0.1012 -0.0075 -0.0235
32919W        W48050   0.148   1.613  15.001 -0.1706 -0.1873  0.3028
32920W        W48051   6.953  10.767  14.727 -0.3649 -0.1586 -0.0522
32921W        W48052  17.840   7.880  11.827  0.3323  0.1659  0.0433
32922W        W48053   3.884  14.932  13.381 -0.2856  0.0432  0.1036
32923W        W48054  17.660   5.527  10.370 -0.0913 -0.3729  0.0771
32924W        W48055   5.278   0.114  11.695 -0.4581 -0.2533  0.1082
32925W        W48056   0.135  16.367   4.263  0.1023 -0.1000  0.1377
32926W        W48057   2.229   1.469   5.880 -0.3176 -0.0816  0.1109
32927W        W48058   9.046   2.805  13.186  0.2768  0.1747 -0.0822
32928W        W48059   4.736  14.212  11.433 -0.0276  0.2835 -0.2256
32929W        W48060   2.124   1.664  14.162 -0.1677 -0.0529 -0.1347
32930W        W48061   4.548   7.625  12.856  0.0637  0.3025  0.0974
32931W        W48062   9.561   9.807   4.298 -0.0200  0.1676  0.1130
32932W        W48063   6.579  15.384  14.397  0.0763 -0.0843  0.4551
32933W        W48064   7.255  14.606   2.023  0.0965 -0.0443 -0.0596
32934W        W48065  12.551  13.193   5.322 -0.3705  0.2288 -0.1067
32935W        W48066  14.222  10.432   1.001 -0.2703  0.2158  0.3311
32936W        W48067   0.917   5.755   9.826 -0.2612 -0.2890  0.2019
32937W        W48068   9.929   7.669  13.860  0.1586 -0.1821  0.3600
32938W        W48069   7.209   6.156  15.526  0.1833 -0.3038  0.1019
32939W        W48070   0.893  12.126  11.772  0.4502 -0.2498  0.2352
32940W        W48071   3.357   1.918   0.741  0.2931 -0.1073  0.0360
32941W        W48072  18.370   5.651   1.809  0.0370  0.1263  0.0780
32942W        W48073  15.604   6.407   5.119 -0.1093  0.2078 -0.4798
32943W        W48074  13.804  12.127   5.678 -0.0291  0.2036 -0.0064
32944W        W48075  14.375   8.297  12.940  0.2024 -0.3643 -0.1305
32945W        W48076   1.206   3.914  13.866 -0.1621 -0.0135 -0.2901
32946W        W48077   5.273  12.325   0.285 -0.1416 -0.2443  0.0581
32947W        W48078   9.177  11.161  12.205  0.0459  0.1655  0.0048
32948W        W48079   0.180  14.408   1.613  0.0818 -0.0988  0.3304
32949W        W48080  11.912   3.431   2.839  0.1313 -0.1005  0.1589
32950W        W48081   2.141   2.606  13.794 -0.0409 -0.0877  0.1442
32951W        W48082  16.671  15.328  11.934  0.1340 -0.2991  0.0505
32952W        W48083   7.354  15.430  12.133  0.0859  0.1841 -0.0098
32953W        W48084  10.463   7.553  13.887 -0.2375 -0.1577 -0.0331
32954W        W48085  13.944  14.172  11.244 -0.1900 -0.0874  0.1003
32955W        W48086   4.060   3.292   0.711 -0.0095 -0.0994 -0.0804
32956W        W48087   4.311  17.496  13.338  0.3130  0.3100 -0.0836
32957W        W48088   8.295   9.007   1.741  0.1839  0.0870  0.2694
32958W        W48089   4.867  18.076  15.116  0.1640  0.3318 -0.2836
32959W        W48090  12.303  13.715   2.343  0.0686  0.2604  0.3227
32960W        W48091   2.508  16.708   0.078  0.3378  0.1973  0.0745
32961W        W48092   1.750   6.624  14.822 -0.3150  0.0439  0.1490
32962W        W48093   3.328  16.851  13.558 -0.1090  0.3011  0.1218
32963W        W48094  10.470  15.503   1.771  0.0531 -0.0380  0.0060
32964W        W48095  13.597   7.093   3.296 -0.0354 -0.1569  0.2002
32965W        W48096  14.745  16.740  11.647 -0.0614 -0.1687 -0.0113
32966W        W48097  18.373   9.269  12.818  0.1348  0.0179  0.2231
32967W        W48098   0.944  14.990   3.676  0.2251 -0.1667  0.1034
32968W        W48099  13.391   7.647   4.702  0.4709 -0.0732  0.0820
32969W        W48100   9.926  14.794   3.271  0.1453  0.1512 -0.0666
32970W        W48101  16.092   2.052  11.779 -0.1902 -0.1128  0.0182
32971W        W48102  11.685   0.736   0.209 -0.0955  0.2181 -0.0841
32972W        W48103   1.522  12.039   3.700 -0.0665 -0.0834  0.3749
32973W        W48104   5.006  17.905  11.410  0.1622  0.1833 -0.2451
32974W        W48105  10.814  18.031   4.997  0.1926 -0.0354 -0.1273
32975W        W48106   0.791  18.051  11.863  0.1435 -0.3019 -0.3533
32976W        W48107  10.381   9.230  15.696 -0.1730  0.1948 -0.1757
32977W        W48108   4.977  16.787   4.464 -0.2296 -0.0543  0.1426
32978W        W48109   3.679  13.589   2.057 -0.3247  0.3747  0.0927
32979W        W48110   7.889  17.739  14.123  0.2740  0.0866 -0.4409
32980W        W48111  18.420   0.342  15.691 -0.0122 -0.1885  0.0023
32981W        W48112  12.634   8.412   2.282  0.1504 -0.3411  0.1613
32982W        W48113   9.056   1.705  14.931 -0.1107  0.2497  0.1952
32983W        W48114   4.991   2.025  14.068  0.0253 -0.1193  0.1546
32984W        W48115   7.565  13.635   5.068 -0.0124 -0.1153 -0.0157
32985W        W48116   8.535  13.076  10.818  0.1131  0.0756 -0.1175
32986W        W48117   6.073   1.335   2.032 -0.0758  0.1171  0.0630
32987W        W48118   5.575   7.478  10.720  0.0248 -0.2256  0.2185
32988W        W48119   1.045  12.292  10.269 -0.2718  0.0519  0.0874
32989W        W48120   4.639   8.269  12.162  0.1278 -0.0591 -0.3869
32990W        W48121   9.104  15.813  14.912 -0.2599  0.1664  0.3372
32991W        W48122   5.036  18.123   1.521 -0.3952 -0.1161 -0.3293
32992W        W48123   3.232   2.715   3.876 -0.2610  0.3465 -0.0867
32993W        W48124  14.341  17.838   3.326 -0.2808  0.1811 -0.3300
32994W        W48125  17.263   5.227   4.475  0.1691  0.0144  0.3052
32995W        W48126  14.404   4.958   2.705 -0.0181 -0.1669  0.4227
32996W        W48127  12.837  14.842  14.263  0.1348 -0.3017  0.2514
32997W        W48128   1.217  11.526   5.018  0.0457  0.2498 -0.0138
32998W        W48129  18.704   4.365   0.096 -0.2997  0.3156 -0.0001
32999W        W48130   7.132  12.634  15.666  0.0866  0.2759  0.0744
33000W        W48131   9.363  14.468   1.641 -0.0796  0.0863 -0.0797
33001W        W48132   6.024  14.588  12.426  0.0132 -0.0984  0.1761
33002W        W48133  18.351  14.956  12.885  0.0726 -0.3015 -0.0944
33003W        W48134   8.319   9.981   0.591 -0.2178  0.2498 -0.3666
33004W        W48135  12.776   9.832   0.131  0.2178 -0.1285 -0.0644
33005W        W48136  18.537   6.472  10.160 -0.1770  0.0064  0.1982
33006W        W48137   8.384   0.317  12.356  0.0892  0.0536 -0.0263
33007W        W48138   5.315  15.947  14.632 -0.0024 -0.3199 -0.1176
33008W        W48139  17.275   6.166  10.730  0.1517 -0.0101 -0.0477
33009W        W48140  15.761   2.852   1.910  0.3679  0.0643 -0.0392
33010W        W48141   9.927  11.795   9.755 -0.1215 -0.1443  0.2807
33011W        W48142   5.195   4.958  14.112 -0.1443  0.0051 -0.3571
33012W        W48143   6.156   8.359  12.392  0.2384  0.0164 -0.0510
33013W        W48144  17.434   7.545   3.107  0.0219  0.4559  0.4891
33014W        W48145  11.438   7.626  15.024  0.0419  0.0986  0.1273
33015W        W48146  13.557   4.199   5.286  0.0418 -0.5890  0.0944
33016W        W48147   0.986   8.402   5.101  0.0094  0.0143  0.2195
33017W        W48148   9.885  11.395  13.090  0.0385  0.1708 -0.3512
33018W        W48149   7.345  17.348   2.959  0.0585 -0.1245 -0.0667
33019W        W48150  11.339   2.016  13.175 -0.0114 -0.0516  0.0449
33020W        W48151  16.101   5.088  13.688  0.0027 -0.2762 -0.3086
33021W        W48152  16.447   9.268   5.534 -0.1352 -0.0461 -0.3589
33022W        W48153   8.160   1.193   3.043 -0.0716  0.1954 -0.1084
33023W        W48154   5.978  17.333  14.633 -0.1595  0.2979 -0.0047
33024W        W48155  16.354   8.560  11.903 -0.1009  0.3977  0.6076
33025W        W48156  14.011   1.942   2.577  0.1879 -0.0291  0.2145
33026W        W48157  11.515   4.639  12.028 -0.2038 -0.2305  0.1659
33027W        W48158   2.253   3.720  14.800  0.0778 -0.1424  0.0079
33028W        W48159  11.496  14.360   4.074  0.2931  0.1011  0.0947
33029W        W48160   0.080  13.242  11.258 -0.1744  0.0540  0.1143
33030W        W48161  14.856   4.144   3.958 -0.1687  0.1482 -0.3367
33031W        W48162   9.584   5.196   1.225 -0.1778 -0.0347 -0.1844
33032W        W48163   9.304   4.553   5.123  0.0982  0.4343  0.0189
33033W        W48164  16.809   7.681   4.937  0.1983 -0.1489 -0.1386
33034W        W48165   3.077  10.627  10.534 -0.1304  0.0952  0.0908
33035W        W48166   9.282  13.397   0.689 -0.5103 -0.1334 -0.1073
33036W        W48167  11.636  10.288  14.912  0.0186 -0.0306  0.2575
33037W        W48168  12.170   1.252   4.985  0.2512  0.0335  0.1158
33038W        W48169   6.706  14.493   2.790  0.1948 -0.0833  0.0307
33039W        W48170   0.376  13.337   3.373  0.1514 -0.0551  0.0886
33040W        W48171  14.270   3.758   2.026 -0.1657  0.2056  0.0670
33041W        W48172  14.983  14.288   1.987 -0.0437 -0.0798 -0.1254
33042W        W48173   4.635   1.549  12.320  0.0653  0.1498  0.3302
33043W        W48174  14.920   0.939  11.418  0.2775 -0.1361 -0.2586
33044W        W48175   1.461   0.497   3.062 -0.0659 -0.0929 -0.2549
33045W        W48176  16.595   2.737  11.483 -0.0050  0.0327 -0.2421
33046W        W48177  16.991  14.563  13.546  0.2738 -0.0415 -0.0908
33047W        W48178  14.437   3.469   0.903  0.0822 -0.2833  0.0247
33048W        W48179   7.242  15.890  12.190  0.0682 -0.1296 -0.0814
33049W        W48180  14.974   1.473   1.742 -0.0841  0.2460  0.0258
33050W        W48181   9.756  13.692  13.066 -0.0029 -0.3321  0.0727
33051W        W48182  11.467   4.324   1.033 -0.1562 -0.0709 -0.1541
33052W        W48183  13.293   3.556   1.985 -0.0712 -0.1809  0.4583
33053W        W48184  13.606   0.577  13.548 -0.0317  0.0210 -0.0791
33054W        W48185  16.457  18.432  13.550  0.1629 -0.1237 -0.3449
33055W        W48186   2.348  15.267  12.353  0.1735 -0.3008 -0.1756
33056W        W48187  12.333  13.584   1.683 -0.0512  0.0949 -0.2498
33057W        W48188   8.071   2.309  11.397  0.2261  0.1073 -0.3375
33058W        W48189  13.824  16.125   3.769  0.0759  0.2703 -0.1145
33059W        W48190   1.835  13.240   0.857  0.3196 -0.3235  0.0581
33060W        W48191   9.378   8.858  14.612 -0.0098 -0.0182 -0.2176
33061W        W48192   0.915  15.703   2.883 -0.1772  0.3520 -0.1163
33062W        W48193   8.868   3.579   3.533 -0.0036 -0.0386 -0.1198
33063W        W48194   2.793   6.272  13.292 -0.0428  0.1465 -0.2582
33064W        W48195  10.424   6.902  14.685  0.3869  0.0798  0.1532
33065W        W48196   6.298   1.541   0.979 -0.1558 -0.2740  0.1031
33066W        W48197  18.100  15.080  10.040 -0.2089  0.3381  0.1049
33067W        W48198   8.270   2.449   0.979 -0.0640  0.0665 -0.0490
33068W        W48199   9.381   2.216  14.973 -0.2675 -0.0129  0.1016
33069W        W48200   0.362  15.459  12.154  0.2466 -0.0446  0.1470
33070W        W48201  17.153  10.536   4.012 -0.0489 -0.1867 -0.0419
33071W        W48202   6.838   1.117  12.884 -0.0648  0.1594 -0.0854
33072W        W48203   7.072   2.372   1.895 -0.2543  0.0065  0.2428
33073W        W48204   9.802   5.791   5.352 -0.2080  0.2561  0.3034
33074W        W48205   5.151   8.198   0.663 -0.2076 -0.0884 -0.1225
33075W        W48206   9.404   0.534  13.558 -0.0687 -0.2787 -0.0018
33076W        W48207  16.471   6.952   4.544  0.1108 -0.1646  0.3034
33077W        W48208  16.483  17.158   3.413  0.0408 -0.0200 -0.2500
33078W        W48209   0.425  11.631  13.702  0.3024 -0.0304  0.1327
33079W        W48210   6.949   2.343   5.987  0.1212 -0.0135  0.0079
33080W        W48211  15.432   3.038   4.269 -0.2853  0.0400 -0.1567
33081W        W48212   4.773  11.384  14.623  0.0474  0.3731 -0.2144
33082W        W48213   9.489  16.318   2.367  0.1441 -0.2546  0.0613
33083W        W48214  16.848   6.827  11.661  0.1856  0.4830  0.2405
33084W        W48215   0.035   0.188  15.281  0.0678 -0.0727  0.1965
33085W        W48216  10.749  16.801   2.823  0.0821  0.4935 -0.1983
33086W        W48217  15.588  15.503   3.295  0.4143 -0.0030 -0.1341
33087W        W48218   1.392  11.314   4.505  0.1285 -0.0882  0.0540
33088W        W48219   5.888  12.599  14.115  0.0899 -0.2856 -0.2935
33089W        W48220   0.307  14.884   4.892  0.0104  0.1485  0.0738
33090W        W48221  13.246  15.449  13.714 -0.0172  0.0661  0.0954
33091W        W48222   6.434  18.242   1.064  0.0596  0.2462 -0.4192
33092W        W48223  14.601  12.856  13.328  0.1962  0.0377 -0.2317
33093W        W48224  15.733   1.483  11.085  0.1340  0.2949 -0.0484
33094W        W48225  16.305   3.090   0.770 -0.1317  0.1031  0.0997
33095W        W48226   6.757   5.462   1.966  0.0145 -0.0490  0.2000
33096W        W48227   8.090   2.146   5.436  0.0009 -0.2217 -0.0692
33097W        W48228   1.328  13.027   4.109 -0.0624  0.0204  0.3810
33098W        W48229  14.044   8.578   0.599 -0.3348 -0.1138 -0.1943
33099W        W48230   7.336  11.763   0.448 -0.0696  0.1770  0.0106
33100W        W48231  17.418   5.902  12.415 -0.0375  0.1657  0.0750
33101W        W48232  11.095   9.882  12.656  0.0470 -0.2142 -0.1106
33102W        W48233  12.123  17.191   3.598 -0.2650  0.3134  0.1564
33103W        W48234   9.627  16.358  12.603  0.1086 -0.2061  0.1889
33104W        W48235  10.607  16.724   2.121 -0.2494 -0.1815  0.0054
33105W        W48236   1.310   9.987  11.754  0.1817  0.2828  0.0654
33106W        W48237   5.177  12.958  11.101  0.1730 -0.1273 -0.0991
33107W        W48238   6.573   0.890  14.246  0.3188 -0.2124 -0.1834
33108W        W48239   1.330  18.221  13.608  0.0178  0.1214 -0.1106
33109W        W48240   2.749   6.909  10.755 -0.1025  0.2715  0.3043
33110W        W48241   1.259   6.440   1.630  0.2895 -0.0105 -0.0757
33111W        W48242  11.002  16.829   9.955  0.2589 -0.1114 -0.2959
33112W        W48243  12.671  17.986   1.200  0.2386 -0.2659 -0.1161
33113W        W48244   6.239  15.355   0.660 -0.3765  0.1569 -0.3459
33114W        W48245  18.214  11.609   3.449  0.2515  0.2125 -0.1403
33115W        W48246   7.042  11.139  15.083  0.0885 -0.0305  0.0391
33116W        W48247  18.476   0.642   0.594  0.1286  0.3513 -0.3192
33117ION     NA48248   5.643   2.804  12.919 -0.1686  0.1835 -0.1299
33118ION     NA48249   9.762   8.690   1.305 -0.0298  0.0954 -0.3649
33119ION     NA48250   6.030  13.122  14.043  0.0755 -0.1408 -0.0320
33120ION     NA48251   4.810   7.334   4.123  0.0800  0.2019 -0.0317
33121ION     NA48252   0.948  14.139  10.163  0.1060  0.1688 -0.0438
33122ION     NA48253  13.078   0.216   9.861  0.0126  0.0685  0.0113
33123ION     NA48254   6.500  12.859   4.793  0.0109 -0.0999  0.0591
33124ION     NA48255   8.624  10.813   9.643 -0.1344  0.3409 -0.2407
33125ION     NA48256   6.208  18.540  12.600  0.1234 -0.0542  0.2055
33126ION     NA48257  14.498   9.863  13.106 -0.2007  0.0729 -0.3037
33127ION     NA48258   6.787  13.576  10.105  0.3596  0.2849 -0.0494
33128ION     NA48259  15.127  10.571   2.709 -0.3147 -0.2085 -0.1630
33129ION     NA48260  16.955   4.560   9.710  0.1517 -0.0970 -0.1440
33130ION     NA48261   7.986   4.670   3.667  0.1315 -0.0467  0.2264
33131ION     NA48262   3.619   7.758   9.967 -0.3470  0.1109 -0.0713
33132ION     NA48263   0.518   6.979  10.039 -0.0690 -0.0733  0.1483
33133ION     NA48264   3.999   2.267   0.290  0.0076 -0.1457  0.0719
33134ION     NA48265   5.062   1.720  10.532 -0.0408  0.2554 -0.0440
33135ION     NA48266  18.419  11.983  10.181  0.1797  0.0532  0.0641
33136ION     NA48267  16.927   0.610   2.262 -0.0202 -0.0795  0.1656
33137ION     NA48268  10.268   3.390  12.537  0.0433  0.0671  0.3917
33138ION     NA48269  10.754   7.751  13.342 -0.2473  0.2210  0.0667
33139ION     NA48270   1.893  17.122  10.391 -0.0314  0.0907 -0.0527
33140ION     NA48271  17.541   3.498  13.102  0.0610 -0.1317 -0.1733
33141ION     NA48272   1.867   3.371  10.141 -0.4125  0.0610  0.2872
33142ION     NA48273   2.585   8.604   9.862  0.2844  0.3255  0.3808
33143ION     NA48274  17.874   0.191   5.602 -0.1412  0.0632 -0.2513
33144ION     NA48275   6.203   7.742   1.619  0.3327 -0.0252 -0.0381
33145ION     NA48276   5.445  12.441   2.893 -0.0840 -0.0098  0.1004
33146ION     NA48277   0.046  12.698   5.912 -0.1439  0.2422  0.4957
33147ION     NA48278  16.305  12.224  13.420 -0.1804 -0.1390  0.1874
33148ION     NA48279  11.553  11.228   9.550  0.0298  0.2791 -0.1363
33149ION     NA48280  17.107   8.723  10.243  0.2002  0.0147 -0.1070
33150ION     NA48281  14.656   5.901  12.603 -0.4080  0.2170  0.2102
33151ION     NA48282   8.090  17.509  12.399 -0.1229 -0.2044  0.5759
33152ION     NA48283   9.885  17.186   2.878 -0.0635  0.1658 -0.2107
33153ION     NA48284   4.176   2.399  12.357  0.3374 -0.0673 -0.1537
33154ION     NA48285   2.920   0.590   6.340 -0.1079 -0.0907 -0.1302
33155ION     NA48286  15.520  18.109   4.015  0.0893 -0.0735 -0.2147
33156ION     NA48287   3.603   6.870  10.165 -0.0798 -0.2440  0.0024
33157ION     NA48288  10.069   1.442  10.239 -0.0000  0.2712  0.1952
33158ION     NA48289   0.452   9.798   5.621 -0.1664 -0.0945 -0.0202
33159ION     NA48290   1.324  10.971  10.304  0.3130 -0.4824 -0.0920
33160ION     NA48291  10.754  17.238   9.571 -0.1556  0.1623 -0.0297
33161ION     NA48292  16.834   3.475   9.740 -0.1818  0.0536  0.1522
33162ION     NA48293   3.587  13.552  12.755  0.2247 -0.2307  0.1921
33163ION     NA48294   1.196   9.037   9.674  0.0530 -0.1731  0.0911
33164ION     NA48295   1.153  16.618  10.183  0.0745  0.0473 -0.2435
33165ION     NA48296  14.868   7.570  10.059 -0.0497  0.1476  0.1077
33166ION     NA48297   5.452   5.520  10.086  0.0867  0.0660  0.0640
33167ION     NA48298  17.865  16.684  10.281  0.2081 -0.1439 -0.2170
33168ION     NA48299   0.420  18.581  10.396 -0.1893  0.2651 -0.3805
33169ION     NA48300  13.070  17.132   9.725  0.0171 -0.1476  0.3771
33170ION     NA48301   7.489  17.786   4.991  0.2492  0.1868  0.1560
33171ION     NA48302   6.195  16.440  10.057 -0.2535 -0.2751  0.2463
33172ION     NA48303  16.817  15.430  10.598 -0.0762  0.2116  0.2224
33173ION     NA48304  11.942  18.480   0.279  0.4467 -0.2154  0.0246
33174ION     NA48305  18.133  13.877  13.367  0.1392  0.0766  0.2459
33175ION     NA48306   2.335  14.387  13.483 -0.1560  0.1757  0.1028
33176ION     NA48307   8.924   3.351   1.602 -0.0765 -0.0939 -0.1943
33177ION     NA48308  17.160  11.861  10.227 -0.2924  0.4229 -0.0537
33178ION     NA48309   6.382  17.542   2.922  0.2327 -0.1418  0.3828
33179ION     NA48310  18.081   5.840   9.668 -0.1068 -0.1668  0.0073
33180ION     NA48311   9.674  16.182   2.858 -0.0111  0.2620  0.2405
33181ION     NA48312  10.988  15.570   1.979  0.0010  0.3600 -0.0135
33182ION     NA48313   8.652   9.841   9.581 -0.0118  0.2289 -0.3329
33183ION     NA48314  15.942  17.884  10.000  0.1240 -0.1620 -0.0726
33184ION     NA48315  11.766   8.375   9.551  0.2197 -0.0887  0.4088
33185ION     NA48316  13.273  15.342  13.177  0.2874  0.0940  0.3225
33186ION     NA48317   7.180   8.223   0.802 -0.4170  0.0143  0.1388
33187ION     NA48318  12.367  13.863   0.682 -0.0564  0.4369 -0.0971
33188ION     NA48319   7.975   7.774   5.702  0.1978 -0.1523  0.0708
33189ION     NA48320   3.440  10.779  13.824 -0.0228 -0.0924  0.0223
33190ION     NA48321   3.633   2.849  10.576 -0.0704 -0.0356 -0.1772
33191ION     NA48322   3.363  18.001   2.346  0.3192 -0.3175 -0.0481
33192ION     NA48323  11.391   5.609   9.234 -0.1683 -0.3623 -0.0830
33193ION     NA48324  13.141   1.577  10.099  0.3236  0.0850 -0.0470
33194ION     NA48325  14.307   8.149   9.739 -0.0991 -0.1574  0.0885
33195ION     NA48326  11.267   0.851   5.982 -0.0897  0.2419  0.1739
33196ION     NA48327   2.462  10.306   5.981 -0.3346 -0.4344 -0.1983
33197ION     NA48328   1.455   4.873  10.005  0.1511 -0.1064  0.1719
33198ION     NA48329   3.308   5.293  10.003 -0.1526 -0.1683 -0.1316
33199ION     NA48330   2.930   3.434  10.285  0.3136  0.4970 -0.4639
33200ION     NA48331   3.992   2.740  14.846 -0.0645 -0.0187  0.2255
33201ION     NA48332  15.159   1.264   9.987  0.2046  0.1019 -0.0426
33202ION     NA48333   1.899  12.445   6.071  0.2574 -0.0314  0.0349
33203ION     NA48334   0.069  13.054  15.741 -0.3891  0.2147  0.0086
33204ION     NA48335  12.318   6.740   9.471  0.1061  0.1263 -0.5048
33205ION     NA48336  10.297  12.573   9.510  0.0305  0.0323  0.2375
33206ION     NA48337   7.157  17.390  10.129 -0.0337  0.1810 -0.2777
33207ION     NA48338   8.779   3.474  14.483  0.1643  0.1476 -0.3433
33208ION     NA48339  13.335  12.759   9.973 -0.2819  0.0088 -0.0681
33209ION     NA48340   6.541  10.483   5.824 -0.4075  0.0855 -0.0012
33210ION     NA48341  17.237   1.982  14.984 -0.1977  0.0064  0.1533
33211ION     NA48342  16.407   2.784   9.999  0.1458 -0.1110 -0.0281
33212ION     NA48343   0.531  11.887   5.971 -0.4123 -0.0611  0.1057
33213ION     NA48344   6.368   4.646  12.383  0.0170  0.1321  0.1423
33214ION     NA48345   6.271   4.940   6.152 -0.2184 -0.3555  0.0503
33215ION     NA48346  15.506   3.007   9.962  0.1641 -0.1482 -0.0377
33216ION     NA48347   6.567  18.298   1.931  0.1985  0.0505 -0.2269
33217ION     NA48348   8.595   8.611   9.428  0.0396 -0.1600  0.4546
33218ION     NA48349  18.535   6.816   6.004 -0.2136  0.2044  0.1247
33219ION     NA48350  12.946  17.672   0.506  0.2552  0.0315  0.2135
33220ION     NA48351  16.456  10.617   4.378  0.0590  0.5023 -0.2027
33221ION     NA48352  17.592   2.979   5.063 -0.0584  0.2033 -0.1169
33222ION     NA48353  10.797   3.117   9.994 -0.3127 -0.3392  0.2672
33223ION     NA48354  13.564   6.227   9.923  0.0179  0.2577 -0.0430
33224ION     NA48355  17.334   8.482   2.990 -0.1534 -0.1515  0.0019
33225ION     NA48356   0.426  13.811   3.614 -0.0733  0.3428 -0.2316
33226ION     NA48357  14.152   1.308  10.099 -0.0428  0.1406  0.5969
33227ION     NA48358   8.040   8.367   5.639 -0.0742  0.1629  0.0180
33228ION     NA48359   5.524  17.918  15.131  0.3034 -0.0863  0.0419
33229ION     NA48360   2.346  12.792  13.347  0.0004  0.0464 -0.2986
33230ION     NA48361   3.019  17.269  10.504 -0.3300  0.2129  0.2943
33231ION     NA48362   5.896   5.877   5.887 -0.0840 -0.1614 -0.1183
33232ION     NA48363  14.499   1.952   6.096  0.0373 -0.0103 -0.0265
33233ION     NA48364  17.372   6.177   9.669  0.0241 -0.2238 -0.1569
33234ION     NA48365  17.779   5.073   9.465  0.1789 -0.2133 -0.0668
33235ION     NA48366  17.082  17.378  14.877  0.1406 -0.0766  0.1895
33236ION     NA48367   8.010   2.151  10.384 -0.0404  0.2428 -0.1718
33237ION     NA48368   1.993   8.283   1.991  0.3379 -0.3535 -0.0127
33238ION     NA48369  11.159   8.662  10.804 -0.0777 -0.0960 -0.0890
33239ION     NA48370  13.229   8.940  13.431  0.0885 -0.0410 -0.0382
33240ION     NA48371   1.840   1.007  15.394  0.0760  0.3433 -0.1452
33241ION     NA48372   4.317  18.387  10.190 -0.2174  0.0801 -0.1312
33242ION     NA48373   0.660   6.010  13.284  0.0052 -0.0518 -0.0350
33243ION     NA48374  18.028  10.058   9.847 -0.2542  0.2186  0.1338
33244ION     NA48375  17.553   7.958  10.560 -0.0627 -0.0383 -0.4270
33245ION     NA48376   4.412  11.496   9.917  0.1566 -0.0301  0.0062
33246ION     NA48377   8.142  16.623   1.130  0.0008  0.1405 -0.0746
33247ION     NA48378   9.195  12.840   9.911  0.4461 -0.0087  0.0537
33248ION     NA48379   0.564  11.407   9.784  0.3547 -0.0115 -0.2348
33249ION     NA48380   1.876   0.132  10.592 -0.0835  0.3646 -0.2038
33250ION     NA48381   0.628  15.639  10.127  0.1209  0.0389  0.0931
33251ION     NA48382   1.808  17.422   5.833 -0.2780 -0.0862  0.0809
33252ION     NA48383   5.932  17.276   1.365  0.2028  0.1810  0.1723
33253ION     NA48384   6.249   4.468  10.233  0.0940 -0.2981  0.0292
33254ION     NA48385   3.950  10.763  10.173  0.0563  0.1964  0.0517
33255ION     NA48386   6.581   3.991   6.192 -0.1778  0.2090  0.0190
33256ION     NA48387   9.443  15.228   9.732 -0.1291 -0.3033 -0.1934
33257ION     NA48388   8.986   4.003   1.829  0.1249 -0.0939  0.1355
33258ION     NA48389   3.078   4.365   5.849  0.0327  0.0399  0.1105
33259ION     NA48390   0.382  12.601  10.081 -0.1472  0.2502  0.1730
33260ION     NA48391   4.969   1.534   0.135 -0.1288 -0.0422 -0.2895
33261ION     NA48392   9.889   0.636  10.263 -0.0926 -0.0757  0.0057
33262ION     NA48393   2.101   9.791   9.850  0.1585  0.1660 -0.0789
33263ION     NA48394  16.548  13.130   5.511 -0.0898  0.2868 -0.2369
33264ION     NA48395  11.709  10.057   9.776  0.0484  0.1979  0.1528
33265ION     NA48396  11.283   7.998   9.530  0.2973 -0.2282 -0.2618
33266ION     NA48397   9.318  17.064   5.832  0.1002  0.1806 -0.0518
33267ION     NA48398   6.465   0.037  10.338 -0.3314 -0.2878  0.0950
33268ION     NA48399  14.795  12.249  10.069 -0.1282 -0.2224  0.0185
33269ION     NA48400  17.822   4.188   9.724  0.1488  0.1409 -0.1110
33270ION     NA48401   4.475   7.403   9.905 -0.0268 -0.3626 -0.2230
33271ION     NA48402   2.776  10.303  10.189  0.0804  0.2083  0.0408
33272ION     NA48403   0.541   4.405   5.542  0.1150 -0.1056 -0.1868
33273ION     NA48404   5.479  10.835  11.596 -0.1207 -0.4507 -0.1847
33274ION     NA48405   2.182   8.714   5.468  0.0620 -0.0706 -0.0416
33275ION     NA48406  16.763   9.630   5.685  0.0101  0.0968  0.2859
33276ION     NA48407  15.195   8.274  10.133  0.0975 -0.2891 -0.0806
33277ION     NA48408  16.509  11.216  12.225  0.1759  0.2009 -0.1948
33278ION     NA48409   4.570  14.045  10.457 -0.1926 -0.3213 -0.3918
33279ION     NA48410   5.646   1.067  13.610  0.0216 -0.2485 -0.2810
33280ION     NA48411  12.703   4.882  11.856 -0.1837 -0.4082 -0.1430
33281ION     NA48412   4.093   3.353  11.307 -0.0875  0.0756  0.0981
33282ION     NA48413  16.927  11.735   6.060 -0.1396 -0.2177  0.0125
33283ION     NA48414  14.102  15.091   3.807  0.0132 -0.1824 -0.0112
33284ION     NA48415   1.865   7.751  10.016 -0.1986  0.0205  0.1222
33285ION     NA48416  16.672  12.261   5.701 -0.3701  0.0061 -0.1482
33286ION     NA48417  15.006   4.699   9.841  0.2099  0.1108  0.1636
33287ION     NA48418   1.557   6.404   2.001 -0.0761  0.0088  0.1904
33288ION     NA48419  16.408   5.296   9.877  0.2521 -0.0422 -0.3097
33289ION     NA48420   9.736   4.236  10.028  0.1798  0.1324  0.0303
33290ION     NA48421  13.285   2.945  11.461 -0.2717 -0.2000 -0.0931
33291ION     NA48422  13.940   5.837  13.748  0.1568  0.0739  0.0842
33292ION     NA48423  14.735  10.701   2.302  0.3844  0.0961 -0.0909
33293ION     NA48424  15.599   7.861   2.373  0.0272 -0.0962 -0.2454
33294ION     NA48425   3.155  12.419  10.020 -0.3596  0.2291 -0.0998
33295ION     NA48426   2.420   4.753  10.023  0.2256  0.0746 -0.2307
33296ION     NA48427   0.302  17.010  10.415  0.1496  0.3632 -0.1932
33297ION     NA48428   2.772   6.678   9.745  0.0302  0.1620 -0.0274
33298ION     NA48429  18.207  17.584   9.928 -0.1184 -0.1243  0.2858
33299ION     NA48430   6.841   5.462  10.408  0.2320  0.1861  0.0670
33300ION     NA48431  15.473  10.061  15.111 -0.1129 -0.1223  0.2408
33301ION     NA48432   3.068  11.465   0.268  0.2850  0.3806 -0.1387
33302ION     NA48433   9.057  16.132   9.671 -0.2457  0.5364 -0.3263
33303ION     NA48434  18.614   3.747   5.583  0.0100 -0.0436 -0.0217
33304ION     NA48435   2.429  15.015  10.170  0.1032  0.1455  0.3966
33305ION     NA48436   2.394  11.253  10.870  0.1466  0.0230  0.1016
33306ION     NA48437   1.085  18.281   5.672  0.3359  0.1735 -0.0999
33307ION     NA48438   9.711   2.411  15.792  0.0858 -0.2311 -0.2095
33308ION     NA48439   8.701  17.171  10.052 -0.1564  0.1377  0.2528
33309ION     NA48440   8.345   3.090  10.283  0.4975 -0.0630 -0.0693
33310ION     NA48441   4.831   7.187  12.016  0.3581 -0.0048 -0.1227
33311ION     NA48442   2.403  16.191   9.714 -0.0066 -0.2188  0.1969
33312ION     NA48443   9.576  16.174   9.541 -0.0901  0.3591 -0.0768
33313ION     NA48444  15.900  15.877   1.931 -0.2918 -0.2581 -0.1866
33314ION     NA48445  12.397  10.590  10.990 -0.0996  0.0587 -0.1565
33315ION     NA48446  11.754   1.439  10.165  0.1514 -0.0223 -0.0058
33316ION     NA48447  13.425   1.073   2.884 -0.1448  0.0553 -0.0559
33317ION     NA48448  17.953   7.258   3.605  0.1914 -0.0590 -0.0090
33318ION     NA48449   4.946  17.192  13.871  0.2437  0.3801 -0.0136
33319ION     NA48450  16.575  13.173   9.862  0.2287  0.0296  0.1998
33320ION     NA48451   7.941   8.165   0.302 -0.0999  0.2857 -0.0049
33321ION     NA48452  12.666  12.747   9.565 -0.2875  0.2984 -0.0603
33322ION     NA48453  13.313  18.280   5.912  0.1632  0.0704  0.3280
33323ION     NA48454   7.567   0.848   5.922  0.1430  0.3212 -0.2493
33324ION     NA48455  10.462  11.917  13.275  0.4946 -0.2231  0.0314
33325ION     NA48456   3.572  15.397  10.331  0.3099 -0.0574  0.1242
33326ION     NA48457   2.254  14.882   5.894 -0.4524  0.1393 -0.2044
33327ION     NA48458   6.142   3.604  10.562 -0.1282  0.0759  0.0514
33328ION     NA48459  18.010   1.150  10.551  0.1623  0.0435 -0.2968
33329ION     NA48460   4.848   9.241   9.772  0.1213 -0.3539 -0.0760
33330ION     NA48461  13.531   5.252   9.578 -0.2766  0.0274 -0.0141
33331ION     NA48462  11.949  11.520   9.443 -0.0287  0.0473 -0.2394
33332ION     NA48463  14.678   9.552  10.065 -0.0091 -0.0041  0.1214
33333ION     NA48464  15.327   9.090  10.853  0.1142  0.0991  0.3692
33334ION     NA48465   0.426  11.131   0.671  0.0786 -0.1493  0.1239
33335ION     NA48466   6.290   7.450   5.691 -0.1250  0.0744 -0.1373
33336ION     NA48467   5.224  15.373  10.347 -0.1431 -0.1885 -0.1550
33337ION     NA48468  11.880  16.114   9.653 -0.2002  0.0550 -0.0480
33338ION     NA48469   1.848   5.864  10.744  0.5151 -0.1104  0.4147
33339ION     NA48470   8.869   1.595  10.336  0.0332  0.0627  0.1120
33340ION     NA48471  11.071   7.515   3.429  0.0063 -0.2557 -0.2232
33341ION     NA48472  15.550  14.077   5.795  0.2327 -0.0039 -0.1412
33342ION     NA48473   9.154   2.709   5.475  0.2224  0.0115 -0.0949
33343ION     NA48474   6.478  16.854  10.200 -0.1672  0.1279  0.0666
33344ION     NA48475   7.795   8.336   2.153 -0.1438  0.2015 -0.3573
33345ION     NA48476  10.450  10.337   9.270 -0.1445  0.0489 -0.0951
33346ION     NA48477   4.834   3.304  10.607 -0.0073  0.1778  0.0300
33347ION     NA48478   2.468  13.006  10.321  0.3020  0.1407 -0.0791
33348ION     NA48479  15.760   4.357   3.386 -0.0521 -0.0624  0.0883
33349ION     NA48480  18.595   6.637   9.670  0.0996  0.0798 -0.1560
33350ION     NA48481  11.828   2.989   5.658  0.4007 -0.1887  0.1111
33351ION     NA48482   9.017  11.801   9.734  0.2252  0.3226 -0.1649
33352ION     NA48483   5.783   2.206  10.377  0.0337  0.2136 -0.0517
33353ION     NA48484  10.497   0.712   5.978 -0.2307 -0.1691 -0.1242
33354ION     NA48485  12.343  17.054   9.760 -0.1958  0.0907  0.1022
33355ION     NA48486  17.621  12.614   5.843 -0.2083 -0.3685  0.1934
33356ION     NA48487   4.509  15.027  10.271  0.2023  0.1765  0.1679
33357ION     NA48488   6.036   7.543  10.136  0.1887  0.2381 -0.5137
33358ION     NA48489  13.277  10.971   5.502 -0.1427 -0.1219 -0.1718
33359ION     NA48490  18.201  14.078  10.816  0.0297 -0.3134  0.1576
33360ION     NA48491  15.549   4.472  12.643 -0.2242 -0.1820  0.4494
33361ION     NA48492   2.419  16.360   1.053 -0.0841 -0.3657 -0.0046
33362ION     NA48493  16.567  13.671  10.770 -0.2079 -0.2496 -0.1184
33363ION     NA48494   7.200  16.539   9.970  0.1873  0.0774  0.0476
33364ION     NA48495   0.004   8.459   5.840 -0.2810  0.1213  0.1445
33365ION     NA48496  15.336  11.707  10.456  0.3088  0.2152 -0.3069
33366ION     NA48497   7.431   7.208   9.708 -0.0810 -0.0086 -0.3365
33367ION     NA48498  13.373  10.388   9.944 -0.0341 -0.0150  0.1393
33368ION     NA48499  10.572   7.215   9.541 -0.1819 -0.1471  0.2503
33369ION     NA48500  14.008   4.034   5.548 -0.1659  0.1593 -0.1924
33370ION     NA48501  10.709   8.563  11.438 -0.2941 -0.1329  0.2829
33371ION     NA48502  12.183  14.473   9.595  0.1817  0.2233  0.2466
33372ION     NA48503   7.809  17.703   1.494 -0.0254  0.0952  0.6321
33373ION     NA48504   8.671  16.973  13.624 -0.1316 -0.1204 -0.1188
33374ION     NA48505   1.040  10.694  15.747  0.1991  0.2421  0.1114
33375ION     NA48506  15.639   4.544   0.491 -0.2282 -0.1540  0.2283
33376ION     NA48507   1.184   3.416   0.103 -0.2209 -0.1064  0.1676
33377ION     NA48508  11.274   2.354  10.016 -0.2039 -0.3471  0.0221
33378ION     NA48509  11.488   3.116   2.869 -0.3229 -0.2483  0.0557
33379ION     NA48510   1.681  16.212  10.051 -0.0935 -0.1480  0.0115
33380ION     NA48511   9.358  11.113   9.693  0.2603  0.4837  0.0574
33381ION     NA48512   3.020  17.145   1.308 -0.1705  0.2206  0.1302
33382ION     NA48513  10.290  18.017   9.805 -0.2674 -0.1869  0.0353
33383ION     NA48514   1.837   0.625   6.323 -0.1061  0.0804  0.1112
33384ION     NA48515  14.137  13.901   5.873 -0.0531  0.2618 -0.0805
33385ION     NA48516   6.921  17.005  14.901  0.0989  0.1225 -0.0171
33386ION     NA48517   8.402  15.628   9.847  0.1304 -0.0552 -0.1190
33387ION     NA48518   3.304   1.078  13.948  0.1963  0.1504 -0.0776
33388ION     NA48519  18.313   4.100  15.624  0.1907  0.4073  0.2071
33389ION     NA48520  18.287   2.324  10.055  0.1117 -0.1776 -0.2476
33390ION     NA48521  15.512  16.832   5.787  0.1836 -0.1936 -0.2570
33391ION     NA48522  12.715   6.069   2.140 -0.1323  0.3235 -0.1510
33392ION     NA48523   0.103  14.835  10.116 -0.1488  0.1799  0.2520
33393ION     NA48524   8.049  14.518   9.922  0.0828  0.3249 -0.4120
33394ION     NA48525   7.932   5.825   9.932 -0.0113 -0.0572  0.1011
33395ION     NA48526  12.168   2.154  10.064 -0.0755 -0.1173  0.4996
33396ION     NA48527   5.888   2.264   4.961  0.2497 -0.2409 -0.2394
33397ION     NA48528   9.127  17.656   3.187 -0.2401 -0.0746  0.4071
33398ION     NA48529  13.719  15.163   9.679 -0.0140 -0.1308  0.0106
33399ION     NA48530  10.244  14.958   9.686 -0.2338 -0.1415  0.0618
33400ION     NA48531   4.486   5.180  12.793  0.3832 -0.3332  0.1288
33401ION     NA48532  16.604  16.226   3.011 -0.1537  0.3807 -0.1355
33402ION     NA48533   7.525   5.124  10.312 -0.4156  0.3777 -0.0435
33403ION     NA48534   5.524   6.755   2.536 -0.0698 -0.0472  0.0912
33404ION     NA48535  18.150   7.588  14.572  0.1170  0.0021 -0.3168
33405ION     NA48536   6.435  14.707   5.878  0.0266 -0.0875 -0.0563
33406ION     NA48537  14.293  15.555  10.098 -0.0796 -0.1053 -0.1383
33407ION     NA48538   6.910   4.635  14.060 -0.3164  0.0607  0.0600
33408ION     NA48539   8.635   8.751   2.021 -0.0363 -0.4220 -0.0020
33409ION     NA48540  15.492   1.863   5.342 -0.3839  0.0193  0.0417
33410ION     NA48541   6.074   1.423  10.498 -0.0724 -0.1323  0.3886
33411ION     NA48542   6.284   6.301  10.510  0.1945  0.1563  0.1458
33412ION     NA48543  10.416  11.374   1.700 -0.1836 -0.3039  0.3023
33413ION     NA48544  15.192   1.361   2.512 -0.2080  0.0431 -0.1049
33414ION     NA48545   1.060  16.734  12.339  0.0260  0.0427  0.1279
33415ION     NA48546   6.716   2.372  10.363  0.2976  0.1059  0.1272
33416ION     NA48547   1.100   2.368  10.187  0.2236 -0.0336  0.0700
33417ION     NA48548  17.171   8.711  13.011  0.1306 -0.1885 -0.0476
33418ION     NA48549  17.834   6.801  11.367  0.3616 -0.2197 -0.0968
33419ION     NA48550  11.268  14.376  13.650 -0.0360 -0.1576  0.0318
33420ION     NA48551  12.242   0.693  10.008 -0.1584  0.2332 -0.4161
33421ION     NA48552   7.349   1.664   0.981  0.2984  0.1438  0.4291
33422ION     NA48553   1.979  11.187   6.156  0.0946  0.1858  0.1831
33423ION     NA48554  10.593   6.044   9.549 -0.0015 -0.1290  0.0399
33424ION     NA48555  14.234  15.353   2.864  0.0640  0.0337  0.1808
33425ION     NA48556   6.273   8.235  14.664 -0.2769 -0.0888 -0.0572
33426ION     NA48557   2.209   6.134   9.788  0.0666  0.1122  0.2050
33427ION     NA48558  15.438   1.563   0.901  0.0508 -0.1077  0.4126
33428ION     NA48559  12.179  13.494   9.485 -0.2255 -0.2239 -0.0416
33429ION     NA48560  13.343  15.476   9.980  0.2019 -0.1768 -0.0429
33430ION     NA48561  14.951  11.272   9.993 -0.1449 -0.1703  0.1938
33431ION     NA48562  10.166   9.346   9.528  0.0539 -0.0145  0.0570
33432ION     NA48563   7.026   4.057  10.515  0.2214 -0.2086  0.2389
33433ION     NA48564   9.113  12.376   5.649  0.2009  0.0349  0.0507
33434ION     NA48565  14.133  18.288   5.618 -0.1128  0.0349 -0.0904
33435ION     NA48566  16.940  12.582   9.910  0.0162  0.0919 -0.0584
33436ION     NA48567   3.949   6.235   4.576  0.0174 -0.0845 -0.0923
33437ION     NA48568  15.346  16.659  11.116  0.0145  0.4135  0.1508
33438ION     NA48569   1.067  11.749  12.116  0.2391 -0.2180  0.3948
33439ION     NA48570  14.636   0.084   9.801  0.1604 -0.3165  0.0808
33440ION     NA48571  12.547  10.016   9.735 -0.1175  0.1667 -0.0211
33441ION     NA48572  11.178  17.604   9.661 -0.2785  0.1897  0.1361
33442ION     NA48573   2.092  15.342   3.470 -0.0706  0.0160  0.2389
33443ION     NA48574   7.675   5.641   5.849  0.0181 -0.0571  0.0934
33444ION     NA48575   4.393   0.069   5.733 -0.2774  0.2009 -0.0785
33445ION     NA48576   3.740  14.509  10.294  0.3247  0.1371  0.1653
33446ION     NA48577   6.650   4.890   0.166 -0.1998 -0.1340 -0.0931
33447ION     NA48578  15.205   3.628   5.947 -0.2973  0.1879 -0.1075
33448ION     NA48579   5.602  15.947  13.349 -0.0353  0.1135 -0.0862
33449ION     NA48580   8.376  10.692  15.209 -0.1237 -0.0148  0.1939
33450ION     NA48581  12.389  13.223  13.777  0.2380 -0.0027  0.0555
33451ION     NA48582   9.698   6.032  15.084  0.2320 -0.2341  0.2329
33452ION     NA48583  13.587  15.794  11.369 -0.3458  0.0656  0.0462
33453ION     NA48584   7.714  10.075   9.706  0.1704  0.1315  0.0307
33454ION     NA48585   5.671   0.005  10.374  0.3378 -0.1983 -0.0881
33455ION     NA48586   1.330  12.029   9.889  0.3000  0.0474 -0.0810
33456ION     NA48587  11.859   4.162   9.874  0.0212  0.1934 -0.0919
33457ION     NA48588  17.702   4.929   4.532  0.0161 -0.3637  0.2387
33458ION     NA48589   0.639   5.442   5.722 -0.1459  0.0759 -0.0285
33459ION     NA48590   3.652   0.868  10.582  0.0021 -0.1529  0.1099
33460ION     NA48591  18.059   8.469   0.395  0.1609 -0.0938 -0.3096
33461ION     NA48592   6.448  14.884  10.323  0.0252 -0.1037  0.7219
33462ION     NA48593   2.213  14.570   0.487 -0.4810 -0.0411  0.0673
33463ION     NA48594  13.732   2.122   9.937  0.3164  0.4956  0.2166
33464ION     NA48595  18.225   8.341   2.999 -0.1615 -0.0773 -0.1986
33465ION     NA48596  10.955   9.508   9.499  0.3795 -0.1918 -0.0702
33466ION     NA48597  14.604   6.623   9.914 -0.2727  0.0990  0.2891
33467ION     NA48598  16.578   9.655  10.057 -0.0852  0.0190 -0.2469
33468ION     NA48599  16.869   2.875   9.830  0.0299  0.1442  0.0862
33469ION     NA48600   0.822   2.761   9.870  0.1229 -0.2463  0.0273
33470ION     NA48601  16.499   9.404  13.821 -0.1899 -0.0455  0.2314
33471ION     NA48602  13.573  14.923  11.707 -0.1865 -0.1516 -0.3792
33472ION     NA48603   4.312  15.472  10.238 -0.0813 -0.1516 -0.0857
33473ION     NA48604   2.275  14.056  10.158  0.4088  0.0192 -0.1058
33474ION     NA48605   1.462   5.943   5.953  0.3003  0.1395 -0.1950
33475ION     NA48606   2.810  12.372  14.400 -0.1178  0.0895 -0.4172
33476ION     NA48607   6.549   2.027   1.057 -0.3656  0.0084 -0.0328
33477ION     NA48608  13.180  14.134  12.266  0.2884  0.0853  0.0870
33478ION     NA48609   1.029   2.644   0.926 -0.0826  0.1371 -0.2739
33479ION     NA48610   8.713   4.364  10.121  0.1455 -0.2015  0.3221
33480ION     NA48611   8.820  10.051   0.655  0.3423  0.0462  0.1872
33481ION     NA48612   6.010   3.783   2.187  0.1121 -0.0188  0.1547
33482ION     NA48613  14.711  17.096   9.854 -0.0650 -0.2243  0.0223
33483ION     NA48614   7.601   8.363   9.590 -0.1595  0.1224  0.1251
33484ION     NA48615   3.950   9.138  10.052 -0.1649  0.1181 -0.1544
33485ION     NA48616   6.259  10.968   9.695  0.0204 -0.2159 -0.2324
33486ION     NA48617   5.313   0.506  11.060  0.0263 -0.2326  0.1166
33487ION     NA48618   3.236   1.562  10.547 -0.0336  0.0284 -0.0295
33488ION     NA48619   2.997   5.450   5.845 -0.4445  0.1462 -0.1791
33489ION     NA48620   4.210   6.346   9.661 -0.2399  0.0640 -0.0110
33490ION     NA48621   6.534  13.385   5.556 -0.0049  0.0174  0.3181
33491ION     NA48622   7.899  15.463  11.526 -0.1371 -0.0150  0.1283
33492ION     NA48623   2.654   7.595  10.007  0.0296 -0.0239  0.3479
33493ION     NA48624   7.965   9.178   9.616 -0.0179 -0.5472 -0.0555
33494ION     NA48625   4.638   2.237  11.375 -0.1707  0.0426 -0.1205
33495ION     NA48626   3.311   6.124   9.946  0.0383  0.0808 -0.2526
33496ION     NA48627   2.876   8.192  11.531  0.0903 -0.0870 -0.3105
33497ION     NA48628   8.416  13.744  10.159  0.0327 -0.0815  0.0181
33498ION     NA48629  11.286   5.092  12.181  0.2776 -0.1616  0.0048
33499ION     NA48630   0.694   4.412   3.040 -0.0151  0.1999 -0.1463
33500ION     NA48631   3.128  13.925  10.110 -0.2759  0.4283  0.0852
33501ION     NA48632   6.430   9.192  14.975 -0.0720 -0.0023 -0.0601
33502ION     NA48633  10.455  10.015  13.443  0.0759 -0.1266 -0.1398
33503ION     NA48634   9.266  15.990   2.029  0.0893 -0.2707  0.0843
33504ION     NA48635  12.746   4.584   2.247  0.3134 -0.0588  0.2648
33505ION     NA48636   4.622  10.108  12.141 -0.0990  0.0913 -0.2936
33506ION     NA48637   4.474   4.662  10.199 -0.1016  0.2798  0.0057
33507ION     NA48638   7.182  14.367   9.900  0.0172  0.0758  0.1561
33508ION     NA48639  16.839  17.773  10.213  0.1153  0.5386  0.1645
33509ION     NA48640  13.428   9.280   1.161 -0.0682 -0.2255  0.3219
33510ION     NA48641   3.253  11.438  10.291 -0.6150 -0.0680 -0.1215
33511ION     NA48642  12.833  11.945   9.882  0.1061 -0.0796 -0.2124
33512ION     NA48643   3.420  17.086  11.031 -0.0484  0.1394 -0.2310
33513ION     NA48644   3.664   8.552  10.057 -0.0815 -0.0533  0.2757
33514ION     NA48645   0.101   4.246   2.507 -0.0907 -0.2366  0.0692
33515ION     NA48646  15.616  14.588   2.302  0.0563 -0.2739 -0.3444
33516ION     NA48647  18.093   3.293   9.744 -0.0656  0.1699 -0.0889
33517ION     NA48648  14.781  14.987   9.805  0.0421 -0.0647 -0.3684
33518ION     NA48649  12.802   4.723  15.113 -0.0682 -0.1140 -0.1642
33519ION     NA48650  14.367  13.545  10.286  0.2346 -0.2319 -0.0969
33520ION     NA48651   6.552  11.941   5.240  0.1843 -0.1727  0.2064
33521ION     NA48652  12.386  13.212  14.983 -0.1541  0.1196  0.2301
33522ION     NA48653  12.721   6.778   5.766 -0.0761 -0.1246  0.0143
33523ION     NA48654   4.561  13.327  10.074 -0.3178  0.0601  0.1177
33524ION     NA48655  11.113  15.235   3.865  0.1574 -0.1093 -0.2503
33525ION     NA48656   1.828  15.931   4.648  0.5185  0.3763 -0.0254
33526ION     NA48657   6.329   9.651   9.399 -0.2895  0.0075  0.0826
33527ION     NA48658  11.440  13.853   9.454 -0.0153 -0.3750  0.2468
33528ION     NA48659  14.421   3.961   9.791  0.0403  0.3888 -0.0589
33529ION     NA48660  15.196  15.723   9.991 -0.0809 -0.1473  0.0426
33530ION     NA48661  13.023   0.626   4.648  0.2225 -0.0276  0.5064
33531ION     NA48662  15.140  14.115  10.229 -0.0118 -0.0614  0.2850
33532ION     NA48663   3.373   5.963   0.429  0.0609  0.2526  0.1657
33533ION     NA48664   6.687  12.291   5.780 -0.0384  0.0120 -0.0082
33534ION     NA48665  14.139  11.344   5.309  0.3738 -0.0951  0.1936
33535ION     NA48666   7.270   9.822   9.718  0.0733  0.2196  0.1621
33536ION     NA48667  14.385  12.026   9.830  0.0949  0.1398  0.1010
33537ION     NA48668   6.656  10.636   1.064  0.0716  0.0762  0.1699
33538ION     NA48669   6.545   1.608   6.275  0.2406  0.0753  0.2375
33539ION     NA48670  15.358   0.636   9.771  0.2254 -0.3721  0.1422
33540ION     NA48671   6.791   0.764  12.113  0.0464  0.0850  0.4500
33541ION     NA48672   7.128   1.383  10.610 -0.2258 -0.2342  0.2938
33542ION     NA48673   4.929   8.239   9.682  0.2766 -0.0932  0.1680
33543ION     NA48674   5.197   6.609  10.046 -0.3634 -0.0019 -0.0128
33544ION     NA48675  18.277   6.034  15.610 -0.0256 -0.1475  0.1239
33545ION     NA48676  10.619  18.043   2.828  0.1160  0.1220 -0.2768
33546ION     NA48677   5.962   1.479  12.790 -0.0747  0.2158 -0.0557
33547ION     NA48678   0.651   1.829  10.726 -0.2596 -0.2137 -0.0793
33548ION     NA48679  14.899  10.398  10.143 -0.1680 -0.0210  0.2889
33549ION     NA48680  11.402   5.356   0.015  0.1054  0.3275 -0.1435
33550ION     NA48681   2.792   2.154   6.111 -0.2485  0.1908 -0.2680
33551ION     NA48682   2.969   5.752  12.096 -0.0644 -0.0392 -0.2690
33552ION     NA48683   2.757  16.084  10.118  0.1232  0.0436  0.0089
33553ION     NA48684  16.197  13.581   1.856 -0.0183 -0.3108  0.3512
33554ION     NA48685   4.071  11.295  15.298  0.1341 -0.1711 -0.5675
33555ION     NA48686  17.118  17.683  14.286 -0.1009  0.2900 -0.4021
33556ION     NA48687   8.074  13.058  13.256 -0.0821 -0.1255 -0.1100
33557ION     NA48688   7.475  16.116   9.953 -0.3447 -0.1036 -0.2099
33558ION     NA48689   2.438   1.608  10.433 -0.3693  0.0482 -0.0272
33559ION     NA48690   4.741   9.305   3.958  0.1323  0.2202  0.0009
33560ION     NA48691   3.208  13.419  14.300 -0.0475 -0.0696 -0.1493
33561ION     NA48692  15.602   2.884   0.406  0.1392 -0.0557 -0.1196
33562ION     NA48693  12.074   4.969   9.376  0.0712 -0.0344  0.0646
33563ION     NA48694  13.331  11.969   5.609  0.0456 -0.0371 -0.1685
33564ION     NA48695  12.457  16.687  13.514 -0.1308 -0.1990 -0.2370
33565ION     NA48696   2.661  16.175   2.296  0.0129  0.3266  0.2288
33566ION     NA48697   6.290  10.156  10.061 -0.1099  0.1252  0.1658
33567ION     NA48698  15.381  12.785   2.694 -0.1588 -0.2482  0.2347
33568ION     NA48699   4.368   9.133   2.726  0.0958 -0.3540 -0.1076
33569ION     NA48700  13.387   6.150   5.976  0.2962 -0.3106 -0.2204
33570ION     NA48701  10.152   5.185   9.656 -0.2508 -0.6666 -0.3770
33571ION     NA48702  13.723   6.725  10.760  0.0164  0.0416  0.1857
33572ION     NA48703  14.586  18.683  14.212 -0.3095 -0.0988  0.0577
33573ION     NA48704   0.943   2.241  14.771  0.0890 -0.0074  0.0644
33574ION     NA48705  17.093   7.681  10.465 -0.0338 -0.0009 -0.2102
33575ION     NA48706   5.399  17.403  10.259 -0.0358  0.0194 -0.1051
33576ION     NA48707   3.396  10.230   5.597  0.0716  0.0348 -0.1891
33577ION     NA48708  12.001   1.200   2.007 -0.1187 -0.0319 -0.0305
33578ION     NA48709   6.002  17.925  10.422 -0.0150 -0.1774 -0.0117
33579ION     NA48710   9.273   9.087   9.284 -0.0332  0.1311  0.4104
33580ION     NA48711  17.136   4.849   1.973  0.0132  0.1457  0.5107
33581ION     NA48712  10.121  13.466   9.295 -0.0014 -0.1041  0.1193
33582ION     NA48713   4.493  10.542   5.553  0.1142 -0.4706 -0.2706
33583ION     NA48714   1.636   6.920  10.114  0.0589 -0.0312  0.2494
33584ION     NA48715  14.331  17.495   9.675 -0.0273 -0.1733  0.0368
33585ION     NA48716   7.024  18.321   3.760 -0.3632  0.0877 -0.1183
33586ION     NA48717  16.912   0.211  10.800  0.1411 -0.0568  0.1951
33587ION     NA48718   0.338   9.108  15.504 -0.0083 -0.0336  0.1571
33588ION     NA48719  18.184  15.549  14.195 -0.2670 -0.2234 -0.2378
33589ION     NA48720   0.498   6.167   9.712 -0.3566  0.0061 -0.1876
33590ION     NA48721  14.085  14.206   9.978  0.0759 -0.4235  0.0101
33591ION     NA48722   6.076   0.915  11.390 -0.0704 -0.0350  0.1496
33592ION     NA48723  16.253  10.570  10.103  0.0010 -0.0858  0.1252
33593ION     NA48724  17.771   1.445  10.072  0.0682 -0.1165  0.0082
33594ION     NA48725  14.854  12.733  10.103 -0.0473 -0.3107  0.1258
33595ION     NA48726   5.759  15.190   6.174 -0.5323  0.4351 -0.2768
33596ION     NA48727   4.870  11.072   1.365  0.1901  0.1434  0.0674
33597ION     NA48728  16.954   1.813   3.458 -0.1195 -0.1148 -0.1326
33598ION     NA48729   9.715   0.537   1.826 -0.2184  0.0447 -0.1977
33599ION     NA48730  15.744   7.892   5.303  0.3313  0.0107 -0.0388
33600ION     NA48731   5.180  18.367  10.290  0.2384 -0.0205 -0.2982
33601ION     NA48732   1.996  10.041  13.523  0.2113 -0.2220  0.2051
33602ION     NA48733   9.119   3.206   5.234 -0.1278  0.0824 -0.0903
33603ION     NA48734  14.023  13.491  15.270 -0.4234 -0.0588 -0.1181
33604ION     NA48735   9.826   6.560   9.626 -0.3125  0.0740 -0.0196
33605ION     NA48736  13.822   5.181   2.262  0.3427 -0.0415  0.2240
33606ION     NA48737   1.216  17.304   5.803 -0.1298  0.2097  0.0613
33607ION     NA48738  13.668   5.503  10.391  0.0352 -0.0136  0.0271
33608ION     NA48739   4.596   6.018   2.038  0.1406 -0.2217  0.0565
33609ION     NA48740  16.085   5.695  10.157  0.4077 -0.0035  0.1626
33610ION     NA48741   4.415   8.247   3.176  0.2438  0.0569 -0.2989
33611ION     NA48742  12.467  17.905   9.995  0.2842 -0.0720  0.0038
33612ION     NA48743   9.072  11.036  13.422 -0.1265  0.2566 -0.1273
33613ION     NA48744  17.747  17.480  10.080 -0.0534  0.0152  0.4476
33614ION     NA48745   5.543   2.473   6.098 -0.1531 -0.2306 -0.0041
33615ION     NA48746   9.044  15.676   2.762  0.2256 -0.0507 -0.1695
33616ION     NA48747  13.725  18.631   9.874  0.0353 -0.2908 -0.3390
33617ION     NA48748   8.464  17.861  10.265  0.1332  0.0229  0.0458
33618ION     NA48749   8.311   0.017  10.457  0.0111  0.3284 -0.6544
33619ION     NA48750  17.009  18.522   9.888  0.1783 -0.2634  0.1108
33620ION     NA48751   4.338   2.135  10.391  0.3234  0.4159  0.0993
33621ION     NA48752   6.497   6.327  10.026  0.0255 -0.0366  0.0521
33622ION     NA48753  17.574  14.866  10.365 -0.3143  0.2825  0.2203
33623ION     NA48754  13.297   7.072   9.676  0.1081  0.3000 -0.0969
33624ION     NA48755  12.684  18.677   9.794  0.2622  0.1716  0.2785
33625ION     NA48756   4.232  16.358  10.056 -0.5001 -0.1498 -0.1109
33626ION     NA48757   9.625   2.444  11.828  0.1448 -0.2007 -0.2318
33627ION     NA48758   0.246   3.635   9.800 -0.1913  0.1789 -0.2331
33628ION     NA48759   2.660   4.543  15.098 -0.1329  0.0285 -0.1779
33629ION     NA48760  12.684  15.878   9.628 -0.0239  0.1406  0.0473
33630ION     NA48761   0.029   4.158   9.726  0.1584 -0.3064 -0.1641
33631ION     NA48762  14.503  17.363  11.676 -0.0083  0.2204  0.0018
33632ION     NA48763  15.548   7.955  15.732 -0.0189 -0.0646  0.0306
33633ION     NA48764   1.694   8.980   9.875  0.2375  0.2903  0.1539
33634ION     NA48765   4.732   9.170  12.038  0.3697  0.1774 -0.1295
33635ION     NA48766   6.991   9.176   2.376  0.2358 -0.2881  0.0437
33636ION     NA48767  17.127   6.935   2.004  0.2694 -0.0605 -0.1162
33637ION     NA48768  16.103  12.278   5.916 -0.0272  0.0262  0.1161
33638ION     NA48769  11.793   6.072   9.289 -0.2801 -0.1899  0.1128
33639ION     NA48770   0.511   9.545  12.769 -0.0157  0.0211  0.1024
33640ION     NA48771   8.327  16.459  10.118 -0.0497 -0.2723  0.2990
33641ION     NA48772   8.125  10.011   5.383  0.1168 -0.3554  0.0662
33642ION     NA48773  18.345  11.471   0.060 -0.0260 -0.1611 -0.0459
33643ION     NA48774  11.362   6.472   5.386 -0.0659  0.1092  0.0739
33644ION     NA48775  10.909   1.075   5.375 -0.1622 -0.0079  0.2018
33645ION     NA48776  17.628  15.942  14.776 -0.1584  0.3282 -0.1803
33646ION     NA48777  18.362  18.430   9.920 -0.1477  0.0735  0.1261
33647ION     NA48778   4.656  17.631  10.071  0.0597 -0.0529  0.0555
33648ION     NA48779   9.659   8.259   9.555 -0.1318  0.1617 -0.2978
33649ION     NA48780  17.487   9.951   9.791  0.1263  0.1402  0.4604
33650ION     NA48781   0.233   8.916   9.684  0.1386  0.0610  0.1059
33651ION     NA48782  14.085   3.475   9.952  0.1505 -0.3133 -0.3052
33652ION     NA48783  17.032   3.818   5.147  0.1257  0.2132 -0.2451
33653ION     NA48784  11.188  13.401   9.534  0.1766  0.1532 -0.1950
33654ION     NA48785   3.781  10.704  11.648 -0.3898  0.0123 -0.1100
33655ION     NA48786   9.496  17.057   9.753 -0.0394  0.0657 -0.2656
33656ION     NA48787   9.544  14.927  11.624 -0.0492 -0.3440 -0.1819
33657ION     NA48788  17.727  11.233   9.993 -0.2292  0.1574  0.4337
33658ION     NA48789   2.787  15.524  10.983  0.2372 -0.2500  0.2853
33659ION     NA48790   1.493   4.988   4.292 -0.1889 -0.2627  0.1820
33660ION     NA48791  10.937  18.546   9.984  0.2888  0.1232 -0.4668
33661ION     NA48792  11.469   6.645   9.543 -0.0888  0.0747  0.1487
33662ION     NA48793  15.745   6.965   5.531  0.0869  0.1273 -0.3789
33663ION     NA48794  13.668  12.174  14.028  0.0405 -0.0196  0.2970
33664ION     NA48795  16.993  13.785   5.998 -0.3222  0.2438 -0.1560
33665ION     NA48796  11.462  10.076  12.346 -0.2293 -0.0783  0.1724
33666ION     NA48797  14.550  15.950   5.069  0.2554  0.3572 -0.2487
33667ION     NA48798   9.660   9.948   9.379  0.0901 -0.3365 -0.0716
33668ION     NA48799  17.772   2.756   9.952  0.1343  0.0524  0.2768
33669ION     NA48800  13.867   9.038   9.843 -0.2615  0.3721 -0.3452
33670ION     NA48801   8.362   1.588  12.118  0.2009  0.1073 -0.0120
33671ION     NA48802   1.570  13.308  10.150 -0.0938  0.0624  0.1476
33672ION     NA48803   2.832  18.561  14.958 -0.0772  0.3392  0.2749
33673ION     NA48804   9.446  17.897   9.952 -0.0371 -0.0755  0.4316
33674ION     NA48805   0.546   1.389   3.387  0.0316  0.0388  0.0396
33675ION     NA48806   9.884  11.733  10.221 -0.1871  0.1181 -0.0703
33676ION     NA48807   5.257  12.621  10.031  0.0125 -0.0562 -0.3830
33677ION     NA48808   1.151  10.085   9.731 -0.1553 -0.3397  0.3209
33678ION     NA48809   0.237  13.745  15.267 -0.0804  0.5095 -0.0273
33679ION     NA48810   2.344   9.333   2.632  0.3004 -0.4139  0.1060
33680ION     NA48811   0.241   0.008   9.922 -0.0582 -0.0147  0.1172
33681ION     NA48812   0.781   9.352  10.121  0.1595 -0.1970 -0.1746
33682ION     NA48813   2.092   3.930  10.109  0.0136 -0.0716  0.2281
33683ION     NA48814   7.957   3.684  10.382 -0.3384  0.1608 -0.3844
33684ION     NA48815  18.151   5.511  14.853 -0.3034  0.1054 -0.2188
33685ION     NA48816  16.755   1.351   9.999  0.1831  0.0140  0.2414
33686ION     NA48817  13.094  14.459   9.837  0.4349 -0.4409  0.3793
33687ION     NA48818  15.078  17.971   9.602  0.2146  0.4775 -0.0474
33688ION     NA48819   5.312   4.237  10.384 -0.4846 -0.1582  0.2998
33689ION     NA48820  14.354   6.008   4.683 -0.1018 -0.1940  0.1055
33690ION     NA48821  12.160   8.122   9.470 -0.1742  0.0929 -0.4225
33691ION     NA48822  13.352  18.051   9.609  0.2816  0.0163  0.1183
33692ION     NA48823  12.239   9.295   3.624 -0.2011 -0.1462  0.1699
33693ION     NA48824  12.163   7.524   9.698  0.1674 -0.1127  0.4383
33694ION     NA48825   2.730  18.274  10.339 -0.0939 -0.2255 -0.0244
33695ION     NA48826   7.134  13.009   1.143  0.1386  0.0568  0.0928
33696ION     NA48827   6.405   7.723   4.003 -0.4316  0.0968 -0.2155
33697ION     NA48828  15.816  16.188  10.377  0.1331 -0.2107 -0.1964
33698ION     NA48829  12.674   5.109  14.680 -0.2448  0.0916  0.1377
33699ION     NA48830   9.484  13.688   9.865 -0.0205  0.0368 -0.4457
33700ION     NA48831  11.723  12.486   9.605  0.5141 -0.3497 -0.1052
33701ION     NA48832   8.412  12.202   9.764  0.1364  0.0755  0.1490
33702ION     NA48833  15.493   4.922   9.838  0.3369  0.0406 -0.3382
33703ION     NA48834  17.104  15.725   5.736 -0.4331 -0.1816 -0.1794
33704ION     NA48835   2.633   0.856  10.445  0.0828  0.4191  0.1002
33705ION     NA48836  16.155   0.007   9.701  0.0321 -0.0023  0.1184
33706ION     NA48837  10.336   7.535   1.758  0.2018  0.3261  0.1937
33707ION     NA48838  11.785  10.571   5.274 -0.0072  0.2711 -0.0332
33708ION     NA48839   7.744  13.732   4.217  0.2325  0.0852 -0.5457
33709ION     NA48840  11.167   4.403   9.554  0.0631 -0.5317 -0.3680
33710ION     NA48841   7.325   8.842   4.659 -0.2228 -0.0118 -0.0686
33711ION     NA48842   9.865   5.288   5.281 -0.0787 -0.0009 -0.2128
33712ION     NA48843   8.827  10.644   4.788  0.2063 -0.1284  0.0921
33713ION     NA48844  17.033   9.594   2.168  0.1097  0.0674 -0.0023
33714ION     NA48845  17.126   9.305  10.138  0.0998  0.5111  0.1259
33715ION     NA48846   3.400   5.086   1.849  0.0262  0.2099 -0.1311
33716ION     NA48847  16.302  17.429   5.669 -0.0148 -0.0399 -0.3075
33717ION     NA48848   0.972   8.319   9.868 -0.2350 -0.1999  0.0824
33718ION     NA48849   6.873  12.052  10.240 -0.1803  0.3921  0.0135
33719ION     NA48850  15.420  15.757  11.806 -0.1018 -0.0275 -0.0632
33720ION     NA48851   4.008  18.678  11.002 -0.1324  0.1411 -0.3006
33721ION     NA48852  18.160  15.547  10.126  0.2017  0.3163  0.5785
33722ION     NA48853  16.332  18.265  15.302 -0.0368 -0.1854  0.0832
33723ION     NA48854   6.757  12.029  11.782 -0.0975  0.2649  0.2018
33724ION     NA48855   5.296  16.452  10.430 -0.0532  0.2441  0.1863
33725ION     NA48856   3.291   0.976   1.977 -0.1051 -0.2431  0.0503
33726ION     NA48857   7.872  15.181   4.751  0.2025 -0.1450 -0.1728
33727ION     NA48858  13.575  17.795  11.840  0.0204  0.0981 -0.0284
33728ION     NA48859   2.444  16.106  15.445 -0.2893 -0.0580 -0.1437
33729ION     NA48860   5.645  13.451   9.995 -0.0278 -0.3199  0.1970
33730ION     NA48861  12.411   9.784  10.181 -0.2362 -0.4875  0.0061
33731ION     NA48862   3.457  16.225  11.364 -0.1368 -0.0563  0.0192
33732ION     NA48863   5.749  10.983   9.788  0.1669  0.0920 -0.1345
33733ION     NA48864   1.707  11.569   5.102 -0.4024 -0.4277 -0.2082
33734ION     NA48865  10.399   7.844   9.593  0.1991  0.3233  0.1291
33735ION     NA48866  14.502   2.809   9.889 -0.0287 -0.0551 -0.1335
33736ION     NA48867   1.051   3.754  10.226  0.1277  0.2990 -0.1483
33737ION     NA48868  12.671   1.418  10.129  0.1089 -0.4014 -0.0290
33738ION     NA48869   7.440   1.366   5.488 -0.3631 -0.1832  0.1058
33739ION     NA48870   1.362  15.021   5.233  0.1483  0.0165 -0.3164
33740ION     NA48871  17.453   3.864  15.745  0.0548  0.1504  0.0177
33741ION     NA48872   4.122   5.598   9.929 -0.0955  0.0404 -0.0852
33742ION     NA48873   7.538  15.304   9.986 -0.0402  0.1477 -0.1966
33743ION     NA48874  15.908   7.602  10.207 -0.3345 -0.1369 -0.1542
33744ION     NA48875   5.980  11.832  10.141  0.2536 -0.3378 -0.1356
33745ION     NA48876   0.971   2.240   5.702 -0.0405 -0.3077  0.1335
33746ION     NA48877  14.192   7.156   0.505  0.0973  0.0409  0.0858
33747ION     NA48878   2.914   8.321  15.308  0.0861  0.0027 -0.2085
33748ION     NA48879  16.359  10.377  13.240  0.0642  0.1535  0.1535
33749ION     NA48880   3.408  15.569  13.249  0.1778  0.2272  0.0337
33750ION     NA48881   0.280   9.916   9.912 -0.2325  0.2205 -0.0745
33751ION     NA48882   5.007   5.776   9.892  0.1575  0.4111 -0.0219
33752ION     NA48883   1.427   7.170   2.792  0.1315 -0.1907  0.0604
33753ION     NA48884  17.917   9.081   3.526 -0.0812 -0.2631  0.2170
33754ION     NA48885   8.752   6.334   9.794 -0.0423 -0.0330  0.0248
33755ION     NA48886  17.994   9.448  13.223 -0.0391 -0.1702 -0.3667
33756ION     NA48887  10.882   0.517  15.454  0.0810  0.2707  0.0961
33757ION     NA48888   5.528   3.792  10.471 -0.0838  0.0501 -0.0119
33758ION     NA48889  12.355   3.354  10.026  0.2797 -0.3963  0.2900
33759ION     NA48890  15.958  16.163   4.942 -0.0619 -0.0652  0.2324
33760ION     NA48891   6.911   5.539   6.043  0.0377  0.2848 -0.2017
33761ION     NA48892   7.115  11.228   9.779  0.1142 -0.0635  0.1302
33762ION     NA48893  18.595   1.788  10.169  0.0466  0.1218 -0.1453
33763ION     NA48894  14.278   5.265   5.940  0.0836  0.1060  0.1643
33764ION     NA48895  16.314   4.038   5.616 -0.2519 -0.0192  0.1776
33765ION     NA48896   6.064  10.913  12.674 -0.2561 -0.0015  0.0742
33766ION     NA48897  17.156  10.353   9.895 -0.1831 -0.1007 -0.0322
33767ION     NA48898   3.098  12.508   5.806 -0.1146 -0.0282  0.0628
33768ION     NA48899   8.618   9.051  11.172 -0.2157  0.3284 -0.0886
33769ION     NA48900  10.250   3.759  10.062  0.1098  0.0065  0.2579
33770ION     NA48901   0.918   3.067   5.513 -0.2392  0.0351  0.0513
33771ION     NA48902   3.135  16.943  10.003  0.2371 -0.2837 -0.1344
33772ION     NA48903   5.573   2.886  10.497 -0.0738  0.1794 -0.2473
33773ION     NA48904  15.231  11.079  12.002  0.0652  0.0242 -0.1289
33774ION     NA48905   4.303  10.537   2.825 -0.2564  0.1458 -0.1504
33775ION     NA48906   2.999   0.731  12.745 -0.1565 -0.0718  0.0312
33776ION     NA48907  16.489  16.077   5.265 -0.0648  0.1626 -0.3490
33777ION     NA48908  11.154  14.856   9.587 -0.1384  0.0386  0.1061
33778ION     NA48909  17.778   0.358  10.069 -0.0637 -0.0151 -0.1027
33779ION     NA48910  10.901  11.961   9.663  0.1018  0.1109 -0.1943
33780ION     NA48911  17.717   1.141   1.930  0.3101  0.0992 -0.1448
33781ION     NA48912   6.486  13.377   3.639  0.0693  0.0862 -0.2657
33782ION     NA48913   0.026   0.728  10.176  0.3026 -0.2584  0.4792
33783ION     NA48914  18.017   4.369   5.473  0.0456 -0.1939 -0.0271
33784ION     NA48915   9.434   0.796  10.741  0.1294 -0.2388 -0.1421
33785ION     NA48916   8.439   7.042   2.865 -0.3475 -0.2905 -0.2017
33786ION     NA48917   8.615   9.088  10.208 -0.0991  0.0254 -0.3303
33787ION     NA48918   5.901   7.646   5.463  0.2069 -0.1418 -0.2703
33788ION     NA48919   2.520   5.760   9.989  0.1436  0.0272  0.1347
33789ION     NA48920   9.968  18.510   5.673  0.1311 -0.1520 -0.0380
33790ION     NA48921  16.592   9.229   4.848  0.1546  0.1403  0.2284
33791ION     NA48922   8.120  10.826  11.008  0.1023 -0.1450 -0.1779
33792ION     NA48923  12.292   2.039   4.573 -0.1417 -0.1990 -0.2366
33793ION     NA48924  10.518  15.787   9.435  0.1716  0.0107  0.1594
33794ION     NA48925   4.449   4.244   5.172  0.1452  0.2710  0.2661
33795ION     NA48926   6.559   6.127  14.709  0.0697  0.2264  0.0759
33796ION     NA48927  11.309   0.790  10.019 -0.0319 -0.0521 -0.0901
33797ION     NA48928   5.213  18.525  13.194 -0.0728 -0.4360 -0.0025
33798ION     NA48929   4.604   9.591  10.018  0.1783 -0.2259  0.1187
33799ION     NA48930  16.839   6.327  10.394 -0.2767 -0.0238  0.0372
33800ION     NA48931   9.394   5.999   5.609  0.4862 -0.1181 -0.0209
33801ION     NA48932   7.558  18.324  10.326 -0.1433 -0.2078 -0.1077
33802ION     NA48933  12.901   6.995   0.702  0.2518 -0.2082 -0.0341
33803ION     CL48934   5.790  18.104   3.424 -0.1114  0.1304  0.0597
33804ION     CL48935   5.484   2.272   5.425  0.1040  0.3532 -0.0314
33805ION     CL48936   3.167   3.981   5.295 -0.1896 -0.0351  0.0293
33806ION     CL48937  13.323   3.227  12.014 -0.0186 -0.0942  0.1404
33807ION     CL48938  13.162   4.329   2.305  0.1793 -0.1469  0.0460
33808ION     CL48939   6.533   0.758  11.606 -0.1850 -0.2699 -0.3619
33809ION     CL48940  18.128   7.724  14.095  0.5092 -0.0421 -0.1777
33810ION     CL48941   0.416  13.481  14.916  0.0003  0.2991 -0.2691
33811ION     CL48942   3.746  17.029   4.922 -0.0243  0.3509 -0.1143
33812ION     CL48943  14.010  18.028  12.020  0.1266 -0.0443 -0.1031
33813ION     CL48944   2.703  18.548  15.444  0.0808 -0.0113 -0.1909
33814ION     CL48945   2.153  15.704   3.026 -0.0301 -0.0692  0.2889
33815ION     CL48946   6.854   9.268   0.456 -0.2033  0.0557 -0.0062
33816ION     CL48947  14.685  11.234   2.202 -0.0622 -0.1180 -0.2065
  18.72751  18.72751  15.80645
