INSANE! Membrane UpperLeaflet>loPI:POPI:DPPI:PYPI:ERGO=20.0:5.0:3.0:2.0:10.0 LowerLeaflet>PSPI:POPI:POPS:YOPS:POPE:YOPE:POPC:YOPC:ERGO=6.0:14.0:21.0:9.0:9.0:21.0:12.0:48.0:60.0
48947
    1loPI    C1    1   0.832   1.817  10.858  0.0673 -0.0320  0.0687
    1loPI    C2    2   1.138   1.585  10.968  0.0149 -0.1543 -0.0403
    1loPI    C3    3   1.100   1.952  11.123  0.2654 -0.1039 -0.0926
    1loPI   PO4    4   0.776   1.784  10.656  0.2640 -0.3612 -0.2824
    1loPI   GL1    5   0.444   1.701  10.339 -0.2191  0.2715  0.0412
    1loPI   GL2    6   0.747   1.755  10.128  0.3455 -0.2250 -0.1591
    1loPI   C1A    7   0.270   1.664   9.923  0.2372 -0.2312 -0.0593
    1loPI   C2A    8   0.239   1.587   9.422 -0.0021 -0.1133 -0.5874
    1loPI   C3A    9   0.181   1.531   9.066  0.2256  0.1122 -0.1607
    1loPI   C4A   10   0.304   1.297   8.732 -0.0785 -0.1793 -0.0834
    1loPI   C5A   11   0.345   1.230   8.296 -0.0841  0.0276 -0.2204
    1loPI   C6A   12   0.645   1.281   7.941 -0.3297  0.3143 -0.0949
    1loPI   C1B   13   0.792   1.773   9.693  0.0098 -0.1086 -0.4040
    1loPI   C2B   14   0.749   1.659   9.249  0.2067  0.0249 -0.1006
    1loPI   C3B   15   0.808   1.434   8.882  0.1335 -0.1978  0.1477
    1loPI   C4B   16   0.871   1.408   8.398  0.0542  0.0411  0.0252
    2loPI    C1   17   5.017   3.695  10.762  0.0474  0.0935  0.2282
    2loPI    C2   18   4.926   4.079  10.701 -0.1443  0.0442  0.1977
    2loPI    C3   19   5.220   3.981  10.954 -0.0295  0.2135  0.1317
    2loPI   PO4   20   5.007   3.583  10.496  0.0924  0.0248 -0.0557
    2loPI   GL1   21   5.376   3.508  10.178 -0.1714 -0.0876  0.1099
    2loPI   GL2   22   5.064   3.597   9.986  0.3990  0.3240 -0.2333
    2loPI   C1A   23   5.510   3.477   9.819 -0.0522 -0.3089  0.2033
    2loPI   C2A   24   5.543   3.570   9.435 -0.0051  0.1499  0.0793
    2loPI   C3A   25   5.568   3.645   8.994  0.3293 -0.3159 -0.3025
    2loPI   C4A   26   5.562   3.638   8.518  0.0910 -0.0636  0.0012
    2loPI   C5A   27   5.711   3.800   8.074  0.1505 -0.0633  0.0293
    2loPI   C6A   28   5.928   3.591   7.695  0.1681  0.1138 -0.2234
    2loPI   C1B   29   5.079   3.674   9.544 -0.0517  0.0907  0.2236
    2loPI   C2B   30   5.036   3.603   9.157 -0.0139  0.5331 -0.0664
    2loPI   C3B   31   4.913   3.569   8.698  0.0974  0.0638 -0.2197
    2loPI   C4B   32   4.982   3.288   8.354  0.1812  0.0496  0.1718
    3loPI    C1   33  15.734  15.811  10.992  0.3214 -0.2285 -0.2145
    3loPI    C2   34  15.669  15.619  10.647  0.1021 -0.0231 -0.2896
    3loPI    C3   35  15.695  15.413  10.989  0.0495 -0.2030 -0.3930
    3loPI   PO4   36  15.740  16.079  10.864  0.0276 -0.3032  0.0514
    3loPI   GL1   37  15.551  16.127  10.552  0.0176 -0.1644 -0.1514
    3loPI   GL2   38  15.429  16.446  10.346  0.3350 -0.1431 -0.0980
    3loPI   C1A   39  15.452  15.956  10.156 -0.0224 -0.1133  0.2347
    3loPI   C2A   40  15.549  15.866   9.695 -0.2509 -0.0276 -0.0113
    3loPI   C3A   41  15.506  15.932   9.217 -0.0055  0.0511  0.0470
    3loPI   C4A   42  15.454  15.960   8.861 -0.0034 -0.0777 -0.3787
    3loPI   C5A   43  15.362  15.703   8.546 -0.0770 -0.0666  0.0855
    3loPI   C6A   44  15.741  15.535   8.278 -0.3763 -0.2052  0.1928
    3loPI   C1B   45  15.385  16.444   9.986  0.2664 -0.0131 -0.0821
    3loPI   C2B   46  15.436  16.368   9.525  0.2336 -0.0927  0.0276
    3loPI   C3B   47  15.359  16.411   9.122 -0.3092 -0.1976 -0.0805
    3loPI   C4B   48  15.237  16.382   8.717 -0.1104 -0.1651  0.1133
    4loPI    C1   49  13.947   1.273  10.715  0.1552 -0.0472 -0.1615
    4loPI    C2   50  13.994   1.531  10.412 -0.1897  0.0563 -0.1309
    4loPI    C3   51  13.679   1.564  10.656  0.0567 -0.0586  0.2101
    4loPI   PO4   52  14.071   1.048  10.564 -0.0191  0.1340 -0.1297
    4loPI   GL1   53  14.084   1.049  10.193 -0.1605 -0.2559  0.1269
    4loPI   GL2   54  13.939   1.293   9.941 -0.2651 -0.1013 -0.1369
    4loPI   C1A   55  14.142   0.866   9.865 -0.1171 -0.0499 -0.0993
    4loPI   C2A   56  14.126   0.806   9.453  0.0269  0.3452  0.1511
    4loPI   C3A   57  14.150   0.753   9.051  0.2376  0.3425  0.0445
    4loPI   C4A   58  14.302   0.854   8.701 -0.1444  0.0502  0.0748
    4loPI   C5A   59  14.146   0.832   8.326  0.2333  0.0881 -0.0278
    4loPI   C6A   60  14.007   1.096   7.974 -0.1744  0.1544  0.0503
    4loPI   C1B   61  13.973   1.248   9.485 -0.2292  0.2668 -0.1153
    4loPI   C2B   62  13.967   1.217   8.975  0.1399 -0.1519 -0.0644
    4loPI   C3B   63  13.877   1.249   8.510  0.2460  0.0742 -0.1338
    4loPI   C4B   64  13.619   0.984   8.317  0.1392 -0.2801 -0.1219
    5loPI    C1   65   2.632  12.534  11.022 -0.1056 -0.0385  0.0580
    5loPI    C2   66   2.619  12.870  11.239  0.0592  0.0695 -0.0967
    5loPI    C3   67   2.962  12.757  11.066 -0.0253 -0.1144 -0.1458
    5loPI   PO4   68   2.374  12.539  10.864 -0.0876 -0.2224  0.0184
    5loPI   GL1   69   2.270  12.470  10.458  0.2060  0.0007  0.0761
    5loPI   GL2   70   2.589  12.227  10.458  0.0829 -0.1887  0.1724
    5loPI   C1A   71   2.316  12.531   9.966  0.1234 -0.1310  0.0350
    5loPI   C2A   72   2.294  12.595   9.482 -0.4631  0.1987 -0.0432
    5loPI   C3A   73   2.286  12.619   9.036  0.0907  0.1093 -0.1836
    5loPI   C4A   74   2.231  12.818   8.587 -0.0483  0.4122 -0.3239
    5loPI   C5A   75   2.032  13.046   8.388  0.0894 -0.1307 -0.1891
    5loPI   C6A   76   1.698  13.393   8.573  0.1008  0.2662  0.1547
    5loPI   C1B   77   2.752  12.339  10.105 -0.0657  0.1429 -0.2938
    5loPI   C2B   78   2.753  12.507   9.649 -0.1477  0.3092 -0.0075
    5loPI   C3B   79   2.855  12.515   9.211 -0.1593 -0.1158  0.2166
    5loPI   C4B   80   2.688  12.411   8.806 -0.0089 -0.2348  0.3136
    6loPI    C1   81  14.492   7.582  10.467 -0.1633  0.0957  0.1992
    6loPI    C2   82  14.744   7.735  10.737 -0.2036  0.2799  0.1342
    6loPI    C3   83  14.468   7.468  10.849  0.0653  0.0206  0.1924
    6loPI   PO4   84  14.675   7.396  10.302 -0.1486 -0.1919 -0.2860
    6loPI   GL1   85  15.014   7.459  10.042  0.0565 -0.1479 -0.0522
    6loPI   GL2   86  15.345   7.594   9.983  0.2146 -0.0625 -0.1987
    6loPI   C1A   87  14.899   7.363   9.682  0.1382 -0.2242  0.0724
    6loPI   C2A   88  14.867   7.331   9.323 -0.3773  0.2653  0.1852
    6loPI   C3A   89  14.896   7.288   8.946  0.2816 -0.2443 -0.0431
    6loPI   C4A   90  14.875   7.415   8.437  0.0404 -0.1134  0.0056
    6loPI   C5A   91  14.529   7.313   8.149 -0.0805 -0.0863 -0.2846
    6loPI   C6A   92  14.275   7.487   7.856  0.0884  0.4164 -0.0240
    6loPI   C1B   93  15.343   7.488   9.499 -0.2087 -0.1647  0.0082
    6loPI   C2B   94  15.301   7.478   9.093  0.1950 -0.1634 -0.1374
    6loPI   C3B   95  15.265   7.546   8.682 -0.1358  0.4409  0.2579
    6loPI   C4B   96  15.319   7.758   8.231  0.0220 -0.0897  0.0468
    7loPI    C1   97  13.132   6.721  10.707 -0.1288  0.1285 -0.0165
    7loPI    C2   98  12.960   6.482  10.977 -0.0815 -0.0115 -0.1088
    7loPI    C3   99  13.274   6.707  11.081 -0.0766 -0.0486 -0.0417
    7loPI   PO4  100  12.863   6.776  10.555 -0.2216 -0.1446  0.0023
    7loPI   GL1  101  12.692   6.786  10.135  0.2913  0.0448 -0.1977
    7loPI   GL2  102  12.815   6.439  10.108  0.0864 -0.1829  0.1984
    7loPI   C1A  103  12.868   6.870   9.684  0.0429 -0.2390  0.0138
    7loPI   C2A  104  12.764   6.653   9.246  0.1210  0.0436 -0.3707
    7loPI   C3A  105  12.921   6.782   8.803  0.0828  0.0175  0.0329
    7loPI   C4A  106  13.126   6.824   8.324  0.2481 -0.0367 -0.2370
    7loPI   C5A  107  13.215   7.001   7.996  0.1034 -0.1558  0.1296
    7loPI   C6A  108  13.392   7.345   7.865  0.0858 -0.2395  0.0140
    7loPI   C1B  109  12.500   6.508   9.812  0.1693  0.0638  0.1937
    7loPI   C2B  110  12.231   6.620   9.403  0.2156  0.1029 -0.4573
    7loPI   C3B  111  12.366   6.546   8.963 -0.0905  0.1475  0.6731
    7loPI   C4B  112  12.427   6.737   8.541  0.5443  0.0756 -0.1623
    8loPI    C1  113  13.195   4.140  10.601  0.1391  0.0002  0.3005
    8loPI    C2  114  13.280   4.257  10.974  0.1532  0.3742  0.1835
    8loPI    C3  115  13.203   4.530  10.691  0.0998  0.0924 -0.0785
    8loPI   PO4  116  13.156   3.899  10.473 -0.1744  0.0741  0.0595
    8loPI   GL1  117  13.187   3.820  10.064  0.0864 -0.0278  0.0183
    8loPI   GL2  118  13.446   3.849   9.810 -0.0470  0.2750 -0.0355
    8loPI   C1A  119  12.949   3.978   9.751  0.0419  0.0793  0.0495
    8loPI   C2A  120  12.739   3.840   9.364 -0.2221 -0.0383 -0.2240
    8loPI   C3A  121  12.729   3.845   8.882 -0.1669  0.0359  0.1340
    8loPI   C4A  122  12.689   3.777   8.506  0.0636 -0.1098  0.1209
    8loPI   C5A  123  12.631   3.849   8.096  0.0354 -0.1000  0.2746
    8loPI   C6A  124  12.854   3.919   7.713 -0.0263 -0.1933  0.2332
    8loPI   C1B  125  13.382   4.007   9.409 -0.2667  0.1286 -0.0534
    8loPI   C2B  126  13.212   3.936   9.018 -0.0742 -0.0955  0.1757
    8loPI   C3B  127  13.197   4.069   8.637 -0.0250  0.0731  0.2607
    8loPI   C4B  128  13.540   4.147   8.313  0.3634  0.0154  0.0384
    9loPI    C1  129   8.052  11.307  10.737  0.0141 -0.0294 -0.0108
    9loPI    C2  130   8.164  11.492  11.073  0.0056  0.1135 -0.0858
    9loPI    C3  131   8.423  11.452  10.771  0.0436 -0.1009 -0.0267
    9loPI   PO4  132   7.810  11.486  10.669 -0.0036 -0.2904 -0.0838
    9loPI   GL1  133   7.458  11.352  10.339  0.0207 -0.1358  0.0098
    9loPI   GL2  134   7.703  11.122  10.294 -0.0767  0.0394  0.1593
    9loPI   C1A  135   7.429  11.530  10.054 -0.0665 -0.0039  0.1778
    9loPI   C2A  136   7.387  11.553   9.670 -0.0793 -0.0983 -0.2132
    9loPI   C3A  137   7.435  11.537   9.237 -0.0115  0.6311 -0.1067
    9loPI   C4A  138   7.359  11.591   8.815  0.0825 -0.0220  0.0180
    9loPI   C5A  139   7.047  11.544   8.491 -0.1467 -0.2731  0.0344
    9loPI   C6A  140   6.771  11.899   8.409  0.1463  0.2754 -0.0472
    9loPI   C1B  141   7.552  11.021   9.924 -0.1482  0.0929 -0.1965
    9loPI   C2B  142   7.536  11.008   9.546 -0.1697 -0.0267 -0.1458
    9loPI   C3B  143   7.445  11.058   9.135 -0.1080 -0.2985 -0.1662
    9loPI   C4B  144   7.456  11.073   8.724  0.1287  0.1199  0.0485
   10loPI    C1  145   1.709  17.630  10.786 -0.1177 -0.1829 -0.0273
   10loPI    C2  146   1.440  17.830  10.567  0.1694  0.1134 -0.1181
   10loPI    C3  147   1.466  17.894  10.961  0.0591  0.0290 -0.0965
   10loPI   PO4  148   1.929  17.712  10.699 -0.0708 -0.0717  0.2040
   10loPI   GL1  149   2.110  17.831  10.329  0.2393 -0.1299 -0.2522
   10loPI   GL2  150   1.796  17.972  10.225 -0.0106  0.2541  0.1568
   10loPI   C1A  151   2.078  17.859   9.823 -0.1406 -0.1717 -0.0712
   10loPI   C2A  152   2.052  17.829   9.368  0.0058  0.0570  0.0463
   10loPI   C3A  153   1.930  17.753   9.056  0.3823 -0.2973  0.0349
   10loPI   C4A  154   2.018  17.734   8.638 -0.5358  0.1696 -0.0178
   10loPI   C5A  155   1.983  17.481   8.339  0.1432 -0.0766  0.2881
   10loPI   C6A  156   1.875  17.124   8.431  0.2587 -0.0505 -0.1617
   10loPI   C1B  157   1.641  18.120   9.941 -0.1253  0.0188 -0.0964
   10loPI   C2B  158   1.690  18.143   9.522 -0.3380  0.4840  0.1512
   10loPI   C3B  159   1.844  18.251   9.107 -0.0404  0.1236  0.2750
   10loPI   C4B  160   1.623  18.450   8.630  0.2014  0.1607  0.0310
   11loPI    C1  161   7.264  11.352  11.188 -0.0920  0.1850 -0.0417
   11loPI    C2  162   7.372  11.575  10.873 -0.0344  0.0256 -0.1359
   11loPI    C3  163   7.644  11.472  11.148  0.0191 -0.2260 -0.2798
   11loPI   PO4  164   7.127  11.201  11.107  0.3285 -0.0517 -0.0615
   11loPI   GL1  165   6.862  11.280  10.805  0.1918  0.0338  0.1509
   11loPI   GL2  166   7.028  11.053  10.564 -0.0263  0.0253 -0.1264
   11loPI   C1A  167   6.509  11.210  10.423  0.0386 -0.0008  0.1023
   11loPI   C2A  168   6.547  11.093   9.945  0.0992 -0.2245 -0.0318
   11loPI   C3A  169   6.544  11.278   9.568  0.2068 -0.1000  0.1041
   11loPI   C4A  170   6.572  11.303   9.207 -0.1353  0.1082 -0.0444
   11loPI   C5A  171   6.508  11.257   8.778 -0.0998 -0.1854 -0.0375
   11loPI   C6A  172   6.290  11.105   8.496  0.2725 -0.1520 -0.1195
   11loPI   C1B  173   7.077  11.120  10.096  0.2660 -0.1924  0.1508
   11loPI   C2B  174   7.078  11.144   9.808  0.0078 -0.0594  0.0322
   11loPI   C3B  175   7.021  11.194   9.335  0.2496  0.2289  0.1285
   11loPI   C4B  176   7.005  11.151   8.828  0.1231 -0.2420  0.1485
   12loPI    C1  177  10.889   4.835  10.196  0.1449  0.0167 -0.1996
   12loPI    C2  178  11.037   5.150  10.394 -0.2496  0.0196  0.1037
   12loPI    C3  179  11.138   4.779  10.504  0.2344  0.0301 -0.2690
   12loPI   PO4  180  10.927   4.832   9.913  0.1230  0.1095 -0.1673
   12loPI   GL1  181  10.882   4.979   9.522 -0.3885  0.2259 -0.1300
   12loPI   GL2  182  10.718   5.221   9.579  0.1744  0.0485  0.2802
   12loPI   C1A  183  10.964   4.788   9.193  0.0660  0.0707 -0.0738
   12loPI   C2A  184  10.861   4.696   8.824  0.0691 -0.1002 -0.1922
   12loPI   C3A  185  10.630   4.789   8.453 -0.2294  0.0343  0.2667
   12loPI   C4A  186  10.594   4.843   8.020  0.1177 -0.0666 -0.2046
   12loPI   C5A  187  10.706   5.097   7.698  0.0669 -0.0334  0.1261
   12loPI   C6A  188  10.986   5.180   7.533 -0.1905  0.1522  0.1129
   12loPI   C1B  189  10.664   5.219   9.182 -0.1271  0.0103  0.0302
   12loPI   C2B  190  10.574   5.217   8.753  0.0879 -0.0426 -0.2959
   12loPI   C3B  191  10.595   5.311   8.372  0.0594 -0.1583 -0.3832
   12loPI   C4B  192  10.877   5.425   8.048  0.0389 -0.1528  0.3032
   13loPI    C1  193  11.607  16.689  11.337 -0.0324 -0.1254  0.0369
   13loPI    C2  194  11.368  16.663  11.656  0.0789  0.1015  0.1407
   13loPI    C3  195  11.708  16.873  11.677  0.1837 -0.0436 -0.0693
   13loPI   PO4  196  11.414  16.800  11.046 -0.2751 -0.0914  0.2325
   13loPI   GL1  197  11.046  16.958  10.916  0.2997  0.2213  0.0531
   13loPI   GL2  198  10.799  17.065  11.062  0.1340 -0.0825  0.0742
   13loPI   C1A  199  10.952  16.880  10.534  0.0163  0.0754  0.1205
   13loPI   C2A  200  10.916  16.919  10.112  0.0182  0.0726 -0.1628
   13loPI   C3A  201  10.965  16.926   9.608  0.0478 -0.2220  0.1509
   13loPI   C4A  202  10.886  16.920   9.219 -0.0375 -0.3103  0.0630
   13loPI   C5A  203  10.652  16.944   8.834 -0.1136 -0.1972 -0.0942
   13loPI   C6A  204  10.476  17.220   8.609  0.0502 -0.0270  0.0344
   13loPI   C1B  205  10.474  16.988  10.654  0.0033  0.1356  0.0394
   13loPI   C2B  206  10.353  16.987  10.150 -0.0970 -0.2318  0.2779
   13loPI   C3B  207  10.408  17.067   9.704 -0.1091 -0.1351 -0.0514
   13loPI   C4B  208  10.408  17.049   9.272  0.0479  0.0808  0.0057
   14loPI    C1  209   1.253  11.221  11.043 -0.1830 -0.2145  0.1299
   14loPI    C2  210   1.272  11.203  11.442 -0.2166 -0.0846  0.1380
   14loPI    C3  211   1.040  11.477  11.266 -0.0346  0.0005  0.0288
   14loPI   PO4  212   1.429  11.232  10.965  0.1689 -0.1935  0.2142
   14loPI   GL1  213   1.592  11.077  10.631 -0.2046 -0.1477  0.1704
   14loPI   GL2  214   1.639  11.361  10.483 -0.0203 -0.2118  0.0686
   14loPI   C1A  215   1.746  10.702  10.278  0.0142 -0.0004  0.2356
   14loPI   C2A  216   1.840  10.671   9.848  0.0485 -0.2277  0.0089
   14loPI   C3A  217   1.908  10.788   9.389 -0.1781 -0.0229 -0.0642
   14loPI   C4A  218   1.997  10.822   9.042 -0.1458 -0.1169 -0.2411
   14loPI   C5A  219   1.961  10.872   8.690 -0.0288  0.0732  0.1232
   14loPI   C6A  220   1.646  10.972   8.426 -0.2923 -0.0780  0.1638
   14loPI   C1B  221   1.690  11.170  10.025  0.0794  0.0415  0.0879
   14loPI   C2B  222   1.840  11.273   9.581  0.0346  0.1747 -0.0419
   14loPI   C3B  223   1.804  11.294   9.236  0.2427 -0.2624  0.2276
   14loPI   C4B  224   1.654  11.450   8.884 -0.1150 -0.1017  0.4425
   15loPI    C1  225  11.303  13.637  11.213 -0.2585  0.0791 -0.1792
   15loPI    C2  226  10.910  13.613  11.288 -0.1856  0.0147  0.2046
   15loPI    C3  227  11.130  13.279  11.264 -0.1555  0.0498 -0.0271
   15loPI   PO4  228  11.333  13.740  11.024  0.2146  0.1127  0.2490
   15loPI   GL1  229  11.409  13.663  10.591 -0.0538  0.0529  0.2218
   15loPI   GL2  230  11.712  13.674  10.395  0.4135 -0.0942  0.0739
   15loPI   C1A  231  11.352  13.930  10.169  0.0670  0.2487  0.0405
   15loPI   C2A  232  11.415  13.848   9.792 -0.0338 -0.1038  0.0093
   15loPI   C3A  233  11.316  13.893   9.377 -0.0341 -0.0819  0.0608
   15loPI   C4A  234  11.391  13.931   9.032 -0.0385 -0.0135  0.0956
   15loPI   C5A  235  11.685  14.082   8.680 -0.0449  0.0208 -0.1303
   15loPI   C6A  236  11.729  14.091   8.290  0.0851 -0.1985 -0.1092
   15loPI   C1B  237  11.913  13.732   9.997 -0.1300 -0.0526  0.0311
   15loPI   C2B  238  11.875  13.716   9.607  0.0807 -0.1153  0.0656
   15loPI   C3B  239  11.870  13.833   9.183  0.0054  0.1437 -0.0584
   15loPI   C4B  240  11.760  13.587   8.906  0.2126  0.0408  0.1066
   16loPI    C1  241   5.705  10.043  10.980  0.1783  0.2701  0.0859
   16loPI    C2  242   5.549  10.150  11.333  0.0143 -0.0361  0.1093
   16loPI    C3  243   5.639  10.429  11.061 -0.2977  0.1695  0.2113
   16loPI   PO4  244   5.941   9.877  11.012  0.1181 -0.1040  0.0046
   16loPI   GL1  245   6.179   9.838  10.677 -0.1427  0.1928  0.3644
   16loPI   GL2  246   5.863   9.920  10.498 -0.0687  0.1608  0.1468
   16loPI   C1A  247   6.320   9.732  10.262 -0.0558  0.1209  0.0650
   16loPI   C2A  248   6.519   9.818   9.868 -0.2579 -0.1236  0.2957
   16loPI   C3A  249   6.587   9.892   9.516  0.0942 -0.0873  0.1639
   16loPI   C4A  250   6.553   9.863   9.051  0.0352 -0.2402  0.1708
   16loPI   C5A  251   6.432  10.157   8.825 -0.2156 -0.0267  0.1492
   16loPI   C6A  252   6.338  10.564   8.633  0.1244  0.1775 -0.0263
   16loPI   C1B  253   5.930   9.910  10.067  0.2407 -0.1020  0.1156
   16loPI   C2B  254   6.058  10.011   9.611  0.3239  0.0722 -0.0048
   16loPI   C3B  255   6.046   9.988   9.213 -0.0909  0.1966 -0.1116
   16loPI   C4B  256   6.020   9.949   8.703 -0.1936 -0.1811 -0.2302
   17loPI    C1  257  11.375   8.831  10.823  0.0440  0.0799  0.2127
   17loPI    C2  258  11.117   8.565  10.972 -0.1014  0.0600 -0.0688
   17loPI    C3  259  11.506   8.475  10.950 -0.1088 -0.0179  0.0997
   17loPI   PO4  260  11.273   8.938  10.608  0.1849  0.2058  0.0551
   17loPI   GL1  261  11.344   8.941  10.216  0.3582 -0.0907  0.1536
   17loPI   GL2  262  11.735   9.122  10.142  0.0350 -0.1017  0.0866
   17loPI   C1A  263  11.016   8.952   9.833  0.1481  0.0219  0.0883
   17loPI   C2A  264  11.008   8.983   9.371 -0.1913  0.0582  0.0951
   17loPI   C3A  265  11.182   8.945   8.935 -0.3276  0.3732  0.0145
   17loPI   C4A  266  11.259   9.078   8.560  0.1405  0.0708  0.0597
   17loPI   C5A  267  11.405   9.191   8.156  0.1776 -0.3335 -0.0201
   17loPI   C6A  268  11.534   9.286   7.747 -0.0222  0.0381 -0.2191
   17loPI   C1B  269  11.458   9.144   9.750 -0.3222 -0.0981 -0.2287
   17loPI   C2B  270  11.495   9.182   9.255 -0.0126  0.0993 -0.0136
   17loPI   C3B  271  11.437   9.448   8.889  0.1085  0.1292 -0.2780
   17loPI   C4B  272  11.594   9.635   8.564 -0.0372 -0.2457 -0.0753
   18loPI    C1  273  13.707  14.637  11.202 -0.0137  0.0972  0.1411
   18loPI    C2  274  14.102  14.606  11.254 -0.0014  0.0107  0.0016
   18loPI    C3  275  13.852  14.421  11.506  0.0460  0.0884  0.1064
   18loPI   PO4  276  13.721  14.671  10.934 -0.0091  0.1770  0.0211
   18loPI   GL1  277  13.774  14.535  10.482  0.4650 -0.3244  0.0250
   18loPI   GL2  278  14.041  14.543  10.507  0.0318 -0.0910 -0.0137
   18loPI   C1A  279  13.678  14.549  10.064  0.0082  0.0046  0.1089
   18loPI   C2A  280  13.616  14.537   9.628 -0.1287 -0.3411  0.1004
   18loPI   C3A  281  13.605  14.449   9.263  0.1305 -0.3331  0.1231
   18loPI   C4A  282  13.617  14.262   8.842 -0.1875 -0.0455 -0.2537
   18loPI   C5A  283  13.447  14.065   8.556 -0.1488  0.2681  0.0832
   18loPI   C6A  284  13.197  13.852   8.302 -0.3270  0.1991  0.1574
   18loPI   C1B  285  14.343  14.680  10.111  0.0249  0.2469 -0.0245
   18loPI   C2B  286  14.577  14.779   9.672 -0.2817  0.2209 -0.1173
   18loPI   C3B  287  14.405  14.682   9.256  0.1535 -0.1448  0.1013
   18loPI   C4B  288  14.317  14.756   8.825  0.0845  0.2910  0.0779
   19loPI    C1  289   5.687   8.319  10.647 -0.2267  0.1255  0.1656
   19loPI    C2  290   5.653   7.959  10.477 -0.0219  0.2216 -0.0850
   19loPI    C3  291   5.437   8.048  10.802 -0.0217 -0.1500  0.0212
   19loPI   PO4  292   5.805   8.427  10.472  0.1651  0.2862 -0.3145
   19loPI   GL1  293   6.011   8.371  10.245 -0.2460 -0.1668  0.0294
   19loPI   GL2  294   5.787   8.378   9.946 -0.0306  0.2547  0.2118
   19loPI   C1A  295   6.286   8.551  10.029  0.0621 -0.2565  0.0105
   19loPI   C2A  296   6.445   8.784   9.675 -0.0313  0.2198 -0.3017
   19loPI   C3A  297   6.501   9.035   9.423  0.0132 -0.1127  0.2398
   19loPI   C4A  298   6.477   8.977   8.977 -0.0136 -0.1607  0.2122
   19loPI   C5A  299   6.421   8.923   8.552 -0.2854 -0.1050  0.1093
   19loPI   C6A  300   6.152   8.771   8.288  0.1105 -0.0575 -0.3182
   19loPI   C1B  301   5.972   8.539   9.601 -0.1179  0.2672  0.1683
   19loPI   C2B  302   6.143   8.596   9.213 -0.1303  0.2843  0.1870
   19loPI   C3B  303   6.073   8.643   8.854 -0.0688 -0.0301  0.2299
   19loPI   C4B  304   5.883   8.371   8.657  0.0947 -0.0566  0.1766
   20loPI    C1  305   9.008   2.226  11.042 -0.1293 -0.0108 -0.2516
   20loPI    C2  306   8.898   2.605  11.109 -0.2156 -0.0664 -0.0716
   20loPI    C3  307   8.630   2.310  11.141 -0.0992 -0.1652  0.0029
   20loPI   PO4  308   9.110   2.236  10.765  0.0459 -0.2496  0.1280
   20loPI   GL1  309   8.897   2.562  10.344  0.0040  0.1713 -0.1471
   20loPI   GL2  310   9.190   2.430  10.263 -0.1140 -0.2211  0.1074
   20loPI   C1A  311   8.858   2.401   9.876  0.0709 -0.1236 -0.0572
   20loPI   C2A  312   8.775   2.336   9.485 -0.0905  0.1514 -0.0509
   20loPI   C3A  313   8.637   2.220   9.112 -0.1395 -0.0281  0.0636
   20loPI   C4A  314   8.494   2.290   8.751 -0.1577 -0.0626  0.0727
   20loPI   C5A  315   8.078   2.250   8.406  0.1502  0.0396  0.0029
   20loPI   C6A  316   7.781   2.470   8.207 -0.1836  0.0288  0.0256
   20loPI   C1B  317   9.399   2.430   9.959  0.2660 -0.0383  0.2454
   20loPI   C2B  318   9.326   2.321   9.540 -0.1134 -0.0047  0.2607
   20loPI   C3B  319   9.346   2.178   9.221  0.0709  0.0913  0.1730
   20loPI   C4B  320   9.341   1.952   8.713 -0.2548 -0.0352 -0.0377
   21loPI    C1  321   6.646  17.557  11.187 -0.2895 -0.3238 -0.0821
   21loPI    C2  322   6.731  17.370  11.530  0.0459  0.0389  0.0408
   21loPI    C3  323   6.355  17.381  11.396 -0.0331 -0.4126  0.2087
   21loPI   PO4  324   6.806  17.432  10.980 -0.0112 -0.2143  0.2358
   21loPI   GL1  325   6.819  17.601  10.567  0.0195 -0.0311  0.0422
   21loPI   GL2  326   6.515  17.486  10.404  0.0943 -0.0576  0.3217
   21loPI   C1A  327   6.952  17.317  10.127  0.1302 -0.3935 -0.0927
   21loPI   C2A  328   6.925  17.292   9.663 -0.4013  0.1089 -0.0099
   21loPI   C3A  329   6.935  17.198   9.168  0.0709 -0.2812 -0.0780
   21loPI   C4A  330   6.960  17.375   8.748  0.2480  0.1121  0.1301
   21loPI   C5A  331   7.475  17.508   8.523  0.1051 -0.1159 -0.1855
   21loPI   C6A  332   7.969  17.535   8.476 -0.1870 -0.1111  0.0046
   21loPI   C1B  333   6.467  17.467   9.992  0.0398  0.1770  0.0930
   21loPI   C2B  334   6.408  17.356   9.519  0.2648  0.0326  0.0349
   21loPI   C3B  335   6.401  17.342   9.110 -0.1513  0.3323 -0.3446
   21loPI   C4B  336   6.355  17.203   8.724 -0.2082 -0.1572 -0.2502
   22loPI    C1  337  13.597   9.060  10.330  0.0247  0.3746  0.0029
   22loPI    C2  338  13.207   9.112  10.262  0.0438  0.0409 -0.4047
   22loPI    C3  339  13.467   9.399  10.163 -0.0691  0.1438 -0.4055
   22loPI   PO4  340  13.592   8.793  10.306  0.0252 -0.3966  0.0784
   22loPI   GL1  341  13.859   8.630   9.895 -0.3341  0.2333  0.3451
   22loPI   GL2  342  14.156   8.594   9.880  0.0250 -0.1433  0.0871
   22loPI   C1A  343  13.950   8.708   9.436 -0.0369  0.1311 -0.3249
   22loPI   C2A  344  13.971   8.737   9.026 -0.2219 -0.1667 -0.0524
   22loPI   C3A  345  14.030   8.785   8.593  0.0485  0.1071 -0.2542
   22loPI   C4A  346  14.042   8.808   8.125  0.0208 -0.2877  0.1134
   22loPI   C5A  347  13.767   8.964   7.673 -0.1920 -0.1444 -0.0450
   22loPI   C6A  348  13.526   8.867   7.405 -0.2378  0.0069 -0.0916
   22loPI   C1B  349  14.453   8.673   9.627  0.3733  0.0814 -0.2512
   22loPI   C2B  350  14.398   8.649   9.271  0.1983 -0.1482  0.0550
   22loPI   C3B  351  14.470   8.723   8.877 -0.0236  0.1201 -0.0705
   22loPI   C4B  352  14.544   8.751   8.392  0.0712  0.3053  0.1466
   23loPI    C1  353   7.208  12.237  11.246  0.1022 -0.1698  0.0981
   23loPI    C2  354   7.157  11.850  11.332  0.1437 -0.1747  0.1006
   23loPI    C3  355   6.926  12.126  11.507 -0.1087 -0.2236 -0.1475
   23loPI   PO4  356   7.205  12.195  10.940  0.0202  0.1791 -0.1046
   23loPI   GL1  357   7.510  12.053  10.692  0.5503 -0.2034 -0.2571
   23loPI   GL2  358   7.715  11.930  10.426  0.2975 -0.1537  0.2473
   23loPI   C1A  359   7.225  11.999  10.253 -0.2264  0.0480 -0.3574
   23loPI   C2A  360   7.270  12.026   9.768  0.4560 -0.1753 -0.0480
   23loPI   C3A  361   7.252  12.065   9.268 -0.2000  0.0444  0.1876
   23loPI   C4A  362   7.214  12.078   8.839  0.2248  0.3139 -0.0105
   23loPI   C5A  363   7.001  12.323   8.446 -0.0421 -0.1372  0.0364
   23loPI   C6A  364   6.711  12.418   8.208 -0.2149  0.1505 -0.1749
   23loPI   C1B  365   7.722  11.902   9.943 -0.1718 -0.2955 -0.3555
   23loPI   C2B  366   7.704  11.971   9.471 -0.3049 -0.0425 -0.1078
   23loPI   C3B  367   7.683  11.960   9.043  0.0862 -0.1245  0.1518
   23loPI   C4B  368   7.767  11.879   8.599  0.3451 -0.0930  0.2406
   24loPI    C1  369  17.713  17.458  10.652  0.1885 -0.0636  0.1626
   24loPI    C2  370  17.863  17.745  10.886  0.0786  0.1648 -0.0420
   24loPI    C3  371  17.475  17.649  10.910 -0.0061  0.4154 -0.3522
   24loPI   PO4  372  17.933  17.227  10.684  0.0863  0.1964 -0.0354
   24loPI   GL1  373  18.029  16.890  10.411 -0.0412 -0.1267  0.2666
   24loPI   GL2  374  18.150  17.197  10.237  0.1871 -0.0644 -0.2127
   24loPI   C1A  375  17.757  16.878  10.035  0.1341 -0.3944 -0.0012
   24loPI   C2A  376  17.686  16.920   9.660  0.2978  0.0563 -0.1124
   24loPI   C3A  377  17.554  16.827   9.339  0.4967  0.0323 -0.2442
   24loPI   C4A  378  17.783  16.685   8.975  0.0287  0.0735 -0.1043
   24loPI   C5A  379  17.972  16.803   8.583  0.1086  0.0347  0.0623
   24loPI   C6A  380  18.316  16.886   8.314  0.1078  0.0153  0.1395
   24loPI   C1B  381  17.983  17.247   9.777  0.1939  0.1308 -0.1925
   24loPI   C2B  382  17.902  17.284   9.264  0.1775 -0.2551 -0.0063
   24loPI   C3B  383  17.864  17.432   8.824 -0.1414  0.1753  0.0628
   24loPI   C4B  384  17.939  17.308   8.448  0.3078 -0.0223 -0.0874
   25loPI    C1  385  14.083  17.550  11.435  0.1302  0.1897  0.0504
   25loPI    C2  386  14.040  17.154  11.410  0.1960  0.1846  0.0178
   25loPI    C3  387  13.888  17.352  11.722  0.1588  0.1342  0.0317
   25loPI   PO4  388  14.086  17.616  11.113 -0.0874  0.0871  0.0749
   25loPI   GL1  389  14.320  17.703  10.700  0.0068  0.2293  0.1268
   25loPI   GL2  390  14.097  17.528  10.652 -0.0057 -0.0817  0.1289
   25loPI   C1A  391  14.041  17.742  10.207  0.3903 -0.1818 -0.1113
   25loPI   C2A  392  14.075  17.639   9.806 -0.0061  0.2899 -0.0480
   25loPI   C3A  393  14.046  17.586   9.400  0.0772  0.1163 -0.1756
   25loPI   C4A  394  13.963  17.636   8.993  0.1343  0.0135 -0.0886
   25loPI   C5A  395  13.782  17.613   8.454  0.3064  0.0889 -0.0780
   25loPI   C6A  396  13.538  17.233   8.326  0.2392  0.0247  0.0992
   25loPI   C1B  397  14.169  17.285  10.256 -0.0227  0.0264 -0.0098
   25loPI   C2B  398  14.179  17.098   9.961 -0.0264 -0.1467  0.0026
   25loPI   C3B  399  14.196  17.136   9.566  0.1233  0.3642  0.0145
   25loPI   C4B  400  14.227  17.151   9.135  0.1644  0.0103  0.0048
   26loPI    C1  401   5.831  12.363  11.499  0.0021 -0.1372  0.1884
   26loPI    C2  402   5.997  12.006  11.428 -0.0264 -0.1395  0.1318
   26loPI    C3  403   5.658  12.030  11.639 -0.1462 -0.1655 -0.0555
   26loPI   PO4  404   5.836  12.483  11.235  0.1157  0.1288 -0.1694
   26loPI   GL1  405   5.689  12.510  10.835 -0.0784  0.1051  0.2988
   26loPI   GL2  406   5.567  12.715  10.733  0.0038  0.0324  0.2371
   26loPI   C1A  407   5.747  12.320  10.413  0.3893  0.0648  0.0142
   26loPI   C2A  408   5.681  12.462  10.000 -0.1009  0.1151  0.0495
   26loPI   C3A  409   5.734  12.414   9.530 -0.1948 -0.0862  0.1765
   26loPI   C4A  410   5.745  12.346   9.089 -0.1000 -0.1673  0.1037
   26loPI   C5A  411   5.969  12.483   8.701  0.2453 -0.2063  0.2201
   26loPI   C6A  412   5.802  12.916   8.528 -0.1595  0.0785 -0.0406
   26loPI   C1B  413   5.462  12.816  10.321  0.1463 -0.0875  0.1284
   26loPI   C2B  414   5.418  12.839   9.886  0.0162 -0.0231  0.3378
   26loPI   C3B  415   5.501  12.941   9.432 -0.1810 -0.2468  0.0193
   26loPI   C4B  416   5.584  12.992   8.994 -0.1042  0.0940  0.1310
   27loPI    C1  417  16.764   9.900  10.844  0.0658  0.3762  0.0746
   27loPI    C2  418  17.059   9.654  10.730 -0.0023  0.2844  0.0952
   27loPI    C3  419  16.941   9.663  11.113 -0.0281  0.3193  0.0866
   27loPI   PO4  420  16.781  10.100  10.677  0.0633  0.0782  0.2143
   27loPI   GL1  421  16.497  10.281  10.406  0.1099  0.1127  0.1311
   27loPI   GL2  422  16.242  10.152  10.194 -0.0763 -0.0399  0.1027
   27loPI   C1A  423  16.558  10.572  10.103  0.2165  0.0333  0.0589
   27loPI   C2A  424  16.577  10.643   9.705  0.0327 -0.0533  0.4346
   27loPI   C3A  425  16.639  10.550   9.305 -0.5303 -0.0976  0.1975
   27loPI   C4A  426  16.702  10.415   8.857  0.0136 -0.0725  0.1464
   27loPI   C5A  427  16.956  10.510   8.436 -0.0280  0.1176  0.1883
   27loPI   C6A  428  17.215  10.283   8.168  0.2948 -0.0784 -0.1758
   27loPI   C1B  429  16.117  10.364   9.812  0.2879 -0.1950  0.1703
   27loPI   C2B  430  16.172  10.422   9.397 -0.0153  0.1370 -0.2024
   27loPI   C3B  431  16.258  10.534   9.024  0.3607 -0.1652  0.0496
   27loPI   C4B  432  16.246  10.533   8.570  0.1770 -0.3336 -0.1639
   28loPI    C1  433  15.898  13.988  11.124  0.1149  0.0965  0.2300
   28loPI    C2  434  16.093  13.658  11.237 -0.0062 -0.0427  0.0394
   28loPI    C3  435  16.276  13.929  11.007  0.0417 -0.0542  0.0636
   28loPI   PO4  436  15.708  13.938  11.041  0.0393  0.2226  0.1361
   28loPI   GL1  437  15.774  14.016  10.628 -0.3299 -0.2123 -0.0346
   28loPI   GL2  438  15.635  14.394  10.822 -0.2606 -0.0600  0.0448
   28loPI   C1A  439  15.394  13.968  10.370 -0.1919 -0.0614 -0.2619
   28loPI   C2A  440  15.511  13.955   9.851  0.3053 -0.0018  0.1552
   28loPI   C3A  441  15.665  14.056   9.437  0.0934  0.2889  0.1387
   28loPI   C4A  442  15.633  13.980   9.074 -0.0786 -0.3002  0.1823
   28loPI   C5A  443  15.735  14.104   8.648 -0.0495 -0.1952 -0.0363
   28loPI   C6A  444  15.747  14.073   8.261  0.1380 -0.2233  0.1390
   28loPI   C1B  445  15.490  14.524  10.374 -0.3550 -0.1390 -0.0791
   28loPI   C2B  446  15.531  14.440  10.065  0.1050 -0.0444  0.1871
   28loPI   C3B  447  15.640  14.537   9.675  0.0336 -0.1971 -0.0409
   28loPI   C4B  448  15.532  14.579   9.332  0.4093  0.1045  0.2993
   29loPI    C1  449  16.200   7.431  10.490  0.2053  0.1379 -0.0261
   29loPI    C2  450  16.531   7.496  10.704  0.2371  0.2195 -0.0996
   29loPI    C3  451  16.180   7.636  10.832  0.2421  0.1932 -0.0569
   29loPI   PO4  452  16.253   7.503  10.230 -0.0346 -0.1346  0.1858
   29loPI   GL1  453  16.256   7.214   9.882  0.2388  0.0543  0.1148
   29loPI   GL2  454  15.866   7.368   9.905 -0.2504  0.0196  0.0222
   29loPI   C1A  455  16.241   7.097   9.453  0.2167  0.0995  0.0395
   29loPI   C2A  456  16.256   7.142   9.080  0.0600  0.2806 -0.1684
   29loPI   C3A  457  16.322   7.201   8.662 -0.0615  0.1032 -0.0469
   29loPI   C4A  458  16.405   7.423   8.309 -0.0789 -0.0282 -0.2114
   29loPI   C5A  459  16.674   7.565   8.026 -0.1701  0.3798 -0.4763
   29loPI   C6A  460  16.673   8.023   7.940  0.0400 -0.0929  0.2263
   29loPI   C1B  461  15.799   7.302   9.476 -0.2568 -0.0839 -0.0941
   29loPI   C2B  462  15.750   7.278   9.114  0.2770 -0.0576  0.1478
   29loPI   C3B  463  15.682   7.066   8.770 -0.0481  0.1776 -0.1395
   29loPI   C4B  464  15.567   7.301   8.378  0.1084  0.1799 -0.2479
   30loPI    C1  465   3.238   2.900  10.734  0.0172 -0.0449 -0.0979
   30loPI    C2  466   3.576   3.019  10.912  0.0245 -0.0349 -0.1183
   30loPI    C3  467   3.305   2.808  11.117 -0.0142  0.0652 -0.0655
   30loPI   PO4  468   3.288   2.832  10.497 -0.0869 -0.0415  0.0847
   30loPI   GL1  469   3.315   2.982  10.167 -0.1472  0.0492 -0.2233
   30loPI   GL2  470   3.501   3.297  10.025 -0.2076  0.4228 -0.1711
   30loPI   C1A  471   3.257   2.768   9.668  0.0433 -0.1075  0.2858
   30loPI   C2A  472   3.333   2.662   9.175  0.0105 -0.3025  0.3222
   30loPI   C3A  473   3.116   2.389   8.911  0.1136 -0.0398 -0.0877
   30loPI   C4A  474   3.235   2.137   8.636 -0.2059  0.0567  0.1039
   30loPI   C5A  475   3.077   1.776   8.384 -0.0675  0.5424  0.1859
   30loPI   C6A  476   2.937   1.470   8.147  0.0974 -0.3321  0.2723
   30loPI   C1B  477   3.677   3.495   9.707  0.0653  0.0892  0.3018
   30loPI   C2B  478   3.792   3.553   9.241  0.1549  0.1402  0.2846
   30loPI   C3B  479   3.781   3.457   8.821 -0.0461  0.1235  0.2740
   30loPI   C4B  480   3.731   3.435   8.355 -0.0910 -0.1607 -0.0921
   31loPI    C1  481  13.389   2.821  10.567 -0.0075 -0.2506  0.1809
   31loPI    C2  482  13.375   3.087  10.866  0.2544 -0.0147 -0.0117
   31loPI    C3  483  13.036   2.945  10.709  0.1119  0.1548  0.1382
   31loPI   PO4  484  13.555   2.986  10.406 -0.2428 -0.1411  0.1263
   31loPI   GL1  485  13.941   2.898  10.195  0.0172  0.0453 -0.1038
   31loPI   GL2  486  14.013   3.190  10.106  0.1579 -0.2946 -0.1462
   31loPI   C1A  487  14.006   2.584   9.854 -0.0699  0.0302  0.0287
   31loPI   C2A  488  14.048   2.615   9.423 -0.1025 -0.1175  0.1427
   31loPI   C3A  489  13.913   2.672   9.025  0.2417 -0.1223 -0.1485
   31loPI   C4A  490  13.648   2.699   8.633  0.0830 -0.1995  0.2650
   31loPI   C5A  491  13.340   2.802   8.304 -0.0165 -0.3214  0.2759
   31loPI   C6A  492  13.125   2.944   7.947 -0.0372  0.2168  0.2253
   31loPI   C1B  493  13.882   3.151   9.754  0.4090 -0.0725  0.3065
   31loPI   C2B  494  13.807   3.102   9.297 -0.2422 -0.1236 -0.1341
   31loPI   C3B  495  13.751   3.115   8.877 -0.0233 -0.1223  0.0860
   31loPI   C4B  496  13.452   3.224   8.535  0.3431  0.2022  0.1139
   32loPI    C1  497   7.716   4.765  10.511  0.1786  0.0153 -0.0175
   32loPI    C2  498   7.892   4.584  10.821  0.0952  0.1274  0.0968
   32loPI    C3  499   7.819   4.977  10.835  0.1782  0.1511 -0.1053
   32loPI   PO4  500   7.875   4.614  10.320 -0.2825  0.1423  0.1357
   32loPI   GL1  501   8.048   4.618   9.948 -0.0547 -0.0680 -0.1980
   32loPI   GL2  502   7.883   4.911   9.879  0.1595  0.3101  0.1157
   32loPI   C1A  503   7.884   4.338   9.610 -0.0486 -0.0209  0.1301
   32loPI   C2A  504   7.778   4.192   9.143  0.0548  0.0158  0.0071
   32loPI   C3A  505   7.762   4.167   8.751 -0.2642  0.1197  0.0638
   32loPI   C4A  506   7.819   3.906   8.420  0.0492  0.1518  0.3460
   32loPI   C5A  507   7.752   3.427   8.306  0.1033  0.0710  0.0697
   32loPI   C6A  508   7.676   2.987   8.304 -0.2124  0.1349  0.0023
   32loPI   C1B  509   7.904   4.863   9.530 -0.2357 -0.1437  0.2736
   32loPI   C2B  510   7.822   5.012   9.089  0.0333  0.1035  0.4453
   32loPI   C3B  511   7.849   4.999   8.707 -0.1083 -0.2544 -0.1547
   32loPI   C4B  512   8.049   5.087   8.345 -0.3364  0.3171 -0.3743
   33loPI    C1  513   0.920  10.846  11.358  0.2771  0.1577 -0.0129
   33loPI    C2  514   0.840  11.127  11.631  0.2034  0.1300 -0.0057
   33loPI    C3  515   1.072  10.815  11.727 -0.0547 -0.0291  0.1126
   33loPI   PO4  516   0.808  11.005  11.094  0.0895  0.1203 -0.1648
   33loPI   GL1  517   0.958  11.029  10.718  0.0992 -0.3078  0.1720
   33loPI   GL2  518   1.146  11.287  10.564 -0.1693 -0.0994 -0.1010
   33loPI   C1A  519   1.173  10.790  10.365 -0.0495  0.0145  0.1568
   33loPI   C2A  520   1.353  10.834   9.969  0.1693  0.0090  0.2956
   33loPI   C3A  521   1.426  10.906   9.516 -0.1198 -0.1997  0.0730
   33loPI   C4A  522   1.454  10.912   9.049 -0.0554 -0.1084  0.0468
   33loPI   C5A  523   1.189  11.034   8.659  0.1297  0.0576  0.0453
   33loPI   C6A  524   0.883  11.309   8.508  0.1024 -0.2242 -0.1935
   33loPI   C1B  525   1.244  11.293  10.127 -0.2464  0.2363  0.0490
   33loPI   C2B  526   1.228  11.302   9.665  0.1182  0.1265  0.0605
   33loPI   C3B  527   1.296  11.350   9.245 -0.1058  0.2461  0.1827
   33loPI   C4B  528   1.167  11.486   8.873  0.1196 -0.3220 -0.0935
   34loPI    C1  529  15.714   8.677  10.587 -0.0185  0.1106  0.1150
   34loPI    C2  530  15.429   8.884  10.777 -0.1260  0.0367  0.0353
   34loPI    C3  531  15.695   8.670  10.987 -0.1452  0.0846  0.1088
   34loPI   PO4  532  15.619   8.628  10.289  0.2254 -0.1672  0.0888
   34loPI   GL1  533  15.760   8.504   9.899  0.2184 -0.0630 -0.1465
   34loPI   GL2  534  16.110   8.595   9.995 -0.0105  0.0626  0.1171
   34loPI   C1A  535  15.781   8.720   9.405  0.1297 -0.2548  0.0563
   34loPI   C2A  536  15.863   8.849   9.084 -0.0004  0.1555  0.3594
   34loPI   C3A  537  15.867   8.896   8.640 -0.2058 -0.3780  0.0033
   34loPI   C4A  538  15.917   8.697   8.274  0.0168  0.0391  0.1878
   34loPI   C5A  539  16.203   8.395   8.051 -0.0170 -0.4626  0.0400
   34loPI   C6A  540  16.386   8.418   7.624  0.1202 -0.1091  0.0103
   34loPI   C1B  541  16.252   8.691   9.708  0.1293 -0.4595 -0.1529
   34loPI   C2B  542  16.363   8.668   9.265  0.1893  0.3675  0.0834
   34loPI   C3B  543  16.336   8.737   8.879  0.1947 -0.1954 -0.0278
   34loPI   C4B  544  16.393   8.719   8.467 -0.1979 -0.1029 -0.1422
   35loPI    C1  545   6.345   2.469  10.823 -0.0917  0.0546  0.1139
   35loPI    C2  546   6.185   2.122  10.940 -0.1294 -0.0014 -0.1003
   35loPI    C3  547   6.020   2.467  11.057 -0.1268 -0.0550  0.0647
   35loPI   PO4  548   6.350   2.428  10.541 -0.2047 -0.1371 -0.0515
   35loPI   GL1  549   6.248   2.168  10.257  0.3107 -0.2019 -0.1990
   35loPI   GL2  550   6.068   1.896  10.532 -0.1332  0.0855  0.1000
   35loPI   C1A  551   6.042   2.095   9.912  0.0108 -0.0182  0.1316
   35loPI   C2A  552   6.244   2.068   9.478  0.1936 -0.0508 -0.1507
   35loPI   C3A  553   6.263   2.017   9.034  0.2152 -0.0719 -0.0840
   35loPI   C4A  554   6.024   2.130   8.689  0.2241 -0.0262  0.2312
   35loPI   C5A  555   5.786   1.916   8.369  0.2646  0.4377  0.0448
   35loPI   C6A  556   5.914   1.562   8.184  0.0711  0.1629 -0.0550
   35loPI   C1B  557   6.005   1.684  10.205  0.1397 -0.1545  0.0117
   35loPI   C2B  558   5.959   1.630   9.734  0.0270 -0.0460 -0.0351
   35loPI   C3B  559   5.932   1.677   9.328 -0.0493  0.0567 -0.1030
   35loPI   C4B  560   5.755   1.663   8.913  0.2331  0.1665 -0.1721
   36loPI    C1  561  16.991  15.059  11.186  0.1774 -0.0005 -0.0795
   36loPI    C2  562  17.196  14.738  11.308 -0.0995 -0.1190  0.0840
   36loPI    C3  563  17.244  15.088  11.495  0.2555 -0.0429 -0.1391
   36loPI   PO4  564  17.042  15.119  10.970 -0.1042  0.2605 -0.0936
   36loPI   GL1  565  16.987  15.369  10.639  0.1387 -0.0513  0.0090
   36loPI   GL2  566  16.771  15.454  10.498  0.0436 -0.1217  0.0217
   36loPI   C1A  567  17.184  15.157  10.275 -0.0621  0.1501 -0.1755
   36loPI   C2A  568  17.293  15.124   9.926  0.1642 -0.1392 -0.2453
   36loPI   C3A  569  17.157  14.973   9.471  0.0753 -0.0601  0.0271
   36loPI   C4A  570  17.174  14.979   8.988 -0.0443  0.0860  0.0835
   36loPI   C5A  571  16.954  14.997   8.602  0.1395 -0.1318  0.0900
   36loPI   C6A  572  16.463  15.182   8.349  0.1746  0.0392 -0.0805
   36loPI   C1B  573  16.804  15.422  10.055 -0.2194  0.1455  0.0621
   36loPI   C2B  574  16.708  15.275   9.602  0.0718 -0.2815  0.1160
   36loPI   C3B  575  16.645  15.139   9.182  0.2385 -0.1937 -0.0296
   36loPI   C4B  576  16.523  15.324   8.812  0.1091  0.1370 -0.0537
   37loPI    C1  577  10.652  11.034  11.225  0.1185  0.0267 -0.0199
   37loPI    C2  578  10.616  11.417  11.333 -0.0116  0.0311 -0.0773
   37loPI    C3  579  10.339  11.151  11.446  0.0414 -0.0324 -0.0968
   37loPI   PO4  580  10.697  11.109  10.908  0.0628  0.2959 -0.2797
   37loPI   GL1  581  10.653  10.958  10.491  0.1773 -0.0382 -0.0761
   37loPI   GL2  582  10.940  10.916  10.288 -0.1341  0.0009 -0.1559
   37loPI   C1A  583  10.467  11.177  10.117 -0.2670  0.2095 -0.2479
   37loPI   C2A  584  10.452  11.414   9.723 -0.0400 -0.0366  0.2323
   37loPI   C3A  585  10.408  11.344   9.327 -0.0103 -0.0866  0.2702
   37loPI   C4A  586  10.422  11.301   8.934 -0.1720 -0.1115 -0.0845
   37loPI   C5A  587  10.271  11.365   8.557  0.3703 -0.1306 -0.0012
   37loPI   C6A  588  10.154  11.637   8.269  0.0537  0.2355  0.2759
   37loPI   C1B  589  10.948  10.788   9.877  0.0145 -0.0246  0.0854
   37loPI   C2B  590  11.265  10.825   9.534 -0.2277 -0.0928 -0.1657
   37loPI   C3B  591  11.299  10.706   9.097 -0.2147  0.3083  0.0034
   37loPI   C4B  592  11.104  10.334   9.016  0.3044  0.0788 -0.2464
   38loPI    C1  593   0.768  10.044  10.962 -0.0114  0.2046  0.0441
   38loPI    C2  594   0.976   9.897  11.270 -0.0854 -0.0820 -0.0393
   38loPI    C3  595   0.578   9.862  11.264 -0.0840 -0.0792 -0.1684
   38loPI   PO4  596   0.906   9.859  10.782  0.1510 -0.0871  0.1764
   38loPI   GL1  597   1.151   9.820  10.422 -0.2954  0.4318  0.2334
   38loPI   GL2  598   0.856   9.693  10.214 -0.0883 -0.2306  0.0319
   38loPI   C1A  599   1.260   9.934  10.052 -0.1936  0.1952  0.2891
   38loPI   C2A  600   1.171   9.937   9.620  0.1858  0.0599  0.2683
   38loPI   C3A  601   1.171  10.105   9.298  0.1474 -0.0432 -0.0250
   38loPI   C4A  602   1.211  10.075   8.839 -0.1633  0.1303 -0.0658
   38loPI   C5A  603   1.370  10.074   8.416  0.1022  0.0029  0.1790
   38loPI   C6A  604   1.728  10.021   8.276 -0.0847  0.0286  0.2209
   38loPI   C1B  605   0.719   9.951   9.901 -0.1282 -0.1177 -0.0237
   38loPI   C2B  606   0.740  10.172   9.639  0.0922 -0.1779 -0.0644
   38loPI   C3B  607   0.598  10.137   9.227  0.2101  0.2282  0.1032
   38loPI   C4B  608   0.727  10.199   8.848 -0.0060 -0.0301  0.2086
   39loPI    C1  609  13.736   6.431  10.827 -0.2271  0.2442 -0.0554
   39loPI    C2  610  14.023   6.708  10.855  0.0291 -0.0155 -0.0618
   39loPI    C3  611  13.837   6.578  11.185 -0.2465  0.3178 -0.0799
   39loPI   PO4  612  13.641   6.559  10.578  0.1382  0.0112  0.0250
   39loPI   GL1  613  13.347   6.639  10.199  0.0806 -0.1451 -0.0007
   39loPI   GL2  614  13.509   6.879  10.038  0.0552  0.1758  0.1655
   39loPI   C1A  615  13.253   6.400   9.853 -0.2754 -0.1224  0.1639
   39loPI   C2A  616  13.180   6.277   9.401  0.1927 -0.1682 -0.0970
   39loPI   C3A  617  13.266   6.396   8.981 -0.0193  0.0913  0.1182
   39loPI   C4A  618  13.179   6.378   8.480 -0.0811 -0.2880  0.4083
   39loPI   C5A  619  13.089   6.043   8.150  0.1463 -0.1377 -0.1153
   39loPI   C6A  620  13.105   5.798   7.872 -0.1014 -0.0258 -0.1900
   39loPI   C1B  621  13.349   6.818   9.612 -0.2715  0.3801 -0.1572
   39loPI   C2B  622  13.258   6.866   9.164  0.0156  0.2659  0.2197
   39loPI   C3B  623  13.364   7.081   8.806 -0.0132  0.3047 -0.3415
   39loPI   C4B  624  13.615   7.077   8.338  0.0338 -0.1657  0.0146
   40loPI    C1  625   0.666  11.881  11.136  0.1696 -0.1088  0.0951
   40loPI    C2  626   1.022  11.966  11.297  0.0866 -0.0080  0.2278
   40loPI    C3  627   0.732  11.810  11.524  0.0292 -0.0422  0.1320
   40loPI   PO4  628   0.747  11.938  10.839  0.0478  0.4014 -0.1490
   40loPI   GL1  629   0.849  11.966  10.444  0.1698  0.2087 -0.1888
   40loPI   GL2  630   0.955  11.738  10.390 -0.0393 -0.0332  0.1409
   40loPI   C1A  631   0.748  12.205  10.195  0.3337 -0.2799  0.0198
   40loPI   C2A  632   0.733  12.305   9.854 -0.0707 -0.1490  0.0054
   40loPI   C3A  633   0.941  12.417   9.489 -0.0554  0.1665 -0.1316
   40loPI   C4A  634   0.866  12.556   9.220 -0.0038 -0.2157  0.2135
   40loPI   C5A  635   0.688  12.538   8.829 -0.1481  0.3476 -0.0682
   40loPI   C6A  636   0.694  12.411   8.405  0.0353  0.0668  0.0240
   40loPI   C1B  637   1.124  11.803  10.005 -0.0185 -0.0582  0.0918
   40loPI   C2B  638   1.052  11.863   9.559  0.0368  0.1162 -0.0250
   40loPI   C3B  639   0.999  12.047   9.187  0.0173 -0.1338  0.2439
   40loPI   C4B  640   0.921  12.120   8.764 -0.1035  0.3104 -0.0116
   41loPI    C1  641  13.083   1.599  11.042 -0.0212 -0.1101  0.0184
   41loPI    C2  642  13.216   1.810  11.355  0.0707  0.0402 -0.1203
   41loPI    C3  643  13.124   1.423  11.399 -0.0823  0.1033  0.1319
   41loPI   PO4  644  13.185   1.706  10.790 -0.1423 -0.0558 -0.0990
   41loPI   GL1  645  13.136   1.585  10.370 -0.2310 -0.3382 -0.0915
   41loPI   GL2  646  12.817   1.637  10.160  0.0003 -0.0886 -0.2961
   41loPI   C1A  647  13.528   1.520  10.130 -0.0553  0.0351  0.1144
   41loPI   C2A  648  13.492   1.376   9.714 -0.2965 -0.2726 -0.2927
   41loPI   C3A  649  13.488   1.332   9.329  0.2243  0.2002  0.3806
   41loPI   C4A  650  13.506   1.351   8.837 -0.0042  0.0594  0.1204
   41loPI   C5A  651  13.398   1.465   8.475 -0.1547  0.0882 -0.1850
   41loPI   C6A  652  12.962   1.434   8.323  0.1064 -0.1012 -0.2475
   41loPI   C1B  653  12.690   1.589   9.713 -0.1355 -0.0334 -0.2711
   41loPI   C2B  654  12.634   1.524   9.270  0.0729  0.1371  0.0203
   41loPI   C3B  655  12.505   1.544   8.887  0.0599 -0.0306  0.1052
   41loPI   C4B  656  12.595   1.702   8.517 -0.1255 -0.2634 -0.0946
   42loPI    C1  657   1.920  15.937  11.100  0.2932  0.0137  0.1122
   42loPI    C2  658   1.660  15.754  11.344 -0.1249  0.4109 -0.0211
   42loPI    C3  659   1.976  15.948  11.496 -0.1190  0.2546  0.1698
   42loPI   PO4  660   1.925  15.724  10.878  0.0958  0.1568  0.1077
   42loPI   GL1  661   1.885  15.637  10.563 -0.0330 -0.2462 -0.2497
   42loPI   GL2  662   1.779  15.300  10.482  0.0661  0.0099  0.2898
   42loPI   C1A  663   1.756  15.611  10.132 -0.3235  0.1407  0.0727
   42loPI   C2A  664   1.855  15.614   9.708  0.1270 -0.2933 -0.0752
   42loPI   C3A  665   1.826  15.535   9.288 -0.0504 -0.4254 -0.0013
   42loPI   C4A  666   1.540  15.532   9.029 -0.3237  0.3612  0.0854
   42loPI   C5A  667   1.368  15.444   8.662  0.5654  0.3221 -0.1262
   42loPI   C6A  668   0.932  15.475   8.541 -0.2938 -0.1562 -0.2146
   42loPI   C1B  669   1.942  15.107  10.042  0.0760 -0.0811 -0.0167
   42loPI   C2B  670   1.997  15.011   9.616  0.0189 -0.0266  0.0198
   42loPI   C3B  671   1.907  15.092   9.030 -0.0597  0.1016  0.1420
   42loPI   C4B  672   1.796  15.078   8.550  0.1725 -0.1437  0.0695
   43loPI    C1  673  10.903  10.326  10.569 -0.0351  0.1384  0.2553
   43loPI    C2  674  10.706  10.016  10.729 -0.1599  0.0651 -0.0351
   43loPI    C3  675  11.080   9.968  10.596 -0.1642  0.0496 -0.0415
   43loPI   PO4  676  10.703  10.476  10.505 -0.4365 -0.1573  0.0122
   43loPI   GL1  677  10.290  10.491  10.308  0.1193  0.2868 -0.0250
   43loPI   GL2  678  10.308  10.180  10.401  0.3561 -0.0880 -0.1832
   43loPI   C1A  679  10.417  10.730   9.918  0.3836 -0.0842 -0.0352
   43loPI   C2A  680  10.510  10.862   9.539  0.1278 -0.0996  0.0717
   43loPI   C3A  681  10.492  10.803   9.095  0.2945 -0.0983  0.0279
   43loPI   C4A  682  10.436  10.932   8.624 -0.1011  0.1084 -0.0967
   43loPI   C5A  683  10.695  10.927   8.277 -0.3110  0.1472  0.0559
   43loPI   C6A  684  10.993  10.624   8.068  0.2915  0.3397  0.2637
   43loPI   C1B  685  10.312  10.089   9.932  0.0850  0.0415 -0.1066
   43loPI   C2B  686  10.338  10.350   9.574  0.3132 -0.1202 -0.1690
   43loPI   C3B  687  10.081  10.483   9.125  0.1293  0.1233 -0.1960
   43loPI   C4B  688  10.120  10.481   8.668 -0.0390  0.1001 -0.0145
   44loPI    C1  689   5.770  11.562  11.307  0.2540  0.0098  0.0247
   44loPI    C2  690   5.379  11.643  11.275  0.3112  0.2299 -0.1374
   44loPI    C3  691   5.520  11.464  11.604  0.0611  0.0652 -0.1173
   44loPI   PO4  692   5.815  11.668  11.054 -0.0273  0.4362  0.2008
   44loPI   GL1  693   6.056  11.674  10.706 -0.1956 -0.1286  0.0281
   44loPI   GL2  694   5.998  11.356  10.582 -0.2350  0.1616 -0.0951
   44loPI   C1A  695   5.903  11.807  10.358  0.0951  0.0791 -0.0675
   44loPI   C2A  696   5.840  11.879  10.000 -0.3910  0.0020  0.2945
   44loPI   C3A  697   5.824  11.857   9.544  0.1507  0.2450 -0.1569
   44loPI   C4A  698   5.939  11.904   9.177  0.0118 -0.1159 -0.2194
   44loPI   C5A  699   5.922  11.936   8.738  0.1231 -0.1366 -0.1534
   44loPI   C6A  700   6.106  11.713   8.392 -0.0259 -0.1557  0.1364
   44loPI   C1B  701   6.041  11.332  10.093  0.0762  0.0956  0.1850
   44loPI   C2B  702   6.039  11.392   9.687  0.2482 -0.1133 -0.1312
   44loPI   C3B  703   6.079  11.406   9.236  0.1145 -0.0237 -0.0762
   44loPI   C4B  704   6.018  11.438   8.813 -0.0422 -0.1701  0.3091
   45loPI    C1  705  11.338   0.054  11.632 -0.1841  0.0780 -0.0954
   45loPI    C2  706  10.987   0.067  11.823 -0.1166  0.2677  0.0182
   45loPI    C3  707  11.265   0.345  11.896  0.0703  0.1004 -0.0472
   45loPI   PO4  708  11.273   0.071  11.317  0.1234 -0.0167 -0.0474
   45loPI   GL1  709  11.111  -0.234  10.979 -0.0688  0.0533 -0.1647
   45loPI   GL2  710  11.427  -0.399  10.825 -0.2584  0.3073  0.2546
   45loPI   C1A  711  11.115  -0.009  10.600 -0.0067  0.1791 -0.0079
   45loPI   C2A  712  11.089   0.043  10.097  0.1024  0.0184  0.0718
   45loPI   C3A  713  11.116   0.063   9.636  0.2807 -0.1193  0.1130
   45loPI   C4A  714  11.211   0.121   9.186 -0.2495 -0.1208  0.2252
   45loPI   C5A  715  11.154   0.508   9.020  0.1896 -0.0007 -0.1039
   45loPI   C6A  716  11.374   0.744   8.600  0.0625 -0.0685 -0.2252
   45loPI   C1B  717  11.340  -0.459  10.353  0.0198  0.3241  0.2412
   45loPI   C2B  718  11.267  -0.455   9.932 -0.0337 -0.1499  0.0443
   45loPI   C3B  719  11.298  -0.422   9.507  0.0549 -0.2358  0.0380
   45loPI   C4B  720  11.157  -0.395   9.127  0.2976  0.0411  0.1839
   46loPI    C1  721  12.219  16.564  11.136  0.4595  0.1886  0.0798
   46loPI    C2  722  12.195  16.836  11.428 -0.2317 -0.0588  0.2735
   46loPI    C3  723  12.191  16.446  11.517  0.0575 -0.1388 -0.0434
   46loPI   PO4  724  12.193  16.580  10.899  0.2900 -0.3451 -0.3840
   46loPI   GL1  725  12.256  16.348  10.430  0.1599  0.2797 -0.1386
   46loPI   GL2  726  12.001  16.591  10.409 -0.4334  0.1794 -0.1375
   46loPI   C1A  727  12.387  16.328  10.036 -0.1150 -0.1745 -0.0987
   46loPI   C2A  728  12.531  16.339   9.651 -0.3287  0.0671  0.3057
   46loPI   C3A  729  12.618  16.053   9.228 -0.1733  0.2678 -0.0477
   46loPI   C4A  730  12.740  16.089   8.840 -0.0061  0.2021  0.2716
   46loPI   C5A  731  12.495  16.246   8.502  0.0791 -0.1086 -0.2472
   46loPI   C6A  732  12.205  16.407   8.214  0.2201 -0.1173 -0.2953
   46loPI   C1B  733  11.968  16.617   9.991  0.0363  0.0157 -0.0715
   46loPI   C2B  734  12.051  16.626   9.593  0.0646  0.1344 -0.2111
   46loPI   C3B  735  11.895  16.695   9.176  0.0376  0.0365 -0.0243
   46loPI   C4B  736  11.819  16.686   8.818 -0.0938  0.1432  0.0767
   47loPI    C1  737   0.530  13.863  10.686 -0.0216 -0.1233  0.0694
   47loPI    C2  738   0.474  14.080  11.017  0.4110  0.0316  0.0476
   47loPI    C3  739   0.623  13.710  11.043 -0.1670 -0.2098  0.0707
   47loPI   PO4  740   0.339  13.884  10.534 -0.2414  0.0048 -0.0671
   47loPI   GL1  741   0.301  14.144  10.193 -0.2238  0.0683  0.0865
   47loPI   GL2  742   0.538  14.486  10.080  0.2566 -0.2245 -0.0349
   47loPI   C1A  743   0.387  13.986   9.745 -0.0357 -0.1471 -0.2464
   47loPI   C2A  744   0.385  14.030   9.265  0.0011  0.1908 -0.0746
   47loPI   C3A  745   0.663  13.970   8.864  0.2283 -0.0173 -0.1642
   47loPI   C4A  746   0.752  13.809   8.518 -0.0587 -0.0637 -0.1825
   47loPI   C5A  747   0.814  13.698   8.115 -0.1238 -0.1467  0.0377
   47loPI   C6A  748   1.243  13.356   7.972  0.1682 -0.1572  0.2324
   47loPI   C1B  749   0.618  14.560   9.698 -0.0219 -0.1790 -0.0347
   47loPI   C2B  750   0.482  14.759   9.289 -0.1201  0.0512 -0.0367
   47loPI   C3B  751   0.456  14.941   8.873  0.1956  0.2165 -0.0629
   47loPI   C4B  752   0.490  15.145   8.508 -0.1533 -0.1176  0.1486
   48loPI    C1  753   2.141   6.383  10.260 -0.0623 -0.0803 -0.3930
   48loPI    C2  754   1.770   6.526  10.220 -0.0080  0.2070  0.0505
   48loPI    C3  755   1.830   6.132  10.254 -0.2990  0.1761  0.2386
   48loPI   PO4  756   2.256   6.511  10.102  0.2126 -0.0088 -0.2693
   48loPI   GL1  757   2.427   6.655   9.712  0.3837 -0.1988  0.0855
   48loPI   GL2  758   2.480   6.307   9.694 -0.1561  0.1419 -0.1645
   48loPI   C1A  759   2.473   6.655   9.313  0.1231 -0.1184  0.0769
   48loPI   C2A  760   2.472   6.645   8.838 -0.1879  0.1958 -0.0401
   48loPI   C3A  761   2.392   6.743   8.350 -0.1930  0.1432  0.3833
   48loPI   C4A  762   2.348   6.993   7.927  0.1137 -0.0803 -0.1315
   48loPI   C5A  763   2.094   7.115   7.654  0.0532  0.0023  0.2067
   48loPI   C6A  764   2.119   7.219   7.277 -0.1921 -0.0117  0.0462
   48loPI   C1B  765   2.428   6.115   9.268 -0.0235 -0.0265 -0.1606
   48loPI   C2B  766   2.408   6.141   8.807 -0.0754  0.0318 -0.0439
   48loPI   C3B  767   2.326   6.282   8.453  0.0039  0.2103  0.2219
   48loPI   C4B  768   2.293   6.361   8.004 -0.3531 -0.2727  0.1779
   49loPI    C1  769   4.761   6.196  10.326 -0.3592  0.0254 -0.2054
   49loPI    C2  770   4.845   6.373  10.675  0.0343 -0.0860 -0.2382
   49loPI    C3  771   4.595   6.061  10.664  0.0574 -0.1124 -0.0486
   49loPI   PO4  772   4.641   6.429  10.173  0.1998  0.0876 -0.2202
   49loPI   GL1  773   4.726   6.669   9.906  0.0809  0.1290 -0.0732
   49loPI   GL2  774   4.931   6.346   9.774  0.0318 -0.1626  0.2880
   49loPI   C1A  775   4.536   6.822   9.551  0.1596  0.1597 -0.1399
   49loPI   C2A  776   4.434   6.916   9.099 -0.0727  0.0163  0.0435
   49loPI   C3A  777   4.442   6.727   8.718 -0.1504 -0.3344  0.1245
   49loPI   C4A  778   4.180   6.561   8.402  0.2239 -0.2558  0.0070
   49loPI   C5A  779   4.265   6.528   8.071  0.0839  0.0111 -0.0656
   49loPI   C6A  780   4.539   6.566   7.700  0.1125 -0.2467 -0.2787
   49loPI   C1B  781   4.798   6.424   9.309 -0.1645 -0.0809 -0.1683
   49loPI   C2B  782   4.870   6.460   8.873 -0.1946 -0.1208  0.1616
   49loPI   C3B  783   4.711   6.380   8.506 -0.1495 -0.1023 -0.4144
   49loPI   C4B  784   4.739   6.204   8.150 -0.1477 -0.2274 -0.0393
   50loPI    C1  785  10.571  12.604  10.900 -0.0508 -0.0222  0.0762
   50loPI    C2  786  10.505  12.227  10.785 -0.0811 -0.0391  0.1484
   50loPI    C3  787  10.786  12.307  11.059  0.0914  0.0160 -0.0427
   50loPI   PO4  788  10.629  12.725  10.667  0.0719  0.0018  0.3909
   50loPI   GL1  789  10.470  12.902  10.314  0.2305 -0.2988 -0.3161
   50loPI   GL2  790  10.143  13.096  10.209 -0.3006 -0.1279 -0.1271
   50loPI   C1A  791  10.738  12.892   9.875  0.0050  0.1002  0.4316
   50loPI   C2A  792  10.740  12.719   9.534 -0.1742  0.0537 -0.0289
   50loPI   C3A  793  10.377  12.769   9.211  0.0049 -0.0335  0.4366
   50loPI   C4A  794  10.316  12.771   8.833 -0.1144  0.2261  0.1773
   50loPI   C5A  795   9.879  12.780   8.590  0.2566 -0.2346 -0.1376
   50loPI   C6A  796   9.787  12.733   8.221  0.3637 -0.1483  0.1137
   50loPI   C1B  797  10.251  13.228   9.868  0.1431  0.1713  0.3489
   50loPI   C2B  798  10.178  13.320   9.353 -0.2200  0.0012 -0.0493
   50loPI   C3B  799  10.312  13.211   9.028 -0.0751 -0.2015 -0.0806
   50loPI   C4B  800  10.440  13.373   8.632 -0.0517 -0.0189  0.1596
   51loPI    C1  801  12.068   8.265  10.457  0.0652  0.0832 -0.0773
   51loPI    C2  802  11.723   8.148  10.621  0.0834 -0.1903 -0.2280
   51loPI    C3  803  12.067   7.984  10.741  0.1721  0.1323 -0.0273
   51loPI   PO4  804  12.179   8.491  10.452  0.2371 -0.0749 -0.0556
   51loPI   GL1  805  12.102   8.757  10.119  0.1326 -0.0312  0.1121
   51loPI   GL2  806  12.419   8.719  10.055  0.0633 -0.2699  0.2115
   51loPI   C1A  807  11.818   8.730   9.775  0.0976  0.1487  0.0245
   51loPI   C2A  808  11.867   8.724   9.364 -0.1538 -0.0691 -0.2030
   51loPI   C3A  809  11.876   8.706   8.982  0.0364  0.1699  0.1555
   51loPI   C4A  810  11.708   8.960   8.833 -0.0209  0.0578  0.1925
   51loPI   C5A  811  11.852   9.215   8.500 -0.1125  0.2792 -0.1681
   51loPI   C6A  812  11.944   9.139   7.979  0.1043 -0.2503 -0.1971
   51loPI   C1B  813  12.347   8.717   9.516  0.3172 -0.1847  0.0534
   51loPI   C2B  814  12.361   8.736   9.113  0.0371 -0.1443 -0.1315
   51loPI   C3B  815  12.342   8.913   8.738 -0.0215  0.1669 -0.4738
   51loPI   C4B  816  12.361   9.225   8.490  0.1950  0.0218 -0.1445
   52loPI    C1  817   8.656   4.277  10.970 -0.0880  0.1217  0.1574
   52loPI    C2  818   8.752   3.906  11.084  0.2188  0.2072  0.1864
   52loPI    C3  819   8.941   4.075  10.775  0.0818  0.3414  0.1747
   52loPI   PO4  820   8.366   4.349  10.832  0.0004  0.0881  0.3861
   52loPI   GL1  821   8.344   4.336  10.331 -0.0216  0.1189  0.2372
   52loPI   GL2  822   8.100   4.101  10.150  0.1581  0.0486  0.0290
   52loPI   C1A  823   8.533   4.437   9.892 -0.0809  0.2738 -0.0716
   52loPI   C2A  824   8.420   4.509   9.550  0.0419  0.2078 -0.1699
   52loPI   C3A  825   8.153   4.469   9.225  0.2286 -0.0103 -0.1363
   52loPI   C4A  826   8.063   4.540   8.787  0.0791  0.3221  0.1276
   52loPI   C5A  827   7.811   4.522   8.460  0.1728  0.0950 -0.0497
   52loPI   C6A  828   7.902   4.289   8.127 -0.2157  0.3132 -0.0804
   52loPI   C1B  829   8.240   4.047   9.716 -0.1378  0.0826 -0.0015
   52loPI   C2B  830   8.288   3.970   9.300  0.0556 -0.0155 -0.3169
   52loPI   C3B  831   8.318   4.102   8.922  0.2475 -0.0348 -0.0740
   52loPI   C4B  832   8.347   4.032   8.459 -0.2459  0.1294  0.1567
   53loPI    C1  833  13.988  14.123  11.028 -0.2329 -0.1332  0.1072
   53loPI    C2  834  13.666  14.171  10.797 -0.1615 -0.0493  0.0245
   53loPI    C3  835  13.623  14.125  11.192 -0.2694  0.0597  0.0261
   53loPI   PO4  836  14.239  14.260  10.867  0.0614 -0.2349 -0.1157
   53loPI   GL1  837  14.530  14.469  10.625  0.3733 -0.2945  0.2494
   53loPI   GL2  838  14.658  14.701  10.508  0.0431  0.2493 -0.1016
   53loPI   C1A  839  14.501  14.233  10.250 -0.0953 -0.0418  0.1934
   53loPI   C2A  840  14.558  14.251   9.863 -0.1440  0.1223  0.0840
   53loPI   C3A  841  14.671  14.319   9.500 -0.0330 -0.2199  0.0251
   53loPI   C4A  842  14.598  14.226   9.090  0.0710  0.0320  0.0220
   53loPI   C5A  843  14.524  14.224   8.676  0.1177  0.3560 -0.0931
   53loPI   C6A  844  14.347  14.195   8.264 -0.1104 -0.0216 -0.0083
   53loPI   C1B  845  14.825  14.666  10.116 -0.1208 -0.1488  0.0213
   53loPI   C2B  846  15.072  14.643   9.693  0.0275  0.1580  0.0070
   53loPI   C3B  847  14.927  14.610   9.262  0.0437  0.1341  0.1122
   53loPI   C4B  848  14.843  14.642   8.842 -0.0762 -0.0034 -0.1773
   54loPI    C1  849   1.219  15.781  11.145 -0.2304 -0.1994 -0.0200
   54loPI    C2  850   1.221  16.039  11.450  0.0205 -0.1161 -0.0900
   54loPI    C3  851   1.116  15.658  11.511 -0.0599 -0.0687  0.0729
   54loPI   PO4  852   1.397  15.916  10.918  0.1855  0.1588 -0.2193
   54loPI   GL1  853   1.301  16.170  10.489 -0.2328  0.4707  0.1381
   54loPI   GL2  854   1.536  16.074  10.321 -0.0306  0.0691  0.0786
   54loPI   C1A  855   1.142  16.334  10.151  0.0686  0.3380  0.2359
   54loPI   C2A  856   1.075  16.427   9.790  0.0266 -0.0605 -0.0955
   54loPI   C3A  857   1.084  16.303   9.389 -0.1297  0.1174 -0.0052
   54loPI   C4A  858   1.105  16.208   8.948 -0.1439  0.0699  0.0040
   54loPI   C5A  859   1.100  15.852   8.840 -0.2099 -0.2511 -0.1462
   54loPI   C6A  860   1.031  15.527   9.034 -0.0184 -0.1303  0.2830
   54loPI   C1B  861   1.749  16.051   9.940 -0.0566  0.3868 -0.2634
   54loPI   C2B  862   1.950  16.131   9.537 -0.1483 -0.0055  0.2042
   54loPI   C3B  863   2.056  16.306   9.031  0.0201  0.0024 -0.0593
   54loPI   C4B  864   2.038  16.282   8.599 -0.1826 -0.2771  0.1720
   55loPI    C1  865   5.445   7.509  10.728  0.0184 -0.0470  0.3733
   55loPI    C2  866   5.155   7.245  10.808 -0.0421 -0.0614  0.1163
   55loPI    C3  867   5.100   7.633  10.888 -0.1184 -0.0688  0.1005
   55loPI   PO4  868   5.523   7.435  10.457 -0.3705 -0.1594  0.0412
   55loPI   GL1  869   5.454   7.483  10.007 -0.2625  0.0707  0.3562
   55loPI   GL2  870   5.740   7.381   9.943  0.1555  0.1380 -0.4533
   55loPI   C1A  871   5.382   7.597   9.546  0.1391 -0.2771 -0.1187
   55loPI   C2A  872   5.332   7.591   9.119 -0.2135 -0.3233  0.1749
   55loPI   C3A  873   5.247   7.563   8.750  0.2179  0.0627 -0.0432
   55loPI   C4A  874   5.143   7.363   8.439 -0.0052 -0.2694 -0.2200
   55loPI   C5A  875   4.905   7.277   8.143 -0.1577 -0.0708 -0.1058
   55loPI   C6A  876   4.785   7.050   7.690  0.2401  0.2233 -0.1682
   55loPI   C1B  877   5.846   7.366   9.554  0.1200 -0.1209 -0.0374
   55loPI   C2B  878   5.846   7.358   9.049  0.3383 -0.1597 -0.2040
   55loPI   C3B  879   6.026   7.295   8.645 -0.0457  0.1183  0.1418
   55loPI   C4B  880   6.222   7.535   8.362 -0.1651  0.3442  0.0360
   56loPI    C1  881   0.576   0.516  11.298  0.0101 -0.1476 -0.0605
   56loPI    C2  882   0.238   0.305  11.325 -0.0230 -0.0792  0.0656
   56loPI    C3  883   0.402   0.462  11.654 -0.0044  0.1005 -0.0284
   56loPI   PO4  884   0.537   0.365  10.933 -0.0984  0.2604  0.0017
   56loPI   GL1  885   0.425   0.259  10.439  0.2395  0.0409  0.1913
   56loPI   GL2  886   0.337   0.552  10.343  0.0065  0.1372 -0.1813
   56loPI   C1A  887   0.189  -0.082  10.064  0.0158  0.1073  0.4976
   56loPI   C2A  888   0.125  -0.011   9.688  0.1103  0.1578 -0.0986
   56loPI   C3A  889   0.147   0.109   9.209  0.1458  0.0974  0.2758
   56loPI   C4A  890   0.140   0.204   8.719  0.1105  0.1127 -0.4351
   56loPI   C5A  891  -0.117   0.243   8.364 -0.1897  0.2569  0.1751
   56loPI   C6A  892  -0.423   0.214   8.037  0.4017 -0.0438  0.1127
   56loPI   C1B  893   0.070   0.404  10.019 -0.2373 -0.0582  0.0119
   56loPI   C2B  894  -0.041   0.460   9.602  0.1893  0.0538  0.1123
   56loPI   C3B  895  -0.089   0.524   9.165  0.1599  0.0624 -0.1568
   56loPI   C4B  896  -0.192   0.552   8.719 -0.2818 -0.1725 -0.3084
   57loPI    C1  897   8.788   0.364  11.403 -0.0522 -0.0966  0.1979
   57loPI    C2  898   8.420   0.522  11.403 -0.0087  0.0058  0.1882
   57loPI    C3  899   8.678   0.616  11.694  0.0592  0.0511  0.1138
   57loPI   PO4  900   8.733   0.104  11.252 -0.2075 -0.0446 -0.0391
   57loPI   GL1  901   9.025   0.052  11.016  0.0210 -0.0456 -0.2201
   57loPI   GL2  902   8.984   0.265  10.682 -0.2503  0.2713  0.2502
   57loPI   C1A  903   9.048  -0.208  10.587 -0.2140  0.0548 -0.0163
   57loPI   C2A  904   8.888  -0.476  10.138 -0.1921 -0.0347 -0.1249
   57loPI   C3A  905   8.853  -0.456   9.737 -0.0865 -0.3041  0.2256
   57loPI   C4A  906   8.785  -0.446   9.363 -0.0766  0.1842  0.0507
   57loPI   C5A  907   8.601  -0.312   8.887 -0.2107  0.0220  0.1647
   57loPI   C6A  908   8.292  -0.052   8.812 -0.0085  0.0750 -0.1952
   57loPI   C1B  909   9.173   0.230  10.249  0.2167  0.3422  0.1337
   57loPI   C2B  910   9.247  -0.072   9.862  0.0367 -0.1889  0.0341
   57loPI   C3B  911   9.167  -0.078   9.370  0.0974 -0.0254  0.1551
   57loPI   C4B  912   9.220  -0.154   8.945 -0.0483 -0.0952  0.0637
   58loPI    C1  913  14.086   2.232  10.996 -0.0836  0.1660  0.0978
   58loPI    C2  914  13.868   2.362  11.305 -0.1795  0.0379  0.0846
   58loPI    C3  915  14.138   2.603  11.136 -0.2814  0.1837  0.1276
   58loPI   PO4  916  13.933   2.074  10.698  0.0919  0.1024  0.0218
   58loPI   GL1  917  13.848   1.963  10.230  0.2775  0.0700  0.1452
   58loPI   GL2  918  14.120   2.154  10.144 -0.0067 -0.2526  0.3710
   58loPI   C1A  919  13.796   1.805   9.874  0.0895  0.0403 -0.0626
   58loPI   C2A  920  13.765   1.747   9.482 -0.0211  0.5104 -0.0880
   58loPI   C3A  921  13.797   1.711   9.027  0.1822  0.0985 -0.0443
   58loPI   C4A  922  13.838   1.708   8.610  0.1014 -0.0551 -0.0793
   58loPI   C5A  923  13.618   2.014   8.388  0.0378  0.1366  0.3316
   58loPI   C6A  924  13.381   1.850   8.064  0.2337  0.1555 -0.2789
   58loPI   C1B  925  14.168   2.140   9.667  0.0965  0.0609  0.2118
   58loPI   C2B  926  14.065   2.072   9.257 -0.0235 -0.1236  0.0873
   58loPI   C3B  927  14.150   2.102   8.907 -0.0134  0.0051 -0.1414
   58loPI   C4B  928  14.071   2.363   8.586  0.0415  0.1629 -0.1102
   59loPI    C1  929   1.248   3.999  10.276 -0.0291 -0.0124  0.0094
   59loPI    C2  930   1.318   4.287  10.545 -0.2351 -0.2235  0.2961
   59loPI    C3  931   1.588   3.997  10.488 -0.0909 -0.0563  0.1086
   59loPI   PO4  932   1.205   4.084  10.073 -0.3174  0.2559  0.0072
   59loPI   GL1  933   1.212   3.764   9.787  0.0688  0.0416  0.0040
   59loPI   GL2  934   1.105   3.390   9.733  0.3026  0.1035  0.0967
   59loPI   C1A  935   1.408   3.612   9.388  0.3792 -0.0157  0.4529
   59loPI   C2A  936   1.452   3.418   8.930  0.0484  0.1808 -0.2464
   59loPI   C3A  937   1.385   3.365   8.537 -0.0659 -0.0173  0.0895
   59loPI   C4A  938   1.654   3.308   8.127  0.0579  0.3651  0.1104
   59loPI   C5A  939   1.995   3.410   7.820 -0.1732 -0.0129 -0.3249
   59loPI   C6A  940   2.121   3.802   7.672 -0.3844  0.2680  0.2610
   59loPI   C1B  941   1.294   3.124   9.237  0.2345  0.3815  0.1921
   59loPI   C2B  942   1.116   2.979   8.823  0.0224  0.0860  0.0130
   59loPI   C3B  943   1.271   2.633   8.815  0.3036 -0.0516  0.3311
   59loPI   C4B  944   1.206   2.282   8.476 -0.1272  0.0915  0.1859
   60loPI    C1  945  17.266   2.819  10.540 -0.0913 -0.0956 -0.0150
   60loPI    C2  946  17.487   2.876  10.211 -0.1970 -0.1559 -0.0973
   60loPI    C3  947  17.660   2.879  10.572 -0.0707 -0.1507 -0.1574
   60loPI   PO4  948  16.958   2.928  10.401  0.0251  0.1227 -0.2859
   60loPI   GL1  949  16.670   2.968  10.067 -0.0723 -0.1774 -0.0795
   60loPI   GL2  950  16.620   2.651  10.137 -0.0209  0.2550 -0.0039
   60loPI   C1A  951  16.589   3.147   9.609  0.2191 -0.1390  0.0879
   60loPI   C2A  952  16.445   3.168   9.195  0.1966 -0.1115  0.0704
   60loPI   C3A  953  16.394   3.176   8.849  0.0678 -0.3638 -0.0028
   60loPI   C4A  954  16.483   3.116   8.444 -0.2370  0.2435 -0.1551
   60loPI   C5A  955  16.447   2.844   8.004  0.1451 -0.2578 -0.0175
   60loPI   C6A  956  16.392   3.025   7.570 -0.0292  0.0187 -0.1107
   60loPI   C1B  957  16.568   2.645   9.632  0.1121  0.0642  0.2634
   60loPI   C2B  958  16.566   2.664   9.131 -0.3984 -0.2109  0.0197
   60loPI   C3B  959  16.523   2.621   8.728  0.1390 -0.1585  0.1087
   60loPI   C4B  960  16.402   2.511   8.339 -0.1960  0.0149 -0.3228
   61loPI    C1  961   3.553  16.717  11.037 -0.1537 -0.2338  0.2082
   61loPI    C2  962   3.249  16.942  11.168 -0.2080 -0.3014  0.1989
   61loPI    C3  963   3.603  16.958  11.353 -0.1281  0.0019  0.0271
   61loPI   PO4  964   3.377  16.538  10.921 -0.3480 -0.1309 -0.1821
   61loPI   GL1  965   3.117  16.449  10.586 -0.4907 -0.2681 -0.0643
   61loPI   GL2  966   3.015  16.251  10.386 -0.0576  0.2920 -0.3510
   61loPI   C1A  967   3.306  16.699  10.208 -0.1777  0.0243  0.0559
   61loPI   C2A  968   3.363  16.671   9.774  0.0826  0.1934 -0.0683
   61loPI   C3A  969   3.382  16.658   9.387 -0.0859  0.1025  0.1780
   61loPI   C4A  970   3.423  16.574   8.909  0.2414 -0.2374 -0.0104
   61loPI   C5A  971   3.505  16.382   8.493 -0.0247 -0.0687 -0.0438
   61loPI   C6A  972   3.524  16.435   8.058  0.3437 -0.0304  0.1016
   61loPI   C1B  973   2.986  16.343  10.037 -0.1177  0.1664 -0.0638
   61loPI   C2B  974   3.004  16.308   9.538 -0.2115 -0.0266  0.1557
   61loPI   C3B  975   3.148  16.190   9.123  0.0056  0.0167  0.0822
   61loPI   C4B  976   3.247  15.993   8.697  0.1769  0.0621  0.1008
   62loPI    C1  977  15.710  12.414  10.986 -0.1204 -0.1583 -0.0383
   62loPI    C2  978  15.645  12.021  10.948  0.0964 -0.1905 -0.0846
   62loPI    C3  979  15.885  12.158  11.238 -0.1005 -0.0795  0.0282
   62loPI   PO4  980  15.764  12.449  10.684  0.2149 -0.2258  0.1343
   62loPI   GL1  981  15.943  12.392  10.351 -0.0802 -0.0762 -0.0827
   62loPI   GL2  982  16.123  11.994  10.269 -0.2309  0.2318  0.0265
   62loPI   C1A  983  15.902  12.478   9.934 -0.1940  0.0612 -0.1801
   62loPI   C2A  984  16.110  12.506   9.544  0.0399 -0.1075 -0.1661
   62loPI   C3A  985  16.172  12.452   9.156 -0.1167 -0.2120  0.0591
   62loPI   C4A  986  16.272  12.566   8.757 -0.3470 -0.1792  0.0101
   62loPI   C5A  987  16.180  12.572   8.374  0.1204  0.1383  0.0825
   62loPI   C6A  988  16.352  12.547   7.984 -0.4071  0.0686 -0.1306
   62loPI   C1B  989  16.216  12.062   9.855 -0.1615  0.0139  0.2074
   62loPI   C2B  990  16.192  11.975   9.424 -0.3620 -0.3530 -0.2245
   62loPI   C3B  991  16.257  12.005   8.968  0.0661  0.1746  0.1134
   62loPI   C4B  992  16.414  12.146   8.560 -0.0325  0.2003  0.3502
   63loPI    C1  993   6.456   6.894  10.660  0.1145 -0.3195  0.1174
   63loPI    C2  994   6.079   6.878  10.793  0.0850  0.0446  0.0896
   63loPI    C3  995   6.370   7.010  11.033  0.1331  0.1184 -0.0086
   63loPI   PO4  996   6.386   6.780  10.407 -0.0457  0.0973  0.3430
   63loPI   GL1  997   6.117   6.746  10.023 -0.0077  0.0220 -0.2886
   63loPI   GL2  998   6.035   6.456   9.876 -0.2023  0.3446  0.0680
   63loPI   C1A  999   5.932   6.874   9.641  0.0998  0.1465 -0.1256
   63loPI   C2A 1000   5.893   6.894   9.262  0.0197 -0.2982  0.0721
   63loPI   C3A 1001   5.894   6.782   8.833  0.1432 -0.2724  0.0181
   63loPI   C4A 1002   5.766   6.553   8.508 -0.0149 -0.0035  0.3143
   63loPI   C5A 1003   5.663   6.641   7.956 -0.0565 -0.1112  0.0897
   63loPI   C6A 1004   5.450   6.446   7.625 -0.0690 -0.1567 -0.0333
   63loPI   C1B 1005   5.999   6.349   9.434 -0.0541 -0.0095  0.2045
   63loPI   C2B 1006   5.978   6.353   9.017  0.0076 -0.0788  0.2390
   63loPI   C3B 1007   6.162   6.355   8.615  0.2989  0.2296  0.1602
   63loPI   C4B 1008   6.404   6.427   8.350  0.0673 -0.0589  0.2868
   64loPI    C1 1009  10.075  13.922  11.150 -0.1755 -0.1433 -0.0670
   64loPI    C2 1010  10.084  13.522  11.139 -0.0360 -0.1395 -0.1122
   64loPI    C3 1011   9.947  13.710  11.465 -0.0385 -0.2233 -0.0646
   64loPI   PO4 1012   9.934  13.947  10.844 -0.1250 -0.1162  0.1657
   64loPI   GL1 1013  10.209  14.089  10.511 -0.2050  0.0053  0.1653
   64loPI   GL2 1014  10.366  14.301  10.766  0.0789  0.0160  0.2666
   64loPI   C1A 1015  10.301  14.093  10.067 -0.0348 -0.3427 -0.1154
   64loPI   C2A 1016  10.412  14.166   9.576 -0.1337 -0.0288 -0.0452
   64loPI   C3A 1017  10.265  14.261   9.136  0.3838  0.0661 -0.2624
   64loPI   C4A 1018  10.351  14.409   8.685  0.2288  0.1909 -0.0431
   64loPI   C5A 1019  10.413  14.246   8.243 -0.0431  0.1919  0.0017
   64loPI   C6A 1020  10.483  14.284   7.864 -0.1484  0.2351  0.2355
   64loPI   C1B 1021  10.578  14.425  10.355  0.3127 -0.0443  0.1223
   64loPI   C2B 1022  10.702  14.515   9.974  0.0539  0.0896 -0.3183
   64loPI   C3B 1023  10.681  14.557   9.465 -0.2761  0.1003 -0.0823
   64loPI   C4B 1024  10.690  14.616   9.069 -0.1711  0.1327  0.1296
   65loPI    C1 1025  14.892  14.180  11.531 -0.1335  0.0239  0.1225
   65loPI    C2 1026  14.857  13.795  11.633 -0.0430  0.0567  0.2796
   65loPI    C3 1027  14.618  14.068  11.800  0.0860  0.1066  0.3845
   65loPI   PO4 1028  14.890  14.183  11.237  0.2616  0.0583 -0.1134
   65loPI   GL1 1029  14.725  14.086  10.810  0.2054 -0.1061 -0.1587
   65loPI   GL2 1030  14.584  13.937  10.608 -0.0128  0.0297  0.1416
   65loPI   C1A 1031  14.999  14.338  10.434 -0.1466  0.1520 -0.1583
   65loPI   C2A 1032  15.094  14.238   9.953  0.0834  0.1548  0.0252
   65loPI   C3A 1033  15.197  14.184   9.564  0.2327 -0.0362  0.1235
   65loPI   C4A 1034  15.121  14.151   9.110  0.0050  0.0008  0.5364
   65loPI   C5A 1035  15.348  14.341   8.822 -0.1712 -0.0038  0.1770
   65loPI   C6A 1036  15.320  14.783   8.870  0.0810  0.0992  0.0569
   65loPI   C1B 1037  14.875  13.863  10.235  0.0493  0.0754  0.1065
   65loPI   C2B 1038  15.016  13.786   9.846 -0.3101  0.0509  0.0254
   65loPI   C3B 1039  14.870  13.770   9.395 -0.2018 -0.0338  0.2197
   65loPI   C4B 1040  14.828  13.748   8.976 -0.3166 -0.0006 -0.0764
   66loPI    C1 1041  16.141  15.669  11.386  0.0294 -0.0174 -0.1327
   66loPI    C2 1042  16.045  16.045  11.292  0.1650  0.0740  0.0866
   66loPI    C3 1043  15.797  15.827  11.517 -0.0313 -0.0545 -0.2457
   66loPI   PO4 1044  16.230  15.581  11.113 -0.1822 -0.0709  0.0082
   66loPI   GL1 1045  16.174  15.766  10.743 -0.3599  0.0381  0.1781
   66loPI   GL2 1046  16.406  15.761  10.661 -0.3850  0.2455 -0.0045
   66loPI   C1A 1047  16.022  15.874  10.348  0.2154 -0.1533  0.2683
   66loPI   C2A 1048  16.011  15.793   9.925 -0.1026  0.1893 -0.1268
   66loPI   C3A 1049  16.076  15.797   9.537 -0.4200 -0.1903 -0.2244
   66loPI   C4A 1050  16.056  15.786   9.034 -0.1390  0.3023  0.1438
   66loPI   C5A 1051  15.859  15.919   8.604 -0.0410 -0.0143  0.0942
   66loPI   C6A 1052  15.948  16.004   8.260 -0.2686  0.1642  0.2331
   66loPI   C1B 1053  16.501  15.783  10.275 -0.3350 -0.1413  0.2658
   66loPI   C2B 1054  16.557  15.780   9.760 -0.0669  0.1784  0.1376
   66loPI   C3B 1055  16.488  15.675   9.314 -0.0737  0.0864 -0.0371
   66loPI   C4B 1056  16.562  15.810   8.931  0.4647 -0.2521 -0.1129
   67loPI    C1 1057   5.321  16.693  11.421  0.1565 -0.2804 -0.0600
   67loPI    C2 1058   5.481  16.716  11.786 -0.0302 -0.0914  0.0121
   67loPI    C3 1059   5.195  16.447  11.710 -0.1881  0.0543  0.0838
   67loPI   PO4 1060   5.467  16.812  11.177  0.1585  0.0837  0.1898
   67loPI   GL1 1061   5.592  16.843  10.798 -0.0382 -0.0614  0.1297
   67loPI   GL2 1062   5.288  16.808  10.623 -0.0270 -0.0110 -0.0056
   67loPI   C1A 1063   5.705  16.800  10.386 -0.0840  0.1164  0.1316
   67loPI   C2A 1064   5.699  16.754   9.970 -0.1844 -0.2677  0.0496
   67loPI   C3A 1065   5.777  16.551   9.610  0.1570  0.1647  0.1338
   67loPI   C4A 1066   5.717  16.581   9.236  0.0130 -0.0121 -0.0917
   67loPI   C5A 1067   5.801  16.536   8.842 -0.1878 -0.3485  0.1722
   67loPI   C6A 1068   5.570  16.812   8.632  0.0351  0.0147  0.1477
   67loPI   C1B 1069   5.219  16.871  10.178 -0.0513 -0.2874 -0.0496
   67loPI   C2B 1070   5.212  16.802   9.768  0.1177 -0.1747  0.0796
   67loPI   C3B 1071   5.186  16.670   9.347  0.1564  0.1477  0.0260
   67loPI   C4B 1072   5.194  16.557   8.835  0.1708 -0.4627  0.0980
   68loPI    C1 1073  15.506  10.341  10.763  0.0211  0.1257  0.0907
   68loPI    C2 1074  15.375  10.052  11.006  0.2238  0.0233  0.0803
   68loPI    C3 1075  15.611  10.342  11.149  0.1386  0.1035  0.0592
   68loPI   PO4 1076  15.424  10.445  10.577 -0.2806 -0.0225 -0.1771
   68loPI   GL1 1077  15.737  10.500  10.245  0.0689 -0.3187 -0.2257
   68loPI   GL2 1078  15.681  10.158  10.253 -0.3201 -0.1290  0.1281
   68loPI   C1A 1079  15.664  10.667   9.933 -0.0489  0.1767  0.1538
   68loPI   C2A 1080  15.667  10.562   9.574 -0.0530 -0.2768  0.1467
   68loPI   C3A 1081  15.735  10.694   9.152  0.0087 -0.0779  0.0788
   68loPI   C4A 1082  15.714  10.701   8.721 -0.0647  0.0162 -0.4496
   68loPI   C5A 1083  15.698  10.630   8.243  0.2159  0.0167  0.1776
   68loPI   C6A 1084  15.714  10.216   8.021 -0.0073 -0.2116 -0.0752
   68loPI   C1B 1085  15.687  10.040   9.793  0.0426  0.0694 -0.0989
   68loPI   C2B 1086  15.751  10.069   9.325  0.2155  0.0805 -0.2344
   68loPI   C3B 1087  15.825  10.173   8.954 -0.1532 -0.0893 -0.0629
   68loPI   C4B 1088  15.878  10.159   8.534  0.0523  0.2234  0.0112
   69loPI    C1 1089  10.288   3.035  10.921  0.0237  0.0376  0.2792
   69loPI    C2 1090  10.308   2.848  11.274  0.0190 -0.0713  0.2221
   69loPI    C3 1091  10.538   3.168  11.204  0.0713 -0.0919  0.2986
   69loPI   PO4 1092  10.390   2.899  10.702  0.3052 -0.0121 -0.2568
   69loPI   GL1 1093  10.433   2.937  10.226  0.1806 -0.0725 -0.0887
   69loPI   GL2 1094  10.534   3.344  10.226 -0.2908 -0.3237  0.0521
   69loPI   C1A 1095  10.300   2.813   9.860 -0.1064 -0.0675 -0.0994
   69loPI   C2A 1096  10.207   2.632   9.506 -0.2383 -0.3181  0.0419
   69loPI   C3A 1097  10.151   2.517   9.118 -0.0856 -0.1832 -0.1170
   69loPI   C4A 1098  10.250   2.263   8.828 -0.1623 -0.1364 -0.1547
   69loPI   C5A 1099  10.218   1.980   8.441  0.3097 -0.0956 -0.0260
   69loPI   C6A 1100  10.080   1.661   8.295  0.3843  0.1252  0.1285
   69loPI   C1B 1101  10.515   3.246   9.780 -0.0014 -0.1803 -0.1113
   69loPI   C2B 1102  10.487   3.263   9.316 -0.0309 -0.2126  0.0441
   69loPI   C3B 1103  10.652   3.046   8.975  0.0335  0.3726 -0.1434
   69loPI   C4B 1104  10.431   2.693   8.689  0.1537 -0.1577  0.1001
   70loPI    C1 1105   8.202  10.818  11.081  0.0962  0.0136  0.1498
   70loPI    C2 1106   7.898  11.039  11.216  0.2258  0.4100 -0.1854
   70loPI    C3 1107   8.255  11.062  11.394  0.1265  0.1258  0.0582
   70loPI   PO4 1108   8.010  10.833  10.782 -0.0780 -0.0300 -0.0310
   70loPI   GL1 1109   8.000  10.707  10.334 -0.0544 -0.0993  0.0215
   70loPI   GL2 1110   8.291  10.580  10.360  0.1854  0.0741 -0.0798
   70loPI   C1A 1111   7.690  10.559  10.009  0.1476  0.5545 -0.1610
   70loPI   C2A 1112   7.675  10.529   9.535 -0.0002 -0.0592 -0.1691
   70loPI   C3A 1113   7.708  10.677   9.141  0.0098  0.0673  0.3977
   70loPI   C4A 1114   7.660  10.644   8.660 -0.0210  0.0218 -0.1190
   70loPI   C5A 1115   7.278  10.652   8.409 -0.1467  0.3194  0.0873
   70loPI   C6A 1116   6.997  10.683   8.053  0.1321 -0.0603 -0.0158
   70loPI   C1B 1117   8.330  10.518   9.940  0.0809 -0.2633  0.3465
   70loPI   C2B 1118   8.430  10.471   9.569  0.1218  0.2068  0.2373
   70loPI   C3B 1119   8.222  10.551   9.173 -0.1635 -0.1804 -0.1637
   70loPI   C4B 1120   8.276  10.429   8.719 -0.0729  0.1123 -0.1311
   71loPI    C1 1121   7.225   3.476  10.735 -0.1035 -0.1207 -0.1109
   71loPI    C2 1122   7.002   3.787  10.852 -0.0800 -0.1594  0.0398
   71loPI    C3 1123   7.234   3.817  10.527 -0.1529 -0.0529 -0.0027
   71loPI   PO4 1124   7.119   3.274  10.675  0.3462 -0.1696  0.0137
   71loPI   GL1 1125   7.100   2.945  10.371  0.0779  0.1333 -0.1958
   71loPI   GL2 1126   6.877   3.034  10.156  0.1723  0.1216  0.0290
   71loPI   C1A 1127   7.305   3.011   9.956 -0.1953  0.1797  0.0378
   71loPI   C2A 1128   7.369   2.910   9.612  0.3457  0.0896 -0.1239
   71loPI   C3A 1129   7.353   2.948   9.243 -0.0382 -0.0310  0.0457
   71loPI   C4A 1130   7.325   2.970   8.795  0.1387 -0.2097 -0.1115
   71loPI   C5A 1131   7.210   3.101   8.429  0.3502  0.3238 -0.2421
   71loPI   C6A 1132   6.888   3.100   8.193 -0.2097 -0.1192 -0.0172
   71loPI   C1B 1133   6.869   3.079   9.701  0.1147 -0.1616 -0.1431
   71loPI   C2B 1134   6.831   3.059   9.235 -0.0201  0.0866 -0.2413
   71loPI   C3B 1135   6.823   2.860   8.816  0.1199 -0.1173  0.2329
   71loPI   C4B 1136   6.720   2.687   8.366 -0.0211  0.3175 -0.0408
   72loPI    C1 1137  11.039  12.808  11.010 -0.1913  0.0721 -0.0238
   72loPI    C2 1138  11.410  12.869  11.147 -0.1303 -0.1261 -0.0966
   72loPI    C3 1139  11.277  12.496  11.089 -0.3120 -0.0540 -0.1516
   72loPI   PO4 1140  11.026  12.999  10.835  0.2085 -0.1412 -0.1679
   72loPI   GL1 1141  10.940  13.096  10.415  0.1394 -0.1285 -0.1380
   72loPI   GL2 1142  11.054  12.833  10.279  0.0166  0.2114  0.1471
   72loPI   C1A 1143  11.156  13.449  10.220  0.1642  0.2822 -0.1704
   72loPI   C2A 1144  11.102  13.487   9.743 -0.4033  0.2278 -0.0887
   72loPI   C3A 1145  11.033  13.485   9.332  0.0842 -0.0188  0.3504
   72loPI   C4A 1146  10.998  13.597   8.992 -0.0286  0.1986  0.1748
   72loPI   C5A 1147  11.337  13.668   8.624 -0.1845 -0.2614  0.0803
   72loPI   C6A 1148  11.601  13.607   8.363 -0.0659 -0.1846  0.2873
   72loPI   C1B 1149  11.199  13.006   9.956  0.0193 -0.2709  0.0457
   72loPI   C2B 1150  11.082  13.023   9.519  0.0325 -0.2976  0.1147
   72loPI   C3B 1151  10.831  13.099   9.151  0.0465  0.2568 -0.0139
   72loPI   C4B 1152  10.840  13.127   8.729 -0.0373 -0.3411  0.0534
   73loPI    C1 1153   7.904   9.739  10.924  0.1035 -0.0682 -0.0225
   73loPI    C2 1154   7.849  10.025  11.198 -0.0849 -0.1062 -0.0193
   73loPI    C3 1155   8.219   9.905  11.105 -0.0151 -0.0118  0.1342
   73loPI   PO4 1156   7.880   9.793  10.637  0.3127 -0.0889  0.0498
   73loPI   GL1 1157   7.776   9.665  10.301 -0.3519  0.1936 -0.2874
   73loPI   GL2 1158   7.423   9.734  10.333 -0.2052  0.0930  0.2069
   73loPI   C1A 1159   8.036   9.456   9.951 -0.0994  0.1101 -0.1063
   73loPI   C2A 1160   8.027   9.465   9.472 -0.2131 -0.1714 -0.0392
   73loPI   C3A 1161   8.046   9.700   9.027 -0.1135 -0.1693 -0.1639
   73loPI   C4A 1162   8.304   9.900   8.637 -0.1187 -0.0742 -0.1578
   73loPI   C5A 1163   8.566  10.096   8.394 -0.3631 -0.4015 -0.0457
   73loPI   C6A 1164   8.812  10.218   8.000 -0.0984  0.1620 -0.0113
   73loPI   C1B 1165   7.509   9.663   9.840  0.0918  0.0912 -0.0942
   73loPI   C2B 1166   7.625   9.712   9.383 -0.0896 -0.2687  0.2755
   73loPI   C3B 1167   7.527   9.798   8.978  0.0495 -0.0254 -0.1656
   73loPI   C4B 1168   7.458  10.096   8.631 -0.1920  0.0329  0.0012
   74loPI    C1 1169  13.002  13.775  10.986  0.1320  0.1414  0.0132
   74loPI    C2 1170  12.738  13.931  11.243  0.0647 -0.1099  0.0990
   74loPI    C3 1171  12.821  13.540  11.254  0.1131 -0.1106 -0.2169
   74loPI   PO4 1172  13.187  13.943  10.965  0.0561  0.1661  0.1122
   74loPI   GL1 1173  13.316  14.094  10.515  0.2259  0.2546  0.2949
   74loPI   GL2 1174  13.258  14.419  10.435 -0.1857 -0.0039  0.0186
   74loPI   C1A 1175  13.510  14.066  10.019  0.0974 -0.2037  0.3317
   74loPI   C2A 1176  13.461  14.051   9.603 -0.1352  0.2582  0.0477
   74loPI   C3A 1177  13.239  14.045   9.274 -0.1938  0.1161  0.0836
   74loPI   C4A 1178  13.132  13.774   8.970  0.0598  0.1114 -0.1010
   74loPI   C5A 1179  12.878  13.635   8.647 -0.0359  0.1323 -0.0452
   74loPI   C6A 1180  12.588  14.025   8.484 -0.1323 -0.0664  0.1387
   74loPI   C1B 1181  13.168  14.517  10.032  0.1270 -0.0933  0.0425
   74loPI   C2B 1182  13.145  14.531   9.503 -0.2867 -0.2727 -0.0837
   74loPI   C3B 1183  12.976  14.530   9.112 -0.0823 -0.0747  0.1373
   74loPI   C4B 1184  12.985  14.199   8.772  0.0796  0.1950 -0.0042
   75loPI    C1 1185  10.261   0.361  11.563  0.0862 -0.0435 -0.0296
   75loPI    C2 1186  10.458   0.710  11.560  0.0733 -0.0365 -0.0765
   75loPI    C3 1187  10.530   0.441  11.848  0.0547  0.0212 -0.0177
   75loPI   PO4 1188  10.139   0.365  11.386  0.0317 -0.1588 -0.1087
   75loPI   GL1 1189  10.197   0.400  10.954 -0.1340  0.1584 -0.0197
   75loPI   GL2 1190  10.242   0.616  10.865 -0.2368  0.1479  0.0835
   75loPI   C1A 1191  10.000   0.162  10.666 -0.0187 -0.2521  0.0644
   75loPI   C2A 1192  10.053   0.259  10.204  0.1030 -0.0985 -0.0008
   75loPI   C3A 1193  10.072   0.351   9.780 -0.1096 -0.3184  0.1672
   75loPI   C4A 1194  10.187   0.216   9.336 -0.1353  0.2641  0.2567
   75loPI   C5A 1195  10.077   0.587   8.980 -0.1338  0.0896  0.1593
   75loPI   C6A 1196  10.390   0.792   8.584  0.1779  0.1103  0.0222
   75loPI   C1B 1197  10.268   0.602  10.485 -0.2660  0.1137  0.0882
   75loPI   C2B 1198  10.334   0.719  10.057 -0.0440  0.1075 -0.1189
   75loPI   C3B 1199  10.442   0.677   9.639 -0.1204  0.3231  0.1861
   75loPI   C4B 1200  10.535   0.602   9.188  0.3782  0.1487  0.1668
   76loPI    C1 1201  12.000  11.980  10.934  0.2044 -0.0296  0.0445
   76loPI    C2 1202  11.680  12.149  11.104 -0.1151 -0.4650 -0.1069
   76loPI    C3 1203  11.925  11.920  11.323  0.0767 -0.1637  0.0000
   76loPI   PO4 1204  11.907  11.856  10.633 -0.2637  0.0001 -0.2018
   76loPI   GL1 1205  11.827  12.079  10.275 -0.2694 -0.2335  0.1116
   76loPI   GL2 1206  11.959  12.318  10.124  0.0870  0.2512 -0.2276
   76loPI   C1A 1207  11.603  11.947   9.922  0.0877 -0.1651  0.0028
   76loPI   C2A 1208  11.623  11.832   9.534  0.1656 -0.1897  0.0299
   76loPI   C3A 1209  11.587  11.733   9.127 -0.1896 -0.1365 -0.2377
   76loPI   C4A 1210  11.698  11.893   8.720  0.0750 -0.0247 -0.2125
   76loPI   C5A 1211  11.677  11.826   8.248 -0.1151 -0.1325 -0.1725
   76loPI   C6A 1212  11.483  12.031   7.964 -0.1741  0.0087  0.1281
   76loPI   C1B 1213  11.706  12.382   9.699  0.2452 -0.0255 -0.0633
   76loPI   C2B 1214  11.675  12.306   9.399 -0.0687 -0.3669 -0.1629
   76loPI   C3B 1215  11.489  12.270   9.005 -0.3040  0.3488  0.0301
   76loPI   C4B 1216  11.765  12.419   8.639 -0.1867 -0.0494  0.1397
   77loPI    C1 1217  17.491   6.129  10.392  0.1381  0.0190  0.0316
   77loPI    C2 1218  17.798   6.227  10.630  0.1352  0.0200  0.0349
   77loPI    C3 1219  17.423   6.315  10.740  0.1230 -0.1052  0.0958
   77loPI   PO4 1220  17.527   6.119  10.113 -0.1540 -0.0057  0.1473
   77loPI   GL1 1221  17.179   6.066   9.842  0.0291 -0.1127 -0.2634
   77loPI   GL2 1222  17.123   5.766   9.821  0.1808 -0.1426  0.1580
   77loPI   C1A 1223  17.356   6.216   9.406 -0.1186 -0.1879  0.0365
   77loPI   C2A 1224  17.459   6.308   9.031  0.1679 -0.0500 -0.2022
   77loPI   C3A 1225  17.521   6.344   8.698 -0.3322  0.0477 -0.1050
   77loPI   C4A 1226  17.258   6.263   8.312 -0.0127  0.1484 -0.0645
   77loPI   C5A 1227  17.101   6.151   7.937 -0.2671 -0.1113 -0.2724
   77loPI   C6A 1228  16.872   6.404   7.668  0.3042 -0.0365  0.0754
   77loPI   C1B 1229  17.116   5.779   9.350 -0.3152 -0.4349  0.1512
   77loPI   C2B 1230  17.204   5.654   8.979  0.2356 -0.2387  0.2217
   77loPI   C3B 1231  17.312   5.882   8.548 -0.1559  0.0228 -0.0217
   77loPI   C4B 1232  17.254   5.713   8.110 -0.0140 -0.0045  0.2095
   78loPI    C1 1233  16.029  17.547  11.121  0.1325 -0.0226  0.0978
   78loPI    C2 1234  15.851  17.283  11.363 -0.1100 -0.3411 -0.4095
   78loPI    C3 1235  16.248  17.335  11.381 -0.1399 -0.2384  0.1559
   78loPI   PO4 1236  16.026  17.436  10.862 -0.3924  0.0447  0.1050
   78loPI   GL1 1237  16.204  17.420  10.464 -0.1031 -0.1178  0.0446
   78loPI   GL2 1238  16.367  17.128  10.445 -0.1568  0.1328 -0.1564
   78loPI   C1A 1239  16.055  17.261  10.047  0.0582  0.0257 -0.1034
   78loPI   C2A 1240  16.074  17.250   9.635  0.1319 -0.2280 -0.0313
   78loPI   C3A 1241  16.114  17.146   9.167 -0.2330  0.0279 -0.2874
   78loPI   C4A 1242  16.041  17.041   8.761 -0.0633  0.1497  0.0435
   78loPI   C5A 1243  16.221  17.269   8.378  0.0070 -0.1539  0.0699
   78loPI   C6A 1244  16.093  17.245   7.895 -0.0867 -0.0699 -0.3357
   78loPI   C1B 1245  16.517  17.120  10.044  0.0356  0.0251 -0.0489
   78loPI   C2B 1246  16.558  17.051   9.635  0.0991  0.1883 -0.0509
   78loPI   C3B 1247  16.615  17.091   9.238  0.0167 -0.0321 -0.1042
   78loPI   C4B 1248  16.548  17.041   8.805 -0.1571 -0.1820  0.2200
   79loPI    C1 1249  11.915   9.578  10.832 -0.0916  0.4163  0.1654
   79loPI    C2 1250  12.233   9.654  11.062  0.0574 -0.1203  0.1517
   79loPI    C3 1251  11.884   9.550  11.229  0.1348 -0.3990  0.1447
   79loPI   PO4 1252  12.057   9.669  10.563  0.2404  0.1014  0.1075
   79loPI   GL1 1253  12.261   9.795  10.225 -0.0999 -0.2132 -0.0393
   79loPI   GL2 1254  12.492   9.653  10.115 -0.2487  0.0324 -0.1042
   79loPI   C1A 1255  12.134   9.898   9.868 -0.0872  0.0677  0.2944
   79loPI   C2A 1256  12.131   9.761   9.508  0.0746 -0.2472 -0.0464
   79loPI   C3A 1257  12.142   9.920   9.067  0.2705 -0.1036 -0.4346
   79loPI   C4A 1258  11.931  10.152   8.664  0.1561 -0.1362  0.1245
   79loPI   C5A 1259  11.856  10.078   8.272 -0.0517  0.4874  0.2031
   79loPI   C6A 1260  11.804  10.250   7.872  0.1920 -0.1316 -0.0813
   79loPI   C1B 1261  12.624   9.658   9.747 -0.0091 -0.0558  0.3177
   79loPI   C2B 1262  12.567   9.680   9.263  0.0272  0.0375 -0.0801
   79loPI   C3B 1263  12.642   9.696   8.745  0.2642  0.0763  0.0097
   79loPI   C4B 1264  12.759   9.504   8.334  0.2591  0.1982 -0.2029
   80loPI    C1 1265  12.163  14.028  11.105  0.1004 -0.1216  0.0207
   80loPI    C2 1266  12.333  13.698  11.254  0.0712 -0.1018  0.0977
   80loPI    C3 1267  12.145  13.955  11.497 -0.1218 -0.1542  0.0061
   80loPI   PO4 1268  12.366  14.120  10.927 -0.1636  0.2848  0.0162
   80loPI   GL1 1269  12.388  14.333  10.614  0.1977  0.2313  0.2560
   80loPI   GL2 1270  12.060  14.296  10.601  0.1776 -0.4033  0.0035
   80loPI   C1A 1271  12.355  14.161  10.168 -0.0953 -0.1746 -0.0195
   80loPI   C2A 1272  12.183  14.081   9.756  0.0238 -0.0232 -0.4732
   80loPI   C3A 1273  12.239  14.115   9.385 -0.1456 -0.0090  0.0478
   80loPI   C4A 1274  12.134  14.221   8.960  0.1141  0.0836  0.0328
   80loPI   C5A 1275  12.184  14.267   8.536 -0.1470  0.1280  0.1492
   80loPI   C6A 1276  12.252  14.150   8.140 -0.2359  0.0729  0.0661
   80loPI   C1B 1277  11.893  14.240  10.223 -0.2944  0.3593  0.1104
   80loPI   C2B 1278  11.662  14.226   9.893  0.1263 -0.0222 -0.0443
   80loPI   C3B 1279  11.689  14.247   9.501  0.0432 -0.2321 -0.0484
   80loPI   C4B 1280  11.667  14.357   9.110 -0.1315 -0.1249  0.3087
   81loPI    C1 1281  11.672  10.421  11.045 -0.1521  0.0419 -0.0277
   81loPI    C2 1282  11.924  10.623  10.809 -0.0826 -0.1479 -0.1186
   81loPI    C3 1283  11.965  10.640  11.207  0.1387 -0.2588 -0.1352
   81loPI   PO4 1284  11.453  10.394  10.795  0.2631  0.3286 -0.0470
   81loPI   GL1 1285  11.386  10.319  10.354 -0.3065 -0.0760  0.2482
   81loPI   GL2 1286  11.188  10.509  10.224  0.1025  0.1623 -0.1172
   81loPI   C1A 1287  11.343   9.961  10.147  0.0877 -0.2876  0.1805
   81loPI   C2A 1288  11.340   9.908   9.708 -0.0290 -0.1914 -0.1981
   81loPI   C3A 1289  11.132   9.947   9.318 -0.5680 -0.0166  0.0337
   81loPI   C4A 1290  11.019   9.854   8.868 -0.0188 -0.0512 -0.1350
   81loPI   C5A 1291  10.995   9.503   8.555  0.1830  0.1301  0.0895
   81loPI   C6A 1292  10.724   9.209   8.469  0.2799  0.4409  0.1432
   81loPI   C1B 1293  11.313  10.409   9.791  0.0993  0.0078 -0.0580
   81loPI   C2B 1294  11.435  10.354   9.373 -0.2550  0.1445  0.0980
   81loPI   C3B 1295  11.680  10.421   8.999 -0.1055 -0.3076  0.2236
   81loPI   C4B 1296  11.589  10.657   8.653  0.0991 -0.2369  0.0616
   82loPI    C1 1297   1.981   0.872  10.893 -0.0990  0.5495  0.0177
   82loPI    C2 1298   1.609   0.874  11.039 -0.0370 -0.0756  0.2136
   82loPI    C3 1299   1.920   0.936  11.283  0.0171 -0.1649  0.1677
   82loPI   PO4 1300   2.027   0.987  10.651  0.0635  0.2791 -0.0544
   82loPI   GL1 1301   1.878   1.034  10.264 -0.2300 -0.0275 -0.1494
   82loPI   GL2 1302   1.723   0.849  10.164 -0.2918  0.0546 -0.3384
   82loPI   C1A 1303   2.028   1.287   9.995 -0.0481  0.1268 -0.1640
   82loPI   C2A 1304   2.129   1.297   9.549  0.1210  0.3767 -0.1716
   82loPI   C3A 1305   2.182   1.203   9.187 -0.1375 -0.2408 -0.1518
   82loPI   C4A 1306   2.016   0.949   8.956 -0.2374  0.1334  0.1984
   82loPI   C5A 1307   2.116   0.937   8.492 -0.2045  0.0846 -0.0478
   82loPI   C6A 1308   2.124   1.178   8.179  0.1585  0.0409 -0.0069
   82loPI   C1B 1309   1.781   0.931   9.724  0.1932  0.0281  0.1161
   82loPI   C2B 1310   1.748   1.012   9.349 -0.2553  0.0794 -0.0147
   82loPI   C3B 1311   1.609   1.248   8.956  0.1372 -0.0117 -0.0430
   82loPI   C4B 1312   1.666   1.227   8.478 -0.1574 -0.0081  0.0025
   83loPI    C1 1313   2.394   0.455  10.958  0.1878  0.0645 -0.1494
   83loPI    C2 1314   2.456   0.850  10.953 -0.1098  0.1148 -0.0420
   83loPI    C3 1315   2.328   0.672  11.287  0.1567 -0.0957 -0.0493
   83loPI   PO4 1316   2.292   0.393  10.723 -0.0377  0.0590  0.1828
   83loPI   GL1 1317   2.618   0.274  10.429  0.0740 -0.0643  0.0755
   83loPI   GL2 1318   2.468  -0.087  10.573 -0.0909  0.0271 -0.1140
   83loPI   C1A 1319   2.522   0.275  10.020 -0.0796 -0.1338  0.1821
   83loPI   C2A 1320   2.543   0.142   9.553  0.2284 -0.3418 -0.0701
   83loPI   C3A 1321   2.442  -0.096   9.206 -0.1823  0.1555 -0.1020
   83loPI   C4A 1322   2.652  -0.216   8.819  0.0082 -0.1376 -0.0195
   83loPI   C5A 1323   3.018  -0.454   8.698  0.0712  0.1198 -0.0965
   83loPI   C6A 1324   3.420  -0.741   8.510  0.3966  0.0600  0.0158
   83loPI   C1B 1325   2.642  -0.153  10.229 -0.4480 -0.0835  0.1418
   83loPI   C2B 1326   2.626  -0.386   9.882  0.0647  0.1404  0.2744
   83loPI   C3B 1327   2.686  -0.433   9.522  0.0740  0.0503 -0.2308
   83loPI   C4B 1328   2.836  -0.553   9.169  0.0176 -0.2058 -0.0060
   84loPI    C1 1329  17.291  14.183  11.073 -0.0345  0.2559 -0.2025
   84loPI    C2 1330  16.929  14.192  11.243  0.0011  0.1463 -0.1193
   84loPI    C3 1331  17.254  14.272  11.462  0.0276  0.2419 -0.1933
   84loPI   PO4 1332  17.266  14.216  10.865 -0.2304 -0.0273 -0.1115
   84loPI   GL1 1333  16.998  14.261  10.526  0.3850 -0.1646 -0.0220
   84loPI   GL2 1334  16.748  14.367  10.351 -0.0958  0.0019  0.0900
   84loPI   C1A 1335  17.075  14.021  10.091 -0.1718 -0.1927 -0.0544
   84loPI   C2A 1336  16.997  14.045   9.645 -0.1511  0.0522 -0.0328
   84loPI   C3A 1337  17.079  14.155   9.202 -0.0369 -0.0630 -0.3047
   84loPI   C4A 1338  16.908  14.061   8.850  0.3190 -0.0459 -0.1580
   84loPI   C5A 1339  16.584  13.810   8.740 -0.1371  0.1359  0.3760
   84loPI   C6A 1340  16.436  13.457   8.974  0.2168  0.1325 -0.2165
   84loPI   C1B 1341  16.674  14.321   9.933 -0.2732  0.0158 -0.4334
   84loPI   C2B 1342  16.580  14.240   9.470 -0.1807  0.0679 -0.1014
   84loPI   C3B 1343  16.470  14.264   9.118 -0.1583  0.3475  0.4232
   84loPI   C4B 1344  16.427  14.327   8.796 -0.2099  0.3565 -0.2270
   85loPI    C1 1345   9.978  12.239  10.842  0.2536  0.0468  0.0952
   85loPI    C2 1346  10.137  12.469  11.128  0.1005 -0.0209  0.2367
   85loPI    C3 1347   9.999  12.104  11.219  0.0561 -0.0449  0.0748
   85loPI   PO4 1348   9.811  12.437  10.699  0.0905 -0.0353 -0.2401
   85loPI   GL1 1349   9.621  12.343  10.276 -0.0950 -0.0650  0.0579
   85loPI   GL2 1350   9.818  12.081  10.089  0.0976  0.0646 -0.1337
   85loPI   C1A 1351   9.611  12.498   9.926  0.0882 -0.2871 -0.0416
   85loPI   C2A 1352   9.611  12.605   9.519  0.0706  0.1064 -0.1899
   85loPI   C3A 1353   9.519  12.518   9.179 -0.2352 -0.2554  0.1062
   85loPI   C4A 1354   9.392  12.658   8.743 -0.0579 -0.0896 -0.1218
   85loPI   C5A 1355   9.110  12.457   8.250  0.0152 -0.0241  0.0401
   85loPI   C6A 1356   9.160  12.257   7.812 -0.0708 -0.0774  0.1561
   85loPI   C1B 1357   9.833  12.070   9.648  0.2694  0.0232 -0.0732
   85loPI   C2B 1358   9.777  11.991   9.202  0.1481 -0.1332  0.2179
   85loPI   C3B 1359   9.599  12.054   8.808 -0.0977  0.3182 -0.0666
   85loPI   C4B 1360   9.613  12.322   8.454  0.0477  0.0759 -0.0459
   86loPI    C1 1361   5.982  15.970  11.243  0.0192 -0.1125 -0.0835
   86loPI    C2 1362   6.364  15.940  11.358  0.0603  0.0708 -0.1686
   86loPI    C3 1363   6.147  16.258  11.467 -0.0994 -0.0820 -0.0344
   86loPI   PO4 1364   5.955  15.947  10.932 -0.0981  0.0298  0.2696
   86loPI   GL1 1365   6.007  15.650  10.555  0.0384  0.2339  0.0270
   86loPI   GL2 1366   6.085  15.351  10.629  0.3738  0.2987  0.1592
   86loPI   C1A 1367   5.688  15.442  10.219  0.0527  0.1120  0.2913
   86loPI   C2A 1368   5.699  15.107   9.878  0.0587  0.0780 -0.0694
   86loPI   C3A 1369   5.813  15.125   9.491 -0.1494 -0.1598 -0.0851
   86loPI   C4A 1370   5.948  15.254   9.134  0.0868 -0.3572 -0.4527
   86loPI   C5A 1371   5.904  15.213   8.669 -0.0502  0.1665 -0.4854
   86loPI   C6A 1372   5.887  15.484   8.222 -0.0930  0.0466  0.0990
   86loPI   C1B 1373   6.119  15.068  10.219  0.1052 -0.1620  0.3255
   86loPI   C2B 1374   6.192  15.022   9.772 -0.2154  0.0608  0.2101
   86loPI   C3B 1375   6.329  15.102   9.384 -0.1127 -0.0320 -0.1150
   86loPI   C4B 1376   6.368  15.212   8.822  0.2725  0.3069 -0.1080
   87loPI    C1 1377  15.770   9.927  10.693 -0.1104 -0.0003  0.1358
   87loPI    C2 1378  15.919   9.900  11.063  0.0925  0.2532  0.0749
   87loPI    C3 1379  16.016  10.210  10.830 -0.1227  0.1530 -0.1525
   87loPI   PO4 1380  15.808   9.714  10.587  0.0842  0.1182 -0.1372
   87loPI   GL1 1381  15.891   9.512  10.211  0.0050  0.1455  0.1792
   87loPI   GL2 1382  16.155   9.655  10.143  0.0884 -0.1266 -0.3053
   87loPI   C1A 1383  15.817   9.474   9.758 -0.1568 -0.3417  0.2641
   87loPI   C2A 1384  15.918   9.617   9.317  0.0909 -0.0626  0.0826
   87loPI   C3A 1385  15.959   9.696   8.888  0.0805 -0.3084  0.1916
   87loPI   C4A 1386  16.146   9.680   8.495 -0.0246  0.0137  0.1470
   87loPI   C5A 1387  15.994   9.699   8.193  0.0992 -0.2260 -0.2056
   87loPI   C6A 1388  15.805   9.845   7.768  0.1292  0.0688 -0.0626
   87loPI   C1B 1389  16.136   9.887   9.697 -0.0927  0.0485  0.1727
   87loPI   C2B 1390  16.237   9.978   9.232 -0.0785 -0.2118 -0.1299
   87loPI   C3B 1391  16.376  10.034   8.777 -0.1860  0.2491  0.0254
   87loPI   C4B 1392  16.360  10.103   8.354 -0.3090 -0.1491 -0.1450
   88loPI    C1 1393   5.398   4.553  10.375  0.0982  0.1330  0.1041
   88loPI    C2 1394   5.398   4.455  10.763  0.3941  0.1218  0.1030
   88loPI    C3 1395   5.314   4.830  10.652 -0.4594 -0.0431  0.1251
   88loPI   PO4 1396   5.573   4.430  10.295  0.0639  0.2762 -0.2237
   88loPI   GL1 1397   5.826   4.436   9.938 -0.0419  0.0100 -0.2188
   88loPI   GL2 1398   5.547   4.669   9.897 -0.1095 -0.4351  0.0468
   88loPI   C1A 1399   6.035   4.412   9.554  0.0412 -0.2691 -0.2035
   88loPI   C2A 1400   6.039   4.474   9.099  0.1099  0.0918  0.0038
   88loPI   C3A 1401   6.090   4.549   8.725 -0.0943 -0.0802  0.0962
   88loPI   C4A 1402   6.044   4.714   8.346 -0.2345 -0.0726  0.0725
   88loPI   C5A 1403   5.748   4.815   7.968  0.1580  0.1239 -0.2028
   88loPI   C6A 1404   5.254   4.810   7.966  0.0790 -0.0804 -0.0983
   88loPI   C1B 1405   5.607   4.559   9.421 -0.1324 -0.3201  0.0352
   88loPI   C2B 1406   5.532   4.606   8.929  0.0228  0.0786  0.0868
   88loPI   C3B 1407   5.594   4.624   8.540 -0.1039  0.0918  0.0545
   88loPI   C4B 1408   5.443   4.356   8.199 -0.2821 -0.1497  0.1173
   89loPI    C1 1409   4.151   4.590  10.324 -0.1117  0.0120  0.0207
   89loPI    C2 1410   3.999   4.914  10.504 -0.0855  0.0002  0.0641
   89loPI    C3 1411   4.375   4.919  10.366 -0.1177  0.0218 -0.0235
   89loPI   PO4 1412   3.907   4.509  10.231 -0.1647 -0.4514  0.0188
   89loPI   GL1 1413   3.555   4.548   9.972  0.1255 -0.0202  0.2615
   89loPI   GL2 1414   3.284   4.561  10.015 -0.0091  0.1120  0.1308
   89loPI   C1A 1415   3.454   4.585   9.499 -0.0394 -0.0344  0.2918
   89loPI   C2A 1416   3.478   4.665   9.165 -0.2058  0.0990  0.3112
   89loPI   C3A 1417   3.338   4.429   8.750  0.3675 -0.0586  0.0615
   89loPI   C4A 1418   3.099   4.510   8.492 -0.2381 -0.4013  0.3121
   89loPI   C5A 1419   2.866   4.512   8.178 -0.1816 -0.0154  0.1791
   89loPI   C6A 1420   2.542   4.315   7.912 -0.0705  0.0093  0.0671
   89loPI   C1B 1421   3.086   4.263   9.706  0.0672 -0.2233 -0.1401
   89loPI   C2B 1422   3.117   4.318   9.278  0.0950 -0.4432  0.3733
   89loPI   C3B 1423   2.900   4.263   8.870 -0.0522  0.1227 -0.0832
   89loPI   C4B 1424   2.734   4.221   8.538  0.2877  0.3211  0.0936
   90loPI    C1 1425   7.175  12.878  11.293  0.0406  0.1584  0.2015
   90loPI    C2 1426   6.945  13.073  11.556 -0.0830  0.1362  0.1111
   90loPI    C3 1427   7.291  12.910  11.674  0.0332  0.4294  0.1827
   90loPI   PO4 1428   7.066  12.988  11.040 -0.1811 -0.2165 -0.2162
   90loPI   GL1 1429   7.116  13.206  10.715 -0.1864 -0.0249 -0.0315
   90loPI   GL2 1430   7.070  12.914  10.572 -0.1045  0.0029  0.2661
   90loPI   C1A 1431   7.254  13.313  10.351 -0.1169 -0.4352 -0.2497
   90loPI   C2A 1432   7.194  13.408   9.918  0.0280  0.0287 -0.1325
   90loPI   C3A 1433   7.261  13.529   9.471  0.3402  0.0471 -0.0772
   90loPI   C4A 1434   7.246  13.531   9.084 -0.1768  0.0433 -0.0885
   90loPI   C5A 1435   7.069  13.560   8.721 -0.2402  0.1542  0.1279
   90loPI   C6A 1436   6.783  13.590   8.619 -0.0192 -0.1862 -0.0412
   90loPI   C1B 1437   6.967  12.946  10.161 -0.0094 -0.1866  0.0442
   90loPI   C2B 1438   6.817  13.046   9.711  0.0113 -0.0167 -0.1784
   90loPI   C3B 1439   6.950  13.095   9.391  0.0431  0.0838  0.0206
   90loPI   C4B 1440   6.905  13.181   8.978 -0.1685  0.2032  0.0646
   91loPI    C1 1441  10.534  14.687  11.054 -0.1966 -0.0294  0.0018
   91loPI    C2 1442  10.833  14.552  10.825 -0.2360 -0.1675  0.0310
   91loPI    C3 1443  10.883  14.585  11.220 -0.1824  0.0301  0.0087
   91loPI   PO4 1444  10.422  14.839  10.943  0.2834 -0.0703 -0.3317
   91loPI   GL1 1445  10.191  14.866  10.523 -0.1701  0.1494  0.1078
   91loPI   GL2 1446   9.803  14.895  10.541 -0.0278 -0.1327 -0.2779
   91loPI   C1A 1447  10.117  15.056  10.156  0.1680 -0.0132  0.4001
   91loPI   C2A 1448  10.030  15.156   9.726  0.0713 -0.0125 -0.3093
   91loPI   C3A 1449  10.020  15.194   9.299 -0.2751  0.0286  0.0746
   91loPI   C4A 1450   9.973  15.370   8.895 -0.2396  0.0030  0.2853
   91loPI   C5A 1451  10.119  15.128   8.541 -0.0040 -0.1483  0.2346
   91loPI   C6A 1452  10.568  15.052   8.358 -0.1907  0.5343 -0.0530
   91loPI   C1B 1453   9.613  15.046  10.287  0.2860  0.0826 -0.0894
   91loPI   C2B 1454   9.572  15.129   9.924 -0.0387 -0.2672  0.0813
   91loPI   C3B 1455   9.533  15.359   9.537  0.0330  0.2401  0.1342
   91loPI   C4B 1456   9.565  15.318   9.163 -0.1689  0.1008  0.0670
   92loPI    C1 1457   3.351   3.707  10.436 -0.1982  0.1315  0.0741
   92loPI    C2 1458   3.315   3.346  10.605  0.1207  0.0329 -0.0624
   92loPI    C3 1459   3.225   3.675  10.815  0.1709 -0.1063  0.1815
   92loPI   PO4 1460   3.655   3.655  10.339  0.2333 -0.2326 -0.0933
   92loPI   GL1 1461   3.960   3.586  10.185  0.3799  0.3624 -0.0635
   92loPI   GL2 1462   4.148   3.484  10.153 -0.2747 -0.0799 -0.1384
   92loPI   C1A 1463   4.039   3.788   9.760 -0.1147  0.0566 -0.0207
   92loPI   C2A 1464   4.229   3.758   9.334 -0.1818 -0.0719 -0.0011
   92loPI   C3A 1465   4.137   3.762   8.918 -0.2857 -0.1488  0.2115
   92loPI   C4A 1466   4.221   3.679   8.566  0.0129  0.3774 -0.3857
   92loPI   C5A 1467   4.586   3.610   8.312 -0.2668 -0.0020  0.2733
   92loPI   C6A 1468   4.796   3.764   7.965  0.2801  0.0796  0.2914
   92loPI   C1B 1469   4.150   3.310   9.826 -0.1120 -0.0609  0.0816
   92loPI   C2B 1470   4.128   3.214   9.523  0.0499  0.1076 -0.1704
   92loPI   C3B 1471   4.093   3.082   9.093 -0.0569  0.3079 -0.2033
   92loPI   C4B 1472   4.077   3.119   8.606 -0.0278  0.0893 -0.0797
   93loPI    C1 1473  14.387   2.958  10.775 -0.0605 -0.0004 -0.0865
   93loPI    C2 1474  14.528   3.330  10.818  0.0656 -0.0488 -0.0786
   93loPI    C3 1475  14.698   3.026  11.016  0.0862 -0.1395 -0.2333
   93loPI   PO4 1476  14.379   2.938  10.503  0.0467 -0.0145 -0.0011
   93loPI   GL1 1477  14.580   2.943  10.192 -0.0619 -0.1449 -0.1315
   93loPI   GL2 1478  14.513   2.589  10.129 -0.1383  0.3970  0.1467
   93loPI   C1A 1479  14.366   3.103   9.781 -0.0549 -0.0317 -0.1858
   93loPI   C2A 1480  14.319   3.073   9.328  0.1471 -0.1237  0.0101
   93loPI   C3A 1481  14.264   3.055   8.923  0.2748  0.1740  0.3928
   93loPI   C4A 1482  14.101   2.956   8.578 -0.0342  0.1217 -0.1270
   93loPI   C5A 1483  13.810   3.041   8.245 -0.0037 -0.1422 -0.0299
   93loPI   C6A 1484  13.739   2.919   7.863 -0.1499  0.2001 -0.1580
   93loPI   C1B 1485  14.474   2.601   9.630 -0.0108  0.0649 -0.1192
   93loPI   C2B 1486  14.422   2.503   9.141 -0.0699  0.2447  0.0413
   93loPI   C3B 1487  14.631   2.562   8.707  0.0775  0.1345  0.1281
   93loPI   C4B 1488  14.553   2.497   8.294  0.1049 -0.1002 -0.0830
   94loPI    C1 1489   4.257   7.532  10.405  0.3281  0.1087  0.1347
   94loPI    C2 1490   4.458   7.188  10.442 -0.0642 -0.1345  0.0623
   94loPI    C3 1491   4.247   7.330  10.750  0.1078  0.0523  0.0965
   94loPI   PO4 1492   4.402   7.602  10.168 -0.0366 -0.1938  0.1727
   94loPI   GL1 1493   4.631   7.701   9.824 -0.0953  0.0153  0.2478
   94loPI   GL2 1494   4.453   8.053   9.758 -0.0285  0.0738  0.0771
   94loPI   C1A 1495   4.440   7.717   9.339  0.1524 -0.2146 -0.1133
   94loPI   C2A 1496   4.156   7.783   8.890 -0.0873  0.0136 -0.1282
   94loPI   C3A 1497   3.956   7.701   8.629  0.2471  0.3214 -0.1530
   94loPI   C4A 1498   3.904   7.783   8.213  0.0813 -0.0332 -0.1162
   94loPI   C5A 1499   4.021   7.818   7.800 -0.2884  0.0280  0.0957
   94loPI   C6A 1500   3.851   7.996   7.518 -0.1289  0.1133 -0.0655
   94loPI   C1B 1501   4.095   8.112   9.488 -0.1509 -0.1494 -0.1896
   94loPI   C2B 1502   3.970   8.198   9.086 -0.0449 -0.1887  0.2431
   94loPI   C3B 1503   3.722   8.186   8.706 -0.0119  0.1293  0.1908
   94loPI   C4B 1504   3.629   8.174   8.286  0.2336 -0.3806 -0.1138
   95loPI    C1 1505  10.359   7.322  10.828 -0.0522  0.0573  0.0373
   95loPI    C2 1506   9.997   7.275  10.664  0.0072  0.1005 -0.1077
   95loPI    C3 1507  10.097   7.067  10.991 -0.0389 -0.1404 -0.2438
   95loPI   PO4 1508  10.544   7.404  10.576 -0.2961  0.1331 -0.2104
   95loPI   GL1 1509  10.636   7.371  10.142  0.1818  0.1272 -0.2253
   95loPI   GL2 1510  10.540   7.657  10.102  0.1764  0.2288  0.1156
   95loPI   C1A 1511  10.389   7.197   9.867  0.2249  0.0537 -0.0038
   95loPI   C2A 1512  10.362   7.289   9.355 -0.1033  0.1303  0.0679
   95loPI   C3A 1513  10.409   7.244   8.954 -0.0484 -0.0069 -0.0026
   95loPI   C4A 1514  10.630   7.291   8.530  0.1952  0.2862 -0.3259
   95loPI   C5A 1515  10.954   7.493   8.243  0.1531  0.0244 -0.1516
   95loPI   C6A 1516  11.255   7.844   8.236 -0.0933  0.2462 -0.0462
   95loPI   C1B 1517  10.732   7.939   9.773  0.1103 -0.2111  0.1391
   95loPI   C2B 1518  10.653   7.987   9.416 -0.1020  0.0267  0.1732
   95loPI   C3B 1519  10.827   8.109   8.972  0.0154 -0.3076 -0.1182
   95loPI   C4B 1520  10.870   8.384   8.671 -0.2685 -0.0017 -0.1052
   96loPI    C1 1521   3.739   7.198  10.745  0.0976 -0.0302  0.1194
   96loPI    C2 1522   3.406   7.074  10.929  0.0652 -0.0042  0.0785
   96loPI    C3 1523   3.764   6.947  11.056  0.0342 -0.1142  0.0571
   96loPI   PO4 1524   3.817   7.184  10.402 -0.1430  0.1006  0.2231
   96loPI   GL1 1525   4.053   7.249   9.967  0.0220  0.1293 -0.1047
   96loPI   GL2 1526   3.708   7.102   9.835  0.1501 -0.1652 -0.1228
   96loPI   C1A 1527   4.299   7.231   9.584  0.0305  0.3344 -0.1362
   96loPI   C2A 1528   4.126   7.319   9.221  0.0883 -0.0780 -0.0958
   96loPI   C3A 1529   4.249   7.300   8.785  0.2424 -0.0870  0.1261
   96loPI   C4A 1530   4.189   7.101   8.467  0.1015 -0.0484  0.0864
   96loPI   C5A 1531   4.403   7.024   8.096  0.1469  0.0756  0.1704
   96loPI   C6A 1532   4.717   6.796   8.186  0.1219 -0.1522  0.2114
   96loPI   C1B 1533   3.617   7.132   9.443 -0.2047  0.0335 -0.0319
   96loPI   C2B 1534   3.573   7.152   9.107 -0.3033  0.1977  0.0488
   96loPI   C3B 1535   3.696   7.239   8.741  0.0102 -0.0534  0.0298
   96loPI   C4B 1536   3.757   7.324   8.343  0.2407  0.2044  0.0345
   97loPI    C1 1537   1.343   9.950  10.929 -0.1488 -0.0078 -0.1525
   97loPI    C2 1538   1.614   9.827  10.661 -0.3057 -0.1923 -0.2283
   97loPI    C3 1539   1.332   9.574  10.792 -0.2015 -0.1185  0.1491
   97loPI   PO4 1540   1.274  10.191  10.819 -0.2005 -0.0573 -0.2774
   97loPI   GL1 1541   0.926  10.294  10.500  0.0691 -0.1596  0.0475
   97loPI   GL2 1542   0.661  10.115  10.405  0.0872 -0.0146  0.2798
   97loPI   C1A 1543   0.999  10.381  10.100  0.1034  0.2562 -0.1038
   97loPI   C2A 1544   1.074  10.486   9.686 -0.1296 -0.3597  0.1931
   97loPI   C3A 1545   0.908  10.555   9.307  0.2304 -0.0759  0.2158
   97loPI   C4A 1546   1.133  10.558   8.829  0.2179 -0.1294  0.0341
   97loPI   C5A 1547   1.284  10.549   8.394  0.0548  0.1049  0.3019
   97loPI   C6A 1548   1.336  10.831   8.033  0.0571 -0.0998 -0.1356
   97loPI   C1B 1549   0.459  10.403   9.996 -0.2035  0.0028 -0.1828
   97loPI   C2B 1550   0.220  10.442   9.638 -0.0639  0.3543  0.3729
   97loPI   C3B 1551   0.372  10.592   9.247  0.0958 -0.3508  0.1326
   97loPI   C4B 1552   0.587  10.621   8.943 -0.3717 -0.3765 -0.0698
   98loPI    C1 1553  14.775  15.613  11.285  0.2669 -0.2832 -0.2160
   98loPI    C2 1554  14.974  15.932  11.422 -0.1753 -0.1078  0.0376
   98loPI    C3 1555  14.829  15.661  11.679 -0.2364 -0.2502 -0.1449
   98loPI   PO4 1556  14.930  15.622  11.037  0.0756 -0.1141  0.0426
   98loPI   GL1 1557  14.806  15.690  10.720 -0.2491  0.2554  0.1753
   98loPI   GL2 1558  14.655  15.938  10.702 -0.0342  0.1688  0.0386
   98loPI   C1A 1559  15.206  15.609  10.440  0.0527 -0.1518  0.2694
   98loPI   C2A 1560  15.187  15.530   9.941 -0.1048 -0.1114 -0.0814
   98loPI   C3A 1561  15.191  15.564   9.475  0.0907 -0.0728  0.1909
   98loPI   C4A 1562  15.106  15.480   9.048  0.0484  0.0242  0.1482
   98loPI   C5A 1563  14.925  15.366   8.685  0.0579  0.0662 -0.1983
   98loPI   C6A 1564  15.049  15.426   8.222  0.1009  0.0942 -0.4015
   98loPI   C1B 1565  14.725  15.733  10.234 -0.1869  0.2704  0.1325
   98loPI   C2B 1566  14.714  15.617   9.733  0.0014  0.1629 -0.2827
   98loPI   C3B 1567  14.647  15.546   9.291  0.0161 -0.3735 -0.1226
   98loPI   C4B 1568  14.506  15.643   8.863 -0.1549  0.1226  0.2607
   99loPI    C1 1569  14.660  11.714  10.630  0.0236 -0.0834  0.0981
   99loPI    C2 1570  14.365  11.534  10.832 -0.1229 -0.1478 -0.1683
   99loPI    C3 1571  14.280  11.770  10.520  0.0890  0.1153 -0.0321
   99loPI   PO4 1572  14.815  11.498  10.625 -0.1549  0.0311  0.0593
   99loPI   GL1 1573  15.239  11.469  10.282 -0.1759 -0.4028  0.0606
   99loPI   GL2 1574  15.045  11.832  10.284  0.2215  0.0265 -0.0606
   99loPI   C1A 1575  15.248  11.478   9.877 -0.0110  0.1033  0.1327
   99loPI   C2A 1576  15.292  11.616   9.551 -0.1167 -0.0899  0.0545
   99loPI   C3A 1577  15.296  11.705   9.248 -0.0393 -0.1664  0.3723
   99loPI   C4A 1578  15.468  11.830   8.887  0.1231  0.0454 -0.3456
   99loPI   C5A 1579  15.468  11.789   8.411 -0.2049  0.3746 -0.1511
   99loPI   C6A 1580  15.553  11.939   8.079  0.0671 -0.0555 -0.2588
   99loPI   C1B 1581  15.109  12.013   9.930 -0.3387  0.2595  0.1363
   99loPI   C2B 1582  15.094  12.217   9.509  0.0139  0.0473 -0.0422
   99loPI   C3B 1583  15.258  12.249   9.162 -0.2747 -0.1347 -0.1192
   99loPI   C4B 1584  15.223  12.236   8.743  0.1493  0.0235 -0.1969
  100loPI    C1 1585   7.984   8.845  11.007 -0.1194  0.1350  0.0639
  100loPI    C2 1586   8.344   8.893  11.175 -0.0879  0.1132  0.0032
  100loPI    C3 1587   8.112   8.585  11.281 -0.0213  0.0358 -0.0746
  100loPI   PO4 1588   8.067   8.819  10.712  0.0832  0.0045  0.1616
  100loPI   GL1 1589   8.394   8.889  10.484 -0.0514 -0.0620 -0.1542
  100loPI   GL2 1590   8.502   8.615  10.369  0.2210 -0.0378  0.1680
  100loPI   C1A 1591   8.549   9.122  10.168  0.0069 -0.3199 -0.2856
  100loPI   C2A 1592   8.580   9.255   9.734 -0.0699  0.0849  0.1053
  100loPI   C3A 1593   8.599   9.452   9.431 -0.1883  0.2104  0.0571
  100loPI   C4A 1594   8.527   9.523   8.966 -0.1083  0.1827  0.1198
  100loPI   C5A 1595   8.710   9.107   8.808  0.0200 -0.4050 -0.0390
  100loPI   C6A 1596   9.084   9.079   8.663  0.1286  0.1469 -0.1768
  100loPI   C1B 1597   8.588   8.712   9.897  0.1865 -0.0767 -0.0348
  100loPI   C2B 1598   8.704   8.835   9.459  0.0636 -0.3521 -0.1884
  100loPI   C3B 1599   8.688   8.740   9.076 -0.2160  0.3547 -0.3686
  100loPI   C4B 1600   8.907   8.587   8.774 -0.0221  0.0205 -0.1323
  101loPI    C1 1601  14.515  16.982  11.338 -0.0224  0.0888  0.0069
  101loPI    C2 1602  14.901  17.054  11.413  0.0532 -0.1845 -0.1089
  101loPI    C3 1603  14.685  16.834  11.668 -0.0947  0.1756  0.0835
  101loPI   PO4 1604  14.568  16.913  11.037  0.2271  0.0220 -0.0325
  101loPI   GL1 1605  14.700  17.074  10.747 -0.0264  0.1214  0.2105
  101loPI   GL2 1606  14.581  17.305  10.626  0.0400 -0.0576  0.2563
  101loPI   C1A 1607  14.838  16.787  10.396 -0.0928 -0.2600  0.0521
  101loPI   C2A 1608  14.854  16.585   9.968 -0.2880 -0.2703 -0.1462
  101loPI   C3A 1609  14.918  16.469   9.556  0.0387  0.0135 -0.3887
  101loPI   C4A 1610  14.856  16.502   9.102 -0.0712  0.0648 -0.0590
  101loPI   C5A 1611  14.627  16.330   8.770  0.0506  0.1805 -0.1539
  101loPI   C6A 1612  14.312  16.057   8.655 -0.0525 -0.1987 -0.0263
  101loPI   C1B 1613  14.665  17.158  10.182 -0.2115 -0.0509 -0.1472
  101loPI   C2B 1614  14.625  17.125   9.722  0.0517  0.1746 -0.3403
  101loPI   C3B 1615  14.700  16.979   9.283  0.0188 -0.0333 -0.2311
  101loPI   C4B 1616  14.701  17.021   8.907  0.2473  0.1060  0.2508
  102loPI    C1 1617   0.709   5.491  10.107 -0.1251  0.1351 -0.0449
  102loPI    C2 1618   0.758   5.428  10.499  0.1920 -0.0906 -0.1173
  102loPI    C3 1619   0.483   5.220  10.296 -0.0738  0.1309  0.0107
  102loPI   PO4 1620   0.761   5.778  10.058  0.0742 -0.2216 -0.0350
  102loPI   GL1 1621   1.071   5.880   9.775  0.1414 -0.2417 -0.1513
  102loPI   GL2 1622   0.981   5.596   9.673  0.3691 -0.1583  0.1356
  102loPI   C1A 1623   0.867   6.027   9.427 -0.1043  0.0148  0.1913
  102loPI   C2A 1624   0.711   6.215   9.132  0.0002 -0.1703  0.2068
  102loPI   C3A 1625   0.727   6.361   8.702  0.0557  0.1635  0.0816
  102loPI   C4A 1626   0.642   6.327   8.303 -0.3548 -0.1430 -0.2655
  102loPI   C5A 1627   0.548   6.332   7.748 -0.0042 -0.3096  0.2722
  102loPI   C6A 1628   0.689   6.060   7.490  0.2704  0.0655 -0.1819
  102loPI   C1B 1629   0.974   5.550   9.192 -0.5439  0.1098 -0.0445
  102loPI   C2B 1630   0.984   5.500   8.773 -0.1560 -0.0987  0.0440
  102loPI   C3B 1631   0.956   5.485   8.331 -0.0893  0.1141 -0.0982
  102loPI   C4B 1632   0.788   5.283   7.963 -0.1177  0.1564  0.0075
  103loPI    C1 1633  12.863   1.305  10.716  0.0939  0.1009  0.2316
  103loPI    C2 1634  12.668   1.308  11.065 -0.1616 -0.2263  0.0975
  103loPI    C3 1635  12.935   1.021  10.988 -0.2207 -0.2465 -0.0361
  103loPI   PO4 1636  12.674   1.313  10.531  0.4131  0.2385  0.3491
  103loPI   GL1 1637  12.614   1.069  10.186  0.0179 -0.0988 -0.0813
  103loPI   GL2 1638  12.488   0.834  10.299 -0.1577  0.0979 -0.1380
  103loPI   C1A 1639  12.616   0.985   9.765 -0.0100  0.3333 -0.0810
  103loPI   C2A 1640  12.632   0.928   9.312  0.3358  0.0772 -0.0622
  103loPI   C3A 1641  12.651   1.047   9.000 -0.2311  0.1772 -0.2364
  103loPI   C4A 1642  12.629   1.135   8.625 -0.3144 -0.0333 -0.0030
  103loPI   C5A 1643  12.735   0.933   8.322 -0.0972  0.0045 -0.0464
  103loPI   C6A 1644  12.571   0.699   7.984 -0.1198  0.1142  0.2206
  103loPI   C1B 1645  12.228   0.769   9.983 -0.0500 -0.0899 -0.1002
  103loPI   C2B 1646  12.248   0.689   9.525 -0.0314  0.0789  0.1124
  103loPI   C3B 1647  12.319   0.547   9.088 -0.0326  0.2284 -0.1467
  103loPI   C4B 1648  12.401   0.666   8.575  0.1542 -0.2592 -0.0351
  104loPI    C1 1649   3.154  10.889  11.168 -0.0791 -0.0819  0.1175
  104loPI    C2 1650   2.757  10.865  11.207 -0.1135  0.1014 -0.1024
  104loPI    C3 1651   2.962  11.140  11.412 -0.0952 -0.0136  0.0348
  104loPI   PO4 1652   3.159  10.956  10.909 -0.0617 -0.0106 -0.1948
  104loPI   GL1 1653   3.306  10.893  10.541  0.0273  0.0123  0.2087
  104loPI   GL2 1654   3.590  11.029  10.468  0.0919 -0.0352 -0.0625
  104loPI   C1A 1655   3.139  10.928  10.158 -0.1242  0.1687 -0.2297
  104loPI   C2A 1656   3.259  10.908   9.771 -0.3740 -0.1359 -0.4782
  104loPI   C3A 1657   3.295  10.941   9.371 -0.0021 -0.0600  0.1827
  104loPI   C4A 1658   3.360  10.878   8.886  0.0755 -0.1096  0.2235
  104loPI   C5A 1659   3.386  10.934   8.405  0.4944  0.0796 -0.0970
  104loPI   C6A 1660   3.336  11.254   8.108 -0.1305 -0.3197 -0.0589
  104loPI   C1B 1661   3.667  10.930  10.054  0.2118 -0.0872 -0.1120
  104loPI   C2B 1662   3.773  10.984   9.586  0.1824  0.0697 -0.0788
  104loPI   C3B 1663   3.867  10.911   9.183  0.1000 -0.1292  0.0101
  104loPI   C4B 1664   3.819  10.864   8.724 -0.1290 -0.0619  0.2045
  105loPI    C1 1665   6.096   1.593  10.990 -0.0486  0.1705 -0.1418
  105loPI    C2 1666   6.195   1.769  11.335 -0.1335  0.0401 -0.0498
  105loPI    C3 1667   5.824   1.807  11.190 -0.0915  0.1140 -0.1397
  105loPI   PO4 1668   6.385   1.607  10.904 -0.4921 -0.0996 -0.2640
  105loPI   GL1 1669   6.515   1.561  10.497  0.3962 -0.2500  0.1498
  105loPI   GL2 1670   6.542   1.763  10.253 -0.0670 -0.0634 -0.0260
  105loPI   C1A 1671   6.277   1.320  10.172  0.3658 -0.3263  0.4124
  105loPI   C2A 1672   6.276   1.215   9.771  0.1025 -0.1402 -0.4311
  105loPI   C3A 1673   6.292   1.147   9.328  0.1048 -0.3404  0.1117
  105loPI   C4A 1674   6.499   1.027   8.935  0.0115  0.1353  0.1646
  105loPI   C5A 1675   6.264   1.102   8.484 -0.0211 -0.1052 -0.5630
  105loPI   C6A 1676   6.060   1.098   8.089  0.2257  0.0422  0.2529
  105loPI   C1B 1677   6.391   1.744   9.841  0.1025  0.0805  0.2287
  105loPI   C2B 1678   6.489   1.608   9.360 -0.2070 -0.0848 -0.0510
  105loPI   C3B 1679   6.389   1.504   8.965 -0.0524  0.0416 -0.0779
  105loPI   C4B 1680   6.330   1.639   8.552 -0.1282 -0.1323 -0.0280
  106loPI    C1 1681   1.658   2.285  10.451  0.0511 -0.1100  0.0065
  106loPI    C2 1682   1.628   2.662  10.581 -0.2823 -0.1240 -0.0222
  106loPI    C3 1683   1.987   2.507  10.499 -0.1435  0.1895 -0.0190
  106loPI   PO4 1684   1.379   2.243  10.206 -0.0564 -0.1393 -0.3208
  106loPI   GL1 1685   1.234   1.955  10.006  0.0794  0.1700  0.0534
  106loPI   GL2 1686   1.230   1.627   9.940 -0.1851 -0.1843 -0.0958
  106loPI   C1A 1687   1.554   2.061   9.664  0.1956 -0.2270  0.0100
  106loPI   C2A 1688   1.469   2.133   9.265  0.0576  0.0497 -0.0824
  106loPI   C3A 1689   1.580   2.247   8.862  0.1089 -0.2052 -0.4187
  106loPI   C4A 1690   1.643   2.539   8.553 -0.2543 -0.2319 -0.0990
  106loPI   C5A 1691   1.410   2.834   8.349  0.0747  0.0027  0.0770
  106loPI   C6A 1692   1.037   3.149   8.261  0.1034  0.0193 -0.3511
  106loPI   C1B 1693   1.241   1.738   9.486 -0.0632  0.0466 -0.0358
  106loPI   C2B 1694   1.229   1.669   9.011  0.0346 -0.0002 -0.1385
  106loPI   C3B 1695   1.260   1.614   8.641 -0.0475 -0.1043  0.1056
  106loPI   C4B 1696   1.539   1.696   8.313 -0.5201  0.1123 -0.1837
  107loPI    C1 1697  10.556   6.331  10.658 -0.1491 -0.2982 -0.1020
  107loPI    C2 1698  10.311   6.419  10.962 -0.1570 -0.1741 -0.1434
  107loPI    C3 1699  10.656   6.229  11.031 -0.1452 -0.1204 -0.0536
  107loPI   PO4 1700  10.345   6.296  10.497  0.2037 -0.0787 -0.2312
  107loPI   GL1 1701  10.228   6.537  10.167 -0.1569 -0.1030  0.3529
  107loPI   GL2 1702  10.044   6.372  10.128  0.0998  0.1008  0.3765
  107loPI   C1A 1703  10.044   6.844   9.861  0.1771 -0.1066  0.2007
  107loPI   C2A 1704  10.070   6.863   9.365 -0.0826 -0.1133  0.0737
  107loPI   C3A 1705  10.127   6.763   8.944 -0.0310 -0.1457 -0.1187
  107loPI   C4A 1706  10.136   7.049   8.566 -0.1493  0.1480  0.2567
  107loPI   C5A 1707  10.163   7.218   8.149  0.0748 -0.1533  0.2418
  107loPI   C6A 1708  10.242   7.299   7.678  0.1071  0.2997  0.5996
  107loPI   C1B 1709   9.911   6.389   9.662 -0.1351 -0.4348  0.0047
  107loPI   C2B 1710   9.879   6.423   9.256  0.0791 -0.1383  0.2319
  107loPI   C3B 1711   9.813   6.305   8.847  0.1370 -0.0016  0.0243
  107loPI   C4B 1712  10.093   6.538   8.492  0.2129 -0.1536 -0.0367
  108loPI    C1 1713  17.217   3.895  10.532  0.1298  0.1335  0.1647
  108loPI    C2 1714  17.515   3.672  10.679  0.0628  0.0492  0.1736
  108loPI    C3 1715  17.147   3.643  10.835  0.0324  0.0954  0.1108
  108loPI   PO4 1716  17.188   3.786  10.267 -0.1767 -0.0963  0.0126
  108loPI   GL1 1717  17.178   3.917   9.941  0.1287  0.0162 -0.0944
  108loPI   GL2 1718  16.941   4.127   9.676 -0.0534 -0.1031  0.0625
  108loPI   C1A 1719  17.242   3.758   9.518 -0.3130 -0.0131  0.2457
  108loPI   C2A 1720  17.136   3.637   9.132  0.3231 -0.0677 -0.0539
  108loPI   C3A 1721  17.153   3.819   8.658 -0.0478  0.2333 -0.0631
  108loPI   C4A 1722  17.250   3.817   8.236  0.0662  0.0306 -0.0543
  108loPI   C5A 1723  17.360   3.472   7.969  0.0796 -0.1745  0.0451
  108loPI   C6A 1724  17.291   3.323   7.480  0.1704 -0.0049 -0.0709
  108loPI   C1B 1725  16.808   4.090   9.296 -0.0982 -0.3050 -0.0950
  108loPI   C2B 1726  16.844   4.139   8.912  0.4365  0.0719  0.0528
  108loPI   C3B 1727  16.925   4.185   8.462 -0.0367  0.0476 -0.0625
  108loPI   C4B 1728  16.799   4.200   8.041 -0.2329 -0.1448 -0.1471
  109loPI    C1 1729   4.046  15.648  11.281 -0.1092 -0.0620 -0.0075
  109loPI    C2 1730   4.253  15.328  11.159 -0.1022  0.0082 -0.1829
  109loPI    C3 1731   4.050  15.316  11.503  0.2887 -0.0223  0.0528
  109loPI   PO4 1732   4.006  15.745  11.051 -0.3170 -0.1648  0.3180
  109loPI   GL1 1733   3.898  15.953  10.630 -0.1546  0.0872  0.1173
  109loPI   GL2 1734   3.657  16.210  10.592  0.0074 -0.4148  0.0565
  109loPI   C1A 1735   4.026  16.101  10.171  0.0003  0.2476 -0.0877
  109loPI   C2A 1736   3.929  16.089   9.719 -0.1501 -0.0989 -0.1399
  109loPI   C3A 1737   4.004  15.854   9.366  0.0428 -0.0883 -0.0172
  109loPI   C4A 1738   4.066  15.738   8.911  0.2531 -0.0333 -0.0402
  109loPI   C5A 1739   3.978  15.395   8.580 -0.0324  0.0390  0.1193
  109loPI   C6A 1740   3.856  14.987   8.424 -0.1072  0.0780  0.1998
  109loPI   C1B 1741   3.504  16.279  10.295  0.2072  0.1135  0.1082
  109loPI   C2B 1742   3.532  16.216   9.888 -0.0709 -0.3080 -0.2161
  109loPI   C3B 1743   3.502  16.118   9.462 -0.0679 -0.0423 -0.1110
  109loPI   C4B 1744   3.581  15.958   9.101 -0.0182 -0.0345 -0.1822
  110loPI    C1 1745   9.688   0.632  11.605 -0.0217 -0.2377  0.0309
  110loPI    C2 1746   9.643   0.858  11.931  0.0056 -0.0921 -0.0654
  110loPI    C3 1747   9.949   0.602  11.906  0.0706 -0.0186 -0.0255
  110loPI   PO4 1748   9.561   0.914  11.394 -0.1176  0.0371  0.1251
  110loPI   GL1 1749   9.680   1.014  10.991  0.0046 -0.0337  0.0243
  110loPI   GL2 1750   9.727   1.194  10.831 -0.0256  0.3899 -0.0280
  110loPI   C1A 1751   9.759   0.719  10.671  0.1624  0.0206 -0.2602
  110loPI   C2A 1752   9.620   0.475  10.420  0.2466  0.2580 -0.1752
  110loPI   C3A 1753   9.581   0.402   9.914  0.0802 -0.0845 -0.2470
  110loPI   C4A 1754   9.426   0.296   9.579  0.0451 -0.2862 -0.2201
  110loPI   C5A 1755   9.464   0.258   9.106  0.1441 -0.0924  0.1046
  110loPI   C6A 1756   9.575   0.478   8.778 -0.2296  0.1208 -0.0455
  110loPI   C1B 1757   9.599   1.170  10.368 -0.1746  0.0896  0.0409
  110loPI   C2B 1758   9.617   1.196   9.939 -0.0223  0.0002  0.0919
  110loPI   C3B 1759   9.698   1.222   9.507  0.0059  0.0735 -0.0041
  110loPI   C4B 1760   9.854   0.993   9.137  0.0967  0.1821 -0.2547
  111loPI    C1 1761  14.397   5.917  10.912 -0.1063 -0.3002  0.0671
  111loPI    C2 1762  14.148   6.215  11.009  0.0864 -0.0501 -0.1875
  111loPI    C3 1763  14.459   6.128  11.246  0.2031  0.1531 -0.2632
  111loPI   PO4 1764  14.352   5.918  10.650 -0.1588 -0.0114  0.0296
  111loPI   GL1 1765  14.178   5.864  10.244 -0.1017 -0.0245  0.0330
  111loPI   GL2 1766  14.119   5.584  10.110 -0.1135 -0.0170  0.3344
  111loPI   C1A 1767  14.035   5.938   9.811 -0.1174  0.0586  0.1552
  111loPI   C2A 1768  14.022   6.073   9.444 -0.0637 -0.0816 -0.0723
  111loPI   C3A 1769  14.053   6.134   9.005  0.2568  0.1134  0.1265
  111loPI   C4A 1770  13.992   6.336   8.607  0.0215  0.0049 -0.0670
  111loPI   C5A 1771  13.992   6.464   8.222  0.2160 -0.4505  0.3225
  111loPI   C6A 1772  13.608   6.623   8.153  0.1786  0.0425 -0.0669
  111loPI   C1B 1773  14.427   5.671   9.752 -0.0911  0.1623  0.1345
  111loPI   C2B 1774  14.367   5.720   9.283  0.2491  0.1146  0.1841
  111loPI   C3B 1775  14.456   5.713   8.845  0.2443  0.0883 -0.1547
  111loPI   C4B 1776  14.345   5.932   8.510  0.0479  0.0483 -0.1971
  112loPI    C1 1777   7.865   3.477  10.836  0.1174  0.4140  0.1213
  112loPI    C2 1778   7.586   3.410  11.116  0.2389 -0.0294  0.1437
  112loPI    C3 1779   7.962   3.495  11.224  0.1881  0.2444  0.1124
  112loPI   PO4 1780   7.716   3.683  10.687 -0.0142  0.3908  0.0984
  112loPI   GL1 1781   7.777   3.713  10.230  0.0318  0.1062 -0.0433
  112loPI   GL2 1782   7.748   3.392  10.270  0.0988  0.1545 -0.4422
  112loPI   C1A 1783   7.779   3.876   9.799 -0.2734 -0.3480 -0.2915
  112loPI   C2A 1784   7.770   3.806   9.431 -0.2703  0.0640  0.1171
  112loPI   C3A 1785   7.718   3.739   9.083  0.0271  0.2558 -0.1274
  112loPI   C4A 1786   8.126   3.663   8.820 -0.1182 -0.0077 -0.2059
  112loPI   C5A 1787   8.254   3.539   8.410 -0.0721  0.1684 -0.0084
  112loPI   C6A 1788   8.336   3.862   8.023 -0.1010 -0.0609 -0.1499
  112loPI   C1B 1789   7.747   3.363   9.895  0.1092 -0.3102 -0.1011
  112loPI   C2B 1790   7.710   3.312   9.364  0.0552 -0.0831 -0.0091
  112loPI   C3B 1791   7.792   3.198   9.000  0.2399  0.1728 -0.2760
  112loPI   C4B 1792   8.020   3.185   8.706 -0.4859 -0.0334 -0.0755
  113loPI    C1 1793   3.705  13.197  10.907 -0.0810 -0.0758 -0.1899
  113loPI    C2 1794   3.462  12.893  11.001 -0.1560 -0.0277 -0.2278
  113loPI    C3 1795   3.744  13.010  11.259 -0.2922  0.0350 -0.1059
  113loPI   PO4 1796   3.614  13.328  10.711 -0.0097  0.1400  0.1876
  113loPI   GL1 1797   3.358  13.499  10.451 -0.0702 -0.0515  0.1451
  113loPI   GL2 1798   3.239  13.734  10.343 -0.2061 -0.0512  0.1616
  113loPI   C1A 1799   3.389  13.399   9.962  0.0645  0.1395 -0.0585
  113loPI   C2A 1800   3.481  13.234   9.557  0.1156  0.0940  0.0617
  113loPI   C3A 1801   3.542  13.279   9.041  0.2630 -0.0816 -0.0301
  113loPI   C4A 1802   3.253  13.274   8.670 -0.2530  0.3392  0.0807
  113loPI   C5A 1803   3.207  13.528   8.365  0.1705  0.0408  0.0736
  113loPI   C6A 1804   2.958  13.812   8.274  0.1958  0.0648  0.0202
  113loPI   C1B 1805   3.300  13.858   9.950 -0.1522 -0.0389 -0.2485
  113loPI   C2B 1806   3.344  13.713   9.535  0.1303 -0.1755  0.2011
  113loPI   C3B 1807   3.375  13.785   9.114 -0.3749  0.2688 -0.4162
  113loPI   C4B 1808   3.182  13.874   8.736  0.0059 -0.1199 -0.1336
  114loPI    C1 1809   4.006  14.361  11.301 -0.0781  0.1636  0.1877
  114loPI    C2 1810   3.817  14.241  11.633 -0.2440  0.1762  0.0990
  114loPI    C3 1811   4.189  14.388  11.656 -0.1945  0.0286  0.2589
  114loPI   PO4 1812   3.907  14.242  11.085 -0.1054  0.0393 -0.1364
  114loPI   GL1 1813   4.184  14.156  10.769 -0.1384  0.0193 -0.0083
  114loPI   GL2 1814   4.106  14.446  10.622 -0.0176  0.1456  0.2890
  114loPI   C1A 1815   4.198  14.072  10.250 -0.2095  0.0995 -0.0352
  114loPI   C2A 1816   4.094  14.023   9.922 -0.2508  0.1905  0.1212
  114loPI   C3A 1817   4.167  14.092   9.498  0.1022 -0.1884  0.0960
  114loPI   C4A 1818   4.205  14.116   9.120 -0.0663 -0.0777 -0.0346
  114loPI   C5A 1819   4.192  14.043   8.729  0.0770  0.3579  0.4819
  114loPI   C6A 1820   3.949  14.275   8.398 -0.0234 -0.0941 -0.1499
  114loPI   C1B 1821   4.038  14.526  10.071 -0.0321 -0.1964 -0.0643
  114loPI   C2B 1822   4.020  14.539   9.641 -0.2549 -0.2513 -0.1323
  114loPI   C3B 1823   4.045  14.635   9.236  0.3880 -0.0138 -0.1054
  114loPI   C4B 1824   4.078  14.608   8.772 -0.1373 -0.0748  0.3851
  115loPI    C1 1825  13.629  16.052  11.121 -0.0680  0.0285 -0.1644
  115loPI    C2 1826  13.750  15.684  11.021 -0.1311  0.0578 -0.3526
  115loPI    C3 1827  13.826  15.827  11.387 -0.1920 -0.1787 -0.2459
  115loPI   PO4 1828  13.359  15.991  10.911 -0.1168  0.0062  0.2499
  115loPI   GL1 1829  13.309  15.663  10.473 -0.0787 -0.0552 -0.3582
  115loPI   GL2 1830  13.477  15.402  10.565  0.1701 -0.2972 -0.0570
  115loPI   C1A 1831  13.316  15.616  10.001  0.4705  0.1180  0.1257
  115loPI   C2A 1832  13.392  15.584   9.627  0.2318  0.0210  0.0210
  115loPI   C3A 1833  13.251  15.461   9.193  0.0493  0.0136 -0.2076
  115loPI   C4A 1834  13.173  15.391   8.855 -0.1632  0.1397  0.1328
  115loPI   C5A 1835  13.360  15.014   8.677  0.2587 -0.1297 -0.2245
  115loPI   C6A 1836  13.220  14.576   8.669 -0.3376 -0.0481  0.0907
  115loPI   C1B 1837  13.781  15.411  10.231 -0.2181 -0.0807 -0.0421
  115loPI   C2B 1838  13.827  15.314   9.813  0.3179 -0.2029 -0.0783
  115loPI   C3B 1839  13.851  15.345   9.412  0.1898 -0.1387  0.1872
  115loPI   C4B 1840  13.692  15.341   9.068  0.1625 -0.2744  0.0077
  116loPI    C1 1841   3.920   8.352  10.667 -0.0809 -0.0676 -0.2090
  116loPI    C2 1842   3.537   8.404  10.769 -0.0497 -0.0137 -0.1193
  116loPI    C3 1843   3.757   8.125  10.953  0.0437  0.1739  0.0586
  116loPI   PO4 1844   3.869   8.411  10.366  0.3319  0.1587  0.0309
  116loPI   GL1 1845   3.800   8.783  10.160  0.1301 -0.3289  0.1122
  116loPI   GL2 1846   4.060   8.859  10.132  0.0548  0.1031  0.2147
  116loPI   C1A 1847   3.764   9.026   9.743 -0.1109 -0.0773 -0.1769
  116loPI   C2A 1848   3.930   9.162   9.399  0.1971 -0.3010 -0.4079
  116loPI   C3A 1849   4.063   9.162   8.938  0.1430 -0.4503  0.1246
  116loPI   C4A 1850   4.132   8.948   8.632  0.0189  0.2662 -0.0066
  116loPI   C5A 1851   4.161   8.517   8.731 -0.0168 -0.0027  0.2757
  116loPI   C6A 1852   4.172   8.131   8.446 -0.0039 -0.0161  0.2697
  116loPI   C1B 1853   4.343   8.954   9.796  0.1376 -0.0853 -0.1260
  116loPI   C2B 1854   4.362   8.982   9.339  0.0094 -0.0821 -0.1523
  116loPI   C3B 1855   4.401   8.716   9.124 -0.0145  0.2716  0.0517
  116loPI   C4B 1856   4.664   8.596   8.805 -0.0631  0.1005  0.0385
  117loPI    C1 1857  17.545  11.816  10.616  0.1338  0.0367  0.1341
  117loPI    C2 1858  17.329  11.882  10.946  0.0293 -0.1504  0.1043
  117loPI    C3 1859  17.478  11.518  10.873 -0.0409 -0.1375 -0.1089
  117loPI   PO4 1860  17.464  11.983  10.429  0.2195  0.0738  0.0421
  117loPI   GL1 1861  17.540  11.847  10.064  0.0085 -0.1702 -0.1119
  117loPI   GL2 1862  17.667  11.604  10.035  0.1091 -0.1115  0.1582
  117loPI   C1A 1863  17.583  12.193   9.792  0.2072  0.1036 -0.1787
  117loPI   C2A 1864  17.728  12.106   9.379  0.1523 -0.3169  0.1289
  117loPI   C3A 1865  17.675  12.174   8.970 -0.2636 -0.1767  0.1531
  117loPI   C4A 1866  17.903  12.286   8.575  0.5306 -0.2166  0.0967
  117loPI   C5A 1867  18.001  12.430   8.105 -0.0025  0.2279 -0.1486
  117loPI   C6A 1868  18.086  12.866   7.830  0.1388  0.1049  0.0511
  117loPI   C1B 1869  17.639  11.712   9.598  0.2604  0.2010  0.0039
  117loPI   C2B 1870  17.488  11.725   9.154 -0.2395  0.0637 -0.1615
  117loPI   C3B 1871  17.246  11.814   8.867 -0.2637  0.0592 -0.1266
  117loPI   C4B 1872  17.127  11.542   8.472  0.1130  0.1044  0.0675
  118loPI    C1 1873   1.949   8.490  11.189 -0.2098 -0.0788  0.1089
  118loPI    C2 1874   2.347   8.529  11.204 -0.2049  0.0882 -0.3024
  118loPI    C3 1875   2.113   8.800  11.382 -0.1382 -0.0039 -0.0698
  118loPI   PO4 1876   1.966   8.459  10.840  0.2643  0.1276  0.0288
  118loPI   GL1 1877   1.719   8.473  10.445 -0.1854  0.0316 -0.2609
  118loPI   GL2 1878   1.874   8.240  10.258  0.2793 -0.0402 -0.0363
  118loPI   C1A 1879   1.947   8.737  10.019 -0.0814  0.0857 -0.0578
  118loPI   C2A 1880   1.909   8.933   9.622  0.1785  0.2279 -0.0046
  118loPI   C3A 1881   1.886   8.899   9.166  0.1829 -0.0380  0.0365
  118loPI   C4A 1882   2.065   9.029   8.837  0.3788  0.3408 -0.2236
  118loPI   C5A 1883   1.969   9.099   8.392 -0.2396 -0.0692  0.1242
  118loPI   C6A 1884   1.656   8.943   8.151 -0.0022 -0.0225  0.1310
  118loPI   C1B 1885   1.906   8.291   9.778 -0.4622  0.1849 -0.1612
  118loPI   C2B 1886   1.890   8.452   9.441  0.0688  0.2514  0.0960
  118loPI   C3B 1887   1.802   8.429   9.000 -0.1653  0.1819 -0.2214
  118loPI   C4B 1888   1.766   8.638   8.613  0.0765  0.2248  0.1513
  119loPI    C1 1889   4.406   8.264  10.447 -0.0052 -0.0832 -0.0693
  119loPI    C2 1890   4.145   7.999  10.301 -0.1625  0.0098  0.0405
  119loPI    C3 1891   4.295   7.949  10.668 -0.0870 -0.0004  0.0085
  119loPI   PO4 1892   4.443   8.453  10.280 -0.1594  0.0828 -0.2229
  119loPI   GL1 1893   4.699   8.531   9.964  0.0206 -0.2005 -0.3230
  119loPI   GL2 1894   4.877   8.330   9.921 -0.0537 -0.2142  0.0048
  119loPI   C1A 1895   4.508   8.487   9.569  0.0736 -0.0577  0.0154
  119loPI   C2A 1896   4.562   8.212   9.183 -0.0093 -0.2330  0.1152
  119loPI   C3A 1897   4.541   8.120   8.777  0.1830 -0.1061 -0.1879
  119loPI   C4A 1898   4.707   8.266   8.405  0.5797  0.0725 -0.1125
  119loPI   C5A 1899   4.673   8.564   7.999  0.1026 -0.2340  0.0053
  119loPI   C6A 1900   4.806   8.835   7.845 -0.1371  0.3394 -0.1208
  119loPI   C1B 1901   5.000   8.364   9.431 -0.2643 -0.1942  0.2677
  119loPI   C2B 1902   5.138   8.354   9.069  0.0317 -0.1282 -0.0160
  119loPI   C3B 1903   5.176   8.400   8.634 -0.1574  0.0509  0.1876
  119loPI   C4B 1904   5.317   8.346   8.216 -0.2019 -0.0264  0.2038
  120loPI    C1 1905  14.452   5.425  10.666 -0.4628  0.0786 -0.0760
  120loPI    C2 1906  14.327   5.120  10.893 -0.0836  0.0693  0.1281
  120loPI    C3 1907  14.382   5.482  11.056 -0.1585  0.1526 -0.0296
  120loPI   PO4 1908  14.416   5.344  10.387  0.0110  0.3497  0.0214
  120loPI   GL1 1909  14.635   5.026  10.090  0.3424  0.1464  0.0208
  120loPI   GL2 1910  14.748   5.335   9.931 -0.0415  0.1360 -0.2721
  120loPI   C1A 1911  14.637   4.895   9.662 -0.0445  0.1870  0.0865
  120loPI   C2A 1912  14.730   4.878   9.153 -0.1185  0.1706  0.2300
  120loPI   C3A 1913  14.661   4.909   8.715 -0.0685  0.4444  0.0146
  120loPI   C4A 1914  14.590   5.059   8.363  0.1274  0.0087 -0.3691
  120loPI   C5A 1915  14.546   5.232   7.837 -0.1433  0.1446  0.1370
  120loPI   C6A 1916  14.880   5.518   7.474  0.0430  0.1456  0.2199
  120loPI   C1B 1917  14.729   5.381   9.523 -0.2079 -0.1048  0.1010
  120loPI   C2B 1918  14.823   5.359   9.099  0.0035  0.0560  0.0278
  120loPI   C3B 1919  14.821   5.395   8.727  0.2850 -0.1528  0.1544
  120loPI   C4B 1920  14.648   5.550   8.368  0.0784  0.1095 -0.0745
  121loPI    C1 1921  10.841   4.278  10.504 -0.1369  0.1908 -0.0953
  121loPI    C2 1922  10.643   4.589  10.659 -0.1260  0.0217  0.2677
  121loPI    C3 1923  10.943   4.421  10.863  0.0243 -0.0795 -0.0310
  121loPI   PO4 1924  10.880   4.332  10.268  0.0287 -0.1609  0.2543
  121loPI   GL1 1925  10.890   4.374   9.750  0.3232 -0.0492  0.1306
  121loPI   GL2 1926  11.202   4.248   9.728  0.0549  0.2597 -0.1481
  121loPI   C1A 1927  10.838   4.174   9.323 -0.1478 -0.1885  0.4009
  121loPI   C2A 1928  10.854   4.234   8.931 -0.2255 -0.0360 -0.1306
  121loPI   C3A 1929  10.761   4.263   8.560 -0.0209  0.0088 -0.0534
  121loPI   C4A 1930  10.732   4.225   8.208  0.0971  0.0671 -0.3154
  121loPI   C5A 1931  10.931   4.285   7.879  0.0080  0.1140 -0.2080
  121loPI   C6A 1932  10.714   4.583   7.559  0.3548 -0.0225 -0.0988
  121loPI   C1B 1933  11.315   4.453   9.343  0.1719  0.0617  0.1200
  121loPI   C2B 1934  11.382   4.291   9.016 -0.0709 -0.3204  0.2987
  121loPI   C3B 1935  11.261   4.384   8.653  0.0817 -0.2742 -0.1406
  121loPI   C4B 1936  11.190   4.476   8.248  0.0116  0.0821 -0.1766
  122loPI    C1 1937  15.089   8.325  10.478 -0.1155  0.0271  0.0043
  122loPI    C2 1938  14.967   8.195  10.836 -0.0885 -0.3602 -0.1227
  122loPI    C3 1939  15.332   8.351  10.794 -0.1060 -0.2780  0.0250
  122loPI   PO4 1940  14.877   8.367  10.314  0.1958  0.1136 -0.0189
  122loPI   GL1 1941  14.798   8.340  10.031  0.1007 -0.1548 -0.1324
  122loPI   GL2 1942  14.493   8.193   9.897 -0.2929  0.0457  0.0443
  122loPI   C1A 1943  14.885   8.468   9.656  0.2328  0.2667  0.3350
  122loPI   C2A 1944  15.001   8.529   9.270 -0.3141 -0.0157  0.1050
  122loPI   C3A 1945  14.928   8.580   8.781  0.0959 -0.0773  0.0090
  122loPI   C4A 1946  14.986   8.545   8.442 -0.0173  0.3064 -0.0906
  122loPI   C5A 1947  15.324   8.273   8.141  0.0156  0.2765  0.2069
  122loPI   C6A 1948  15.419   8.059   7.704  0.0440 -0.0768 -0.2850
  122loPI   C1B 1949  14.534   8.214   9.414 -0.2346 -0.2289 -0.1803
  122loPI   C2B 1950  14.651   8.232   9.056  0.0665  0.0978  0.0032
  122loPI   C3B 1951  14.485   8.252   8.670  0.1266 -0.0020  0.1167
  122loPI   C4B 1952  14.382   8.215   8.367  0.0074  0.0398 -0.2799
  123loPI    C1 1953  11.880  13.576  11.147 -0.1112 -0.3596 -0.1271
  123loPI    C2 1954  12.040  13.358  11.442  0.0207  0.3390  0.3433
  123loPI    C3 1955  11.644  13.358  11.386  0.0378 -0.2207  0.1517
  123loPI   PO4 1956  12.007  13.507  10.914  0.0282 -0.0400 -0.0955
  123loPI   GL1 1957  12.057  13.254  10.617 -0.1006 -0.0616  0.1918
  123loPI   GL2 1958  12.382  13.279  10.505  0.0405 -0.0650  0.1050
  123loPI   C1A 1959  12.035  13.242  10.176 -0.1783 -0.0705  0.1383
  123loPI   C2A 1960  12.045  13.278   9.772  0.1050 -0.2475  0.2202
  123loPI   C3A 1961  11.958  13.206   9.396  0.0087  0.0235  0.2201
  123loPI   C4A 1962  12.125  13.293   9.003  0.2956 -0.0982  0.1751
  123loPI   C5A 1963  12.427  13.408   8.608  0.2589  0.1098  0.0462
  123loPI   C6A 1964  12.467  13.661   8.197  0.0087  0.0502 -0.1770
  123loPI   C1B 1965  12.445  13.589  10.128 -0.0832 -0.1797  0.0103
  123loPI   C2B 1966  12.470  13.677   9.648  0.0382  0.0223 -0.1317
  123loPI   C3B 1967  12.313  13.622   9.297  0.0169 -0.0298 -0.1567
  123loPI   C4B 1968  12.388  13.725   8.965 -0.1876 -0.0067 -0.3359
  124loPI    C1 1969   1.328  16.426  11.081  0.0059  0.1539 -0.2276
  124loPI    C2 1970   1.635  16.304  11.307  0.0421 -0.0130 -0.3645
  124loPI    C3 1971   1.404  16.607  11.430  0.0741 -0.0873 -0.1154
  124loPI   PO4 1972   1.440  16.520  10.807  0.1021  0.3811 -0.0355
  124loPI   GL1 1973   1.537  16.627  10.437  0.1120  0.1219  0.1105
  124loPI   GL2 1974   1.236  16.826  10.381  0.1281  0.1005 -0.5954
  124loPI   C1A 1975   1.577  16.530  10.022 -0.1261  0.1519  0.2885
  124loPI   C2A 1976   1.547  16.405   9.664 -0.0742 -0.1898  0.1271
  124loPI   C3A 1977   1.546  16.503   9.297 -0.0736 -0.0158  0.1192
  124loPI   C4A 1978   1.507  16.587   8.905  0.0506  0.0194 -0.1262
  124loPI   C5A 1979   1.551  16.670   8.459 -0.1360 -0.3174 -0.3065
  124loPI   C6A 1980   1.807  16.592   8.136 -0.0634  0.5820  0.0991
  124loPI   C1B 1981   1.201  16.838   9.940 -0.1117  0.0996  0.1312
  124loPI   C2B 1982   1.176  16.811   9.542  0.1332  0.0240 -0.3915
  124loPI   C3B 1983   1.025  16.717   9.151 -0.0599  0.1486  0.3345
  124loPI   C4B 1984   1.124  16.852   8.667 -0.0691  0.0960  0.0001
  125loPI    C1 1985  17.257  16.105  11.054  0.1333 -0.2076 -0.0529
  125loPI    C2 1986  17.201  16.297  11.401  0.0478  0.0184 -0.1899
  125loPI    C3 1987  16.943  16.014  11.286  0.1014 -0.0886 -0.0488
  125loPI   PO4 1988  17.400  16.407  10.865  0.0390  0.1069  0.0534
  125loPI   GL1 1989  17.230  16.533  10.526  0.4947  0.2214 -0.0391
  125loPI   GL2 1990  17.538  16.511  10.374 -0.1487 -0.0734 -0.1190
  125loPI   C1A 1991  16.840  16.572  10.237 -0.1348 -0.0035 -0.0627
  125loPI   C2A 1992  16.685  16.614   9.793  0.1372  0.0319 -0.0801
  125loPI   C3A 1993  16.730  16.558   9.474  0.0238 -0.1720 -0.0999
  125loPI   C4A 1994  16.650  16.517   9.015  0.0196 -0.0105  0.2827
  125loPI   C5A 1995  16.767  16.247   8.720 -0.1854  0.0997  0.0607
  125loPI   C6A 1996  17.014  15.895   8.745  0.0397  0.0145 -0.1001
  125loPI   C1B 1997  17.400  16.528  10.025 -0.1453 -0.0019  0.1501
  125loPI   C2B 1998  17.252  16.548   9.583 -0.0021 -0.0493 -0.0148
  125loPI   C3B 1999  17.276  16.440   9.180 -0.1134  0.2347  0.0379
  125loPI   C4B 2000  17.346  16.492   8.802 -0.0850 -0.0789  0.0903
  126loPI    C1 2001   2.061  15.206  10.974 -0.1195 -0.3029  0.2990
  126loPI    C2 2002   2.353  15.146  11.240  0.1939 -0.0302  0.0271
  126loPI    C3 2003   2.133  15.480  11.257  0.1675 -0.0455 -0.0130
  126loPI   PO4 2004   2.134  15.081  10.757  0.0603 -0.0701 -0.0164
  126loPI   GL1 2005   2.296  15.231  10.396 -0.3497 -0.0008  0.1619
  126loPI   GL2 2006   2.342  15.517  10.256  0.0581  0.0590 -0.1119
  126loPI   C1A 2007   2.509  14.935  10.060  0.1255  0.3925 -0.1330
  126loPI   C2A 2008   2.508  14.869   9.586  0.0349 -0.0684 -0.2042
  126loPI   C3A 2009   2.485  14.943   9.115 -0.2330 -0.0160  0.1966
  126loPI   C4A 2010   2.574  14.797   8.677  0.1820  0.0077  0.1229
  126loPI   C5A 2011   2.627  14.709   8.290  0.2054  0.1817  0.0095
  126loPI   C6A 2012   2.894  14.302   8.109 -0.2421 -0.0029  0.1354
  126loPI   C1B 2013   2.322  15.371   9.891 -0.0169  0.0608  0.0340
  126loPI   C2B 2014   2.315  15.317   9.399 -0.1700 -0.5471 -0.1942
  126loPI   C3B 2015   2.441  15.444   9.067  0.0674  0.1091 -0.2403
  126loPI   C4B 2016   2.303  15.272   8.736 -0.0293  0.0919  0.1902
  127loPI    C1 2017   2.859   3.334  10.739 -0.2134  0.0554  0.0668
  127loPI    C2 2018   2.619   3.302  11.057  0.0930  0.1168  0.3093
  127loPI    C3 2019   3.011   3.227  11.093  0.1019 -0.0626 -0.0991
  127loPI   PO4 2020   2.780   3.545  10.469  0.3501 -0.3857 -0.1406
  127loPI   GL1 2021   2.988   3.538  10.115 -0.0432  0.0297 -0.2327
  127loPI   GL2 2022   2.663   3.591   9.882 -0.1979 -0.0569  0.0058
  127loPI   C1A 2023   3.227   3.791   9.806  0.0090  0.0453  0.1686
  127loPI   C2A 2024   3.308   3.884   9.429  0.1347  0.0433  0.3298
  127loPI   C3A 2025   3.293   3.925   8.962  0.0273 -0.0901 -0.0648
  127loPI   C4A 2026   3.182   4.002   8.531  0.1298 -0.3368  0.0300
  127loPI   C5A 2027   3.326   4.155   8.173  0.0420 -0.0612 -0.2825
  127loPI   C6A 2028   3.461   4.425   7.882 -0.0068  0.2461 -0.0226
  127loPI   C1B 2029   2.843   3.717   9.453 -0.0032  0.1121 -0.3938
  127loPI   C2B 2030   2.827   3.793   9.034 -0.2190 -0.1556 -0.0244
  127loPI   C3B 2031   2.783   3.705   8.536 -0.1901  0.1684  0.4742
  127loPI   C4B 2032   3.088   3.700   8.159 -0.2000  0.1381 -0.1314
  128loPI    C1 2033   1.137   7.054  10.304 -0.0135  0.0288 -0.0226
  128loPI    C2 2034   1.500   6.899  10.367  0.0527  0.1651 -0.0647
  128loPI    C3 2035   1.237   6.706  10.134  0.0011 -0.0682  0.1826
  128loPI   PO4 2036   1.130   7.247  10.371 -0.0367 -0.2633  0.1998
  128loPI   GL1 2037   1.298   7.577  10.116  0.6278 -0.2302 -0.1494
  128loPI   GL2 2038   1.598   7.546   9.918 -0.1181  0.1448 -0.1457
  128loPI   C1A 2039   1.094   7.625   9.634 -0.0192 -0.0326 -0.1411
  128loPI   C2A 2040   1.292   7.597   9.217  0.0199 -0.1557 -0.1243
  128loPI   C3A 2041   1.401   7.595   8.798 -0.5398  0.3168 -0.0674
  128loPI   C4A 2042   1.562   7.361   8.544 -0.0677 -0.0550 -0.3046
  128loPI   C5A 2043   1.670   7.267   8.304 -0.2608  0.2946 -0.0082
  128loPI   C6A 2044   1.948   6.963   8.217  0.1242  0.0533 -0.1471
  128loPI   C1B 2045   1.756   7.511   9.431  0.0889 -0.0277 -0.1087
  128loPI   C2B 2046   1.847   7.512   8.998 -0.2119 -0.1393  0.2451
  128loPI   C3B 2047   2.002   7.609   8.577  0.0872  0.1924  0.2981
  128loPI   C4B 2048   1.637   7.761   8.247 -0.0014 -0.0007  0.1714
  129loPI    C1 2049   7.877  14.071  11.389  0.0593 -0.1454 -0.0944
  129loPI    C2 2050   7.537  13.887  11.490  0.0603 -0.1150 -0.0353
  129loPI    C3 2051   7.887  13.700  11.538  0.0468 -0.1760 -0.1690
  129loPI   PO4 2052   7.891  14.180  11.191 -0.1042  0.1959  0.0372
  129loPI   GL1 2053   7.875  14.003  10.739 -0.0153 -0.5513  0.1777
  129loPI   GL2 2054   7.829  14.356  10.751  0.0709 -0.2124  0.0172
  129loPI   C1A 2055   7.925  13.898  10.357 -0.3210  0.0778  0.1633
  129loPI   C2A 2056   7.997  13.942  10.017  0.2355 -0.4512  0.2548
  129loPI   C3A 2057   7.973  13.962   9.652 -0.0712  0.0392  0.0761
  129loPI   C4A 2058   8.087  13.844   9.216 -0.1404  0.2941 -0.0296
  129loPI   C5A 2059   8.063  13.788   8.771 -0.1550 -0.3172 -0.0642
  129loPI   C6A 2060   7.902  13.591   8.405 -0.1472  0.1788  0.0100
  129loPI   C1B 2061   8.036  14.470  10.280 -0.2270  0.2905  0.0222
  129loPI   C2B 2062   8.020  14.414   9.834  0.1659 -0.0836 -0.0528
  129loPI   C3B 2063   7.930  14.411   9.382  0.1118  0.2647  0.1217
  129loPI   C4B 2064   7.884  14.263   8.898  0.0603 -0.1531  0.2891
  130loPI    C1 2065   4.655  13.539  11.089 -0.0638  0.2128  0.0619
  130loPI    C2 2066   4.801  13.724  11.411 -0.1253 -0.0237  0.2284
  130loPI    C3 2067   4.728  13.331  11.423 -0.1219 -0.0356 -0.0772
  130loPI   PO4 2068   4.506  13.733  10.978 -0.1694 -0.1534  0.0870
  130loPI   GL1 2069   4.467  13.592  10.598 -0.2566  0.1577 -0.1220
  130loPI   GL2 2070   4.734  13.449  10.580  0.2330 -0.0905 -0.0211
  130loPI   C1A 2071   4.249  13.572  10.148  0.0199  0.3500 -0.3177
  130loPI   C2A 2072   4.298  13.614   9.715 -0.1496  0.0042 -0.0182
  130loPI   C3A 2073   4.318  13.644   9.300  0.0419 -0.1926 -0.0587
  130loPI   C4A 2074   4.379  13.555   8.889  0.1201 -0.1644  0.0390
  130loPI   C5A 2075   4.066  13.413   8.594  0.0976  0.1729 -0.3191
  130loPI   C6A 2076   3.687  13.305   8.427 -0.0143  0.0459  0.0519
  130loPI   C1B 2077   4.764  13.446  10.238 -0.1222  0.3061  0.0090
  130loPI   C2B 2078   4.883  13.572   9.813 -0.2703  0.1788  0.1466
  130loPI   C3B 2079   4.836  13.491   9.412  0.2942  0.1428 -0.2181
  130loPI   C4B 2080   4.890  13.500   8.983  0.3486 -0.0093  0.0914
  131loPI    C1 2081  10.867  11.871  10.745 -0.3432 -0.0353  0.1695
  131loPI    C2 2082  11.184  12.044  10.917 -0.1085 -0.1082 -0.1785
  131loPI    C3 2083  11.014  11.725  11.087 -0.0530 -0.0143  0.0569
  131loPI   PO4 2084  10.886  12.013  10.484  0.1618 -0.3303 -0.1681
  131loPI   GL1 2085  11.054  11.778  10.200 -0.0101 -0.3780 -0.1192
  131loPI   GL2 2086  10.737  11.610  10.187 -0.0951  0.0534 -0.0559
  131loPI   C1A 2087  11.226  11.720   9.774  0.1872  0.3189 -0.3307
  131loPI   C2A 2088  11.160  11.620   9.377 -0.1632 -0.2838  0.2276
  131loPI   C3A 2089  11.119  11.592   8.939  0.3336 -0.1555 -0.0224
  131loPI   C4A 2090  11.217  11.769   8.498 -0.3046  0.0453 -0.0869
  131loPI   C5A 2091  11.336  12.276   8.438  0.1708  0.2613  0.2142
  131loPI   C6A 2092  11.323  12.566   8.679 -0.2179 -0.1165 -0.3801
  131loPI   C1B 2093  10.753  11.790   9.772 -0.1178  0.0443  0.2630
  131loPI   C2B 2094  10.688  11.751   9.380 -0.0187 -0.2177 -0.3482
  131loPI   C3B 2095  10.635  11.747   8.983 -0.1060  0.0531  0.0079
  131loPI   C4B 2096  10.659  11.693   8.528 -0.2759  0.1948  0.0910
  132loPI    C1 2097   6.403   4.245  10.445  0.0298  0.0068  0.1000
  132loPI    C2 2098   6.643   4.196  10.761 -0.1468  0.0712  0.2456
  132loPI    C3 2099   6.339   4.455  10.779 -0.0923  0.1558 -0.0158
  132loPI   PO4 2100   6.402   3.899  10.386 -0.2733  0.0284  0.2936
  132loPI   GL1 2101   6.340   3.722   9.966 -0.1174  0.0696 -0.1945
  132loPI   GL2 2102   6.516   3.329   9.988  0.0550  0.0034 -0.0174
  132loPI   C1A 2103   6.078   3.552   9.639  0.0046 -0.1547 -0.3115
  132loPI   C2A 2104   6.024   3.566   9.268 -0.0421  0.0213 -0.0743
  132loPI   C3A 2105   6.048   3.605   8.865 -0.2510  0.0265  0.0492
  132loPI   C4A 2106   6.040   3.651   8.443 -0.0070 -0.4006 -0.0581
  132loPI   C5A 2107   6.233   3.399   8.101  0.2248 -0.2074 -0.1580
  132loPI   C6A 2108   6.545   3.591   7.764 -0.0224 -0.0786  0.2137
  132loPI   C1B 2109   6.595   3.518   9.592 -0.0496  0.0609 -0.2467
  132loPI   C2B 2110   6.494   3.412   9.125  0.0602 -0.2679  0.2034
  132loPI   C3B 2111   6.474   3.409   8.594 -0.0287  0.1867 -0.0071
  132loPI   C4B 2112   6.699   3.578   8.220  0.1325  0.0005  0.0349
  133loPI    C1 2113  15.740   6.478  10.428  0.1629 -0.1533 -0.0284
  133loPI    C2 2114  15.748   6.830  10.617 -0.2715 -0.0279 -0.2316
  133loPI    C3 2115  15.744   6.490  10.828  0.0101  0.0886 -0.0325
  133loPI   PO4 2116  15.930   6.447  10.206  0.1288 -0.0435 -0.3516
  133loPI   GL1 2117  15.621   6.267   9.853 -0.0154 -0.0538  0.1140
  133loPI   GL2 2118  15.363   6.098   9.790  0.2732  0.3774 -0.1515
  133loPI   C1A 2119  15.459   6.511   9.516  0.0452  0.2499  0.1531
  133loPI   C2A 2120  15.474   6.406   9.105  0.0422  0.1272  0.0507
  133loPI   C3A 2121  15.581   6.537   8.725  0.2000  0.0872 -0.1636
  133loPI   C4A 2122  15.565   6.707   8.394 -0.0698  0.1562  0.0155
  133loPI   C5A 2123  15.950   7.002   8.163 -0.0290 -0.1309 -0.1107
  133loPI   C6A 2124  16.298   7.085   7.824  0.1522  0.2314 -0.0758
  133loPI   C1B 2125  15.356   6.034   9.331 -0.0434  0.1184  0.1108
  133loPI   C2B 2126  15.326   5.966   8.830  0.0965 -0.1893 -0.1935
  133loPI   C3B 2127  15.345   6.211   8.385  0.0993  0.0035  0.0015
  133loPI   C4B 2128  15.504   6.162   7.966 -0.0543  0.2308 -0.3219
  134loPI    C1 2129  17.017   2.391  10.604 -0.0012  0.0017 -0.0880
  134loPI    C2 2130  16.768   2.321  10.909 -0.0608 -0.1640 -0.1734
  134loPI    C3 2131  17.122   2.136  10.894  0.0366  0.0131 -0.0916
  134loPI   PO4 2132  16.921   2.301  10.405 -0.1369  0.0416  0.0067
  134loPI   GL1 2133  17.203   2.265  10.050  0.1182 -0.0396  0.2350
  134loPI   GL2 2134  17.137   2.553  10.052 -0.1701 -0.3685 -0.0822
  134loPI   C1A 2135  17.237   2.050   9.663 -0.0608 -0.2228 -0.0360
  134loPI   C2A 2136  17.219   2.034   9.177 -0.1927 -0.0328  0.5558
  134loPI   C3A 2137  17.255   2.112   8.781  0.0057 -0.0188 -0.0884
  134loPI   C4A 2138  17.502   2.075   8.358 -0.2013  0.3199  0.1494
  134loPI   C5A 2139  17.880   1.922   8.259 -0.1289  0.0285  0.2175
  134loPI   C6A 2140  18.215   1.709   8.229  0.2324  0.1591 -0.1357
  134loPI   C1B 2141  17.035   2.587   9.612  0.1920 -0.0744  0.1419
  134loPI   C2B 2142  17.041   2.495   9.210 -0.1194  0.1066  0.0851
  134loPI   C3B 2143  17.188   2.624   8.771 -0.0890 -0.0891 -0.0824
  134loPI   C4B 2144  17.273   2.498   8.364  0.0658  0.1080  0.1706
  135loPI    C1 2145  17.101   4.339  10.243 -0.2781  0.0825  0.0797
  135loPI    C2 2146  16.974   4.608  10.511 -0.0009  0.1411  0.1552
  135loPI    C3 2147  17.313   4.404  10.576  0.0779  0.1665 -0.1569
  135loPI   PO4 2148  16.889   4.406  10.072 -0.1619  0.4221 -0.1114
  135loPI   GL1 2149  16.820   4.633   9.754  0.1207 -0.0672 -0.1150
  135loPI   GL2 2150  17.136   4.834   9.598  0.0295 -0.0695  0.1632
  135loPI   C1A 2151  16.504   4.476   9.544  0.1080  0.1094  0.0876
  135loPI   C2A 2152  16.439   4.372   9.126 -0.0763  0.1873  0.0821
  135loPI   C3A 2153  16.376   4.501   8.750  0.2163 -0.0862  0.0096
  135loPI   C4A 2154  16.556   4.567   8.286  0.1048 -0.0704 -0.0789
  135loPI   C5A 2155  16.694   4.714   7.923 -0.0361 -0.0832 -0.0944
  135loPI   C6A 2156  17.026   4.896   7.698 -0.0358 -0.0644  0.0045
  135loPI   C1B 2157  17.002   4.681   9.239 -0.0804 -0.0337 -0.1695
  135loPI   C2B 2158  16.911   4.666   8.841 -0.2745 -0.0317  0.1126
  135loPI   C3B 2159  17.043   4.623   8.365 -0.2985 -0.1690 -0.0852
  135loPI   C4B 2160  17.346   4.770   8.095 -0.0936 -0.1036 -0.1449
  136loPI    C1 2161   1.042  17.545  10.691  0.1069 -0.0050 -0.3033
  136loPI    C2 2162   0.772  17.604  10.402 -0.0935 -0.1292 -0.1440
  136loPI    C3 2163   0.658  17.604  10.785  0.1730  0.0509 -0.0623
  136loPI   PO4 2164   1.188  17.355  10.612  0.0220 -0.1277  0.3815
  136loPI   GL1 2165   1.262  17.297  10.262 -0.0141  0.0134 -0.1250
  136loPI   GL2 2166   0.945  17.208  10.235 -0.3703  0.1533  0.2952
  136loPI   C1A 2167   1.191  17.385   9.798 -0.1286  0.4009 -0.2879
  136loPI   C2A 2168   1.111  17.274   9.432  0.2329 -0.6138  0.0245
  136loPI   C3A 2169   1.088  17.201   9.041 -0.0408 -0.1563 -0.0273
  136loPI   C4A 2170   1.142  17.321   8.644 -0.1547 -0.0365 -0.1281
  136loPI   C5A 2171   1.315  17.311   8.322 -0.1486  0.0245 -0.1290
  136loPI   C6A 2172   1.551  17.179   8.003  0.0919  0.2006  0.2344
  136loPI   C1B 2173   0.715  17.458   9.949 -0.0824  0.2931  0.2712
  136loPI   C2B 2174   0.641  17.597   9.601 -0.0042  0.0556  0.0054
  136loPI   C3B 2175   0.634  17.545   9.144  0.0776 -0.0161  0.1557
  136loPI   C4B 2176   0.631  17.640   8.708  0.0479 -0.2557 -0.0035
  137loPI    C1 2177   5.123  13.404  11.104  0.0061  0.0169  0.0862
  137loPI    C2 2178   5.296  13.074  10.958  0.0838  0.0619  0.0759
  137loPI    C3 2179   5.110  13.062  11.312 -0.0991 -0.0458 -0.0222
  137loPI   PO4 2180   5.163  13.536  10.895 -0.2373  0.1251  0.0930
  137loPI   GL1 2181   5.122  13.813  10.587  0.1082 -0.0152  0.0097
  137loPI   GL2 2182   4.732  13.964  10.478  0.2298 -0.0121  0.0511
  137loPI   C1A 2183   5.181  13.828  10.106  0.2483  0.2467 -0.3300
  137loPI   C2A 2184   5.199  13.921   9.690 -0.0801  0.4135  0.0508
  137loPI   C3A 2185   5.204  13.819   9.266  0.1144 -0.3629  0.0394
  137loPI   C4A 2186   5.187  13.901   8.840 -0.0113  0.0031 -0.2963
  137loPI   C5A 2187   5.017  13.642   8.502  0.1560 -0.2618  0.1761
  137loPI   C6A 2188   4.516  13.479   8.433 -0.1144 -0.0440 -0.0098
  137loPI   C1B 2189   4.681  13.992  10.032  0.0581  0.1172  0.1501
  137loPI   C2B 2190   4.635  13.998   9.561  0.1642  0.0807  0.2524
  137loPI   C3B 2191   4.665  14.009   9.147  0.1088 -0.1254 -0.0869
  137loPI   C4B 2192   4.714  13.975   8.704  0.1676  0.0938  0.0983
  138loPI    C1 2193  17.168  10.919  10.888 -0.0976 -0.0492  0.0830
  138loPI    C2 2194  17.558  11.000  10.921 -0.1007  0.0041 -0.0071
  138loPI    C3 2195  17.381  10.758  11.185 -0.0058 -0.0234  0.0317
  138loPI   PO4 2196  17.159  11.047  10.587  0.0536 -0.4503 -0.2631
  138loPI   GL1 2197  17.370  10.931  10.225  0.0608  0.1167  0.0160
  138loPI   GL2 2198  17.019  10.946  10.103  0.0176  0.2319 -0.1907
  138loPI   C1A 2199  17.475  11.188   9.908  0.0810  0.1334  0.1576
  138loPI   C2A 2200  17.481  11.258   9.442  0.0494 -0.0079 -0.4277
  138loPI   C3A 2201  17.397  11.266   8.981 -0.0138 -0.3287  0.2905
  138loPI   C4A 2202  17.604  11.293   8.573  0.2381  0.1586 -0.1598
  138loPI   C5A 2203  17.597  11.221   8.214  0.2935  0.1009  0.3045
  138loPI   C6A 2204  17.552  11.157   7.811 -0.1376  0.1995  0.0741
  138loPI   C1B 2205  17.051  10.878   9.748  0.0144 -0.0747 -0.2080
  138loPI   C2B 2206  17.075  10.973   9.355  0.0520 -0.3000  0.1023
  138loPI   C3B 2207  17.105  10.888   8.831  0.2835  0.1415  0.0177
  138loPI   C4B 2208  17.152  11.066   8.468  0.0579  0.1521  0.0072
  139loPI    C1 2209  14.890   3.704  10.612  0.1601 -0.0623  0.1527
  139loPI    C2 2210  14.886   4.075  10.761  0.1504 -0.0689  0.1687
  139loPI    C3 2211  15.083   3.784  10.952  0.0023 -0.1134  0.2557
  139loPI   PO4 2212  14.872   3.773  10.388  0.0834 -0.0007 -0.1745
  139loPI   GL1 2213  14.749   3.678  10.016 -0.0405  0.0406 -0.1452
  139loPI   GL2 2214  14.821   3.436   9.975 -0.0442  0.0784  0.0236
  139loPI   C1A 2215  14.620   3.862   9.657  0.1050 -0.3891  0.2573
  139loPI   C2A 2216  14.538   3.984   9.262  0.2717  0.0202 -0.0529
  139loPI   C3A 2217  14.480   3.916   8.898 -0.0225 -0.1926 -0.0869
  139loPI   C4A 2218  14.335   3.992   8.524 -0.0760  0.0339 -0.2581
  139loPI   C5A 2219  13.995   3.920   8.287  0.0083 -0.2406 -0.0417
  139loPI   C6A 2220  13.907   3.837   7.927  0.0999 -0.5060 -0.1914
  139loPI   C1B 2221  14.692   3.405   9.529  0.0429 -0.0507 -0.1579
  139loPI   C2B 2222  14.589   3.392   9.056  0.2085  0.0158  0.4224
  139loPI   C3B 2223  14.525   3.486   8.608 -0.0577  0.1236  0.2552
  139loPI   C4B 2224  14.501   3.626   8.212  0.0558  0.0078  0.1930
  140loPI    C1 2225   6.419  13.698  11.487 -0.0194 -0.1307  0.0574
  140loPI    C2 2226   6.775  13.542  11.581 -0.0955 -0.2014  0.2335
  140loPI    C3 2227   6.647  13.872  11.766  0.1041  0.1295 -0.2004
  140loPI   PO4 2228   6.415  13.771  11.239  0.0357 -0.0550 -0.1373
  140loPI   GL1 2229   6.430  13.672  10.836 -0.3494  0.0151  0.0715
  140loPI   GL2 2230   6.704  13.762  10.781  0.0576 -0.0817  0.0315
  140loPI   C1A 2231   6.254  13.489  10.487  0.2025 -0.1557  0.3255
  140loPI   C2A 2232   6.079  13.600  10.043 -0.2047  0.0274  0.1015
  140loPI   C3A 2233   6.148  13.674   9.635  0.1433  0.1958  0.0018
  140loPI   C4A 2234   6.189  13.832   9.152  0.0712  0.3021  0.1219
  140loPI   C5A 2235   6.150  13.806   8.758  0.2852  0.0481  0.1274
  140loPI   C6A 2236   6.328  13.495   8.475 -0.0159 -0.0568 -0.2005
  140loPI   C1B 2237   6.821  13.467  10.416 -0.1565  0.1537 -0.2225
  140loPI   C2B 2238   6.650  13.441  10.031  0.0545 -0.0226 -0.0321
  140loPI   C3B 2239   6.767  13.534   9.645 -0.1580 -0.1329  0.0180
  140loPI   C4B 2240   6.684  13.631   9.204  0.0472  0.1655 -0.0013
  141loPI    C1 2241   1.692   5.559  10.257 -0.2009 -0.2939 -0.2201
  141loPI    C2 2242   1.529   5.528  10.621  0.1205  0.1311 -0.0308
  141loPI    C3 2243   1.864   5.741  10.569  0.3245 -0.2847 -0.5031
  141loPI   PO4 2244   1.683   5.308  10.158 -0.0258  0.1532 -0.0370
  141loPI   GL1 2245   1.511   5.275   9.818  0.1263 -0.0040 -0.3762
  141loPI   GL2 2246   1.526   4.917   9.893  0.5669 -0.0822 -0.1755
  141loPI   C1A 2247   1.263   5.177   9.449  0.2710  0.2476  0.1076
  141loPI   C2A 2248   1.098   5.089   9.052 -0.1141 -0.0624 -0.1539
  141loPI   C3A 2249   1.045   4.925   8.798  0.1153  0.0716 -0.0766
  141loPI   C4A 2250   1.017   4.908   8.321 -0.0661  0.0483 -0.2959
  141loPI   C5A 2251   1.195   4.945   7.983 -0.2298 -0.0617  0.2827
  141loPI   C6A 2252   0.979   4.842   7.601 -0.0093  0.0057  0.0219
  141loPI   C1B 2253   1.387   4.618   9.518  0.0014 -0.0429 -0.1814
  141loPI   C2B 2254   1.347   4.549   9.010 -0.1395 -0.3250 -0.0659
  141loPI   C3B 2255   1.512   4.615   8.695  0.0236 -0.2479 -0.0240
  141loPI   C4B 2256   1.480   4.725   8.327  0.0125 -0.2192 -0.0720
  142loPI    C1 2257   9.236   4.719  10.340 -0.0107  0.2710  0.0979
  142loPI    C2 2258   9.549   4.746  10.587  0.0167  0.0138  0.0933
  142loPI    C3 2259   9.181   4.694  10.735 -0.0077  0.1790  0.0926
  142loPI   PO4 2260   9.313   4.911  10.162 -0.0430  0.1318  0.0699
  142loPI   GL1 2261   9.481   5.002   9.881 -0.2989 -0.0192 -0.0190
  142loPI   GL2 2262   9.719   5.313   9.810 -0.1556 -0.1221  0.3552
  142loPI   C1A 2263   9.437   5.202   9.423 -0.1401  0.0493  0.1322
  142loPI   C2A 2264   9.535   5.025   8.977  0.2020  0.2134  0.1564
  142loPI   C3A 2265   9.618   5.009   8.601  0.0031  0.0249 -0.0802
  142loPI   C4A 2266   9.616   5.152   8.201  0.0355  0.0273 -0.0744
  142loPI   C5A 2267   9.795   5.366   8.000 -0.2454  0.3622  0.1033
  142loPI   C6A 2268   9.533   5.691   7.747 -0.0010 -0.1348 -0.2010
  142loPI   C1B 2269   9.793   5.532   9.423  0.3260 -0.2129 -0.1667
  142loPI   C2B 2270   9.720   5.504   9.078 -0.0497 -0.2146 -0.2046
  142loPI   C3B 2271   9.743   5.494   8.688 -0.2408 -0.2149 -0.1517
  142loPI   C4B 2272  10.027   5.420   8.403  0.0824  0.0664 -0.1435
  143loPI    C1 2273  14.520   0.569  10.900 -0.1023 -0.0649  0.0216
  143loPI    C2 2274  14.406   0.640  11.277 -0.3317  0.2989 -0.1111
  143loPI    C3 2275  14.504   0.944  11.037 -0.2666  0.0764 -0.3716
  143loPI   PO4 2276  14.346   0.500  10.810  0.2054 -0.0784  0.0729
  143loPI   GL1 2277  14.248   0.513  10.365 -0.1583  0.2788 -0.1351
  143loPI   GL2 2278  13.958   0.585  10.265  0.2757  0.0934 -0.0613
  143loPI   C1A 2279  14.397   0.398   9.931  0.2457 -0.0944  0.2644
  143loPI   C2A 2280  14.368   0.336   9.631 -0.0551 -0.0086  0.3208
  143loPI   C3A 2281  14.362   0.332   9.113  0.0102  0.0488 -0.0449
  143loPI   C4A 2282  14.432   0.303   8.759  0.0168  0.0548 -0.0961
  143loPI   C5A 2283  14.283   0.057   8.467  0.0664  0.0334 -0.1160
  143loPI   C6A 2284  14.217  -0.394   8.674 -0.0920  0.1326  0.0286
  143loPI   C1B 2285  13.890   0.469   9.852  0.2860 -0.1163  0.0190
  143loPI   C2B 2286  13.895   0.314   9.468  0.0328  0.1899  0.0025
  143loPI   C3B 2287  13.767   0.439   9.073 -0.2457 -0.0496 -0.5020
  143loPI   C4B 2288  13.948   0.414   8.645 -0.0868 -0.0560  0.0596
  144loPI    C1 2289  12.887   4.610  10.320 -0.1525  0.0586 -0.0827
  144loPI    C2 2290  12.844   4.937  10.094  0.2677  0.0630 -0.1637
  144loPI    C3 2291  12.895   4.973  10.489  0.1064  0.0830 -0.1440
  144loPI   PO4 2292  13.169   4.440  10.193  0.1183  0.0946  0.3133
  144loPI   GL1 2293  13.249   4.413   9.828 -0.3758  0.0981  0.1471
  144loPI   GL2 2294  13.008   4.429   9.614 -0.2195  0.0873 -0.0068
  144loPI   C1A 2295  13.250   4.900   9.576  0.2307 -0.0220 -0.2323
  144loPI   C2A 2296  13.295   4.881   9.112 -0.0446 -0.1534 -0.1547
  144loPI   C3A 2297  13.263   4.949   8.748 -0.0340 -0.1809 -0.0967
  144loPI   C4A 2298  13.319   5.169   8.358  0.3273  0.3092  0.2717
  144loPI   C5A 2299  13.303   5.324   7.973  0.1172  0.0608 -0.1505
  144loPI   C6A 2300  13.269   5.048   7.623  0.0906  0.3628 -0.1075
  144loPI   C1B 2301  12.989   4.318   9.157 -0.1486 -0.2885  0.1546
  144loPI   C2B 2302  13.025   4.524   8.835 -0.1572 -0.4268 -0.0282
  144loPI   C3B 2303  13.048   4.609   8.437  0.3121  0.2115  0.0762
  144loPI   C4B 2304  13.016   4.911   8.071 -0.1276  0.1087 -0.2133
  145loPI    C1 2305  14.031   9.488  10.638  0.0643  0.1211 -0.0885
  145loPI    C2 2306  13.879   9.131  10.733  0.0618  0.0508 -0.3496
  145loPI    C3 2307  14.214   9.260  10.911 -0.2273  0.1530  0.1380
  145loPI   PO4 2308  13.986   9.500  10.350  0.1343  0.0794 -0.1249
  145loPI   GL1 2309  13.921   9.369   9.902 -0.0036  0.2612 -0.1393
  145loPI   GL2 2310  14.017   9.079   9.701  0.2451  0.2512  0.0394
  145loPI   C1A 2311  13.914   9.495   9.510  0.0108 -0.2272  0.0716
  145loPI   C2A 2312  13.970   9.540   9.123 -0.2528 -0.1144 -0.3170
  145loPI   C3A 2313  14.122   9.617   8.696  0.0457 -0.4267 -0.1051
  145loPI   C4A 2314  14.292   9.752   8.399 -0.0314 -0.0491 -0.1402
  145loPI   C5A 2315  14.050  10.053   8.093  0.1365 -0.0557 -0.1769
  145loPI   C6A 2316  13.757  10.349   7.831 -0.1314  0.2517  0.0423
  145loPI   C1B 2317  14.225   9.135   9.396 -0.1403 -0.3777  0.3172
  145loPI   C2B 2318  14.291   9.223   8.980 -0.0537 -0.2462  0.0794
  145loPI   C3B 2319  14.377   9.216   8.556  0.0277  0.0451  0.0468
  145loPI   C4B 2320  14.375   9.134   8.096  0.2142  0.3647 -0.2737
  146loPI    C1 2321  12.930  11.736  10.592 -0.1348  0.2228 -0.1028
  146loPI    C2 2322  13.238  11.698  10.844 -0.3091  0.2916  0.1229
  146loPI    C3 2323  13.270  11.936  10.525  0.0041  0.0021 -0.0679
  146loPI   PO4 2324  12.891  11.554  10.486 -0.0143  0.2981  0.1516
  146loPI   GL1 2325  12.941  11.445  10.102 -0.2753  0.1524 -0.1049
  146loPI   GL2 2326  13.155  11.689  10.030 -0.1829  0.1365  0.2778
  146loPI   C1A 2327  12.603  11.576   9.768  0.0173 -0.3028  0.0644
  146loPI   C2A 2328  12.467  11.485   9.405  0.3460 -0.0710 -0.2220
  146loPI   C3A 2329  12.471  11.578   8.966 -0.0446  0.0438  0.2810
  146loPI   C4A 2330  12.626  11.686   8.555  0.0897  0.0728  0.0567
  146loPI   C5A 2331  12.841  11.607   8.182  0.0536 -0.4059  0.0962
  146loPI   C6A 2332  12.759  11.722   7.752 -0.1367  0.0284 -0.1198
  146loPI   C1B 2333  13.053  11.645   9.577  0.0252  0.0446  0.1088
  146loPI   C2B 2334  13.034  11.800   9.145 -0.1302 -0.1815  0.0268
  146loPI   C3B 2335  13.128  11.945   8.714 -0.2502  0.1755  0.0175
  146loPI   C4B 2336  13.145  12.017   8.329 -0.0521 -0.1703  0.0248
  147loPI    C1 2337   1.370   7.814  10.534 -0.3625  0.1440 -0.2283
  147loPI    C2 2338   1.329   7.837  10.931  0.1001 -0.0300 -0.1639
  147loPI    C3 2339   1.061   7.634  10.713 -0.1205  0.0105  0.0642
  147loPI   PO4 2340   1.345   8.134  10.438  0.0285  0.3168 -0.1142
  147loPI   GL1 2341   1.282   8.278  10.136  0.0290 -0.1730 -0.2178
  147loPI   GL2 2342   1.536   8.028  10.006 -0.2625  0.0926 -0.2834
  147loPI   C1A 2343   1.112   8.150   9.771 -0.3680 -0.0041  0.1186
  147loPI   C2A 2344   1.212   8.184   9.356  0.0933  0.0533 -0.1981
  147loPI   C3A 2345   1.225   8.073   8.894  0.0186 -0.0199 -0.2143
  147loPI   C4A 2346   1.397   8.146   8.404  0.2027 -0.1107 -0.2080
  147loPI   C5A 2347   1.668   8.393   8.124  0.1506  0.1372  0.1011
  147loPI   C6A 2348   1.976   8.571   7.776 -0.5024  0.2758 -0.3168
  147loPI   C1B 2349   1.552   7.949   9.600 -0.0205  0.0679 -0.0499
  147loPI   C2B 2350   1.651   7.937   9.213 -0.0265 -0.1012 -0.1574
  147loPI   C3B 2351   1.716   7.993   8.739  0.1360 -0.1338  0.2319
  147loPI   C4B 2352   1.989   8.118   8.506 -0.0578 -0.1717 -0.0736
  148loPI    C1 2353   5.459   3.917  10.547 -0.2850  0.0566  0.0008
  148loPI    C2 2354   5.821   3.762  10.620 -0.3089 -0.0607 -0.1252
  148loPI    C3 2355   5.495   3.596  10.784 -0.3328 -0.1333 -0.2452
  148loPI   PO4 2356   5.436   3.950  10.334 -0.0602 -0.0579 -0.0449
  148loPI   GL1 2357   5.582   3.998   9.952  0.4053 -0.0552  0.2074
  148loPI   GL2 2358   5.860   3.942   9.723 -0.0449 -0.2579 -0.0346
  148loPI   C1A 2359   5.412   4.093   9.636  0.1914  0.0730 -0.2282
  148loPI   C2A 2360   5.274   4.071   9.141 -0.0418  0.0732 -0.0866
  148loPI   C3A 2361   5.321   4.012   8.731 -0.1095 -0.1255  0.0550
  148loPI   C4A 2362   5.157   3.904   8.368 -0.0331  0.1741  0.1185
  148loPI   C5A 2363   5.239   3.953   7.892  0.3098 -0.0613  0.0012
  148loPI   C6A 2364   5.508   3.880   7.573  0.1328  0.2857 -0.4244
  148loPI   C1B 2365   5.822   4.019   9.208 -0.1581 -0.3967  0.2082
  148loPI   C2B 2366   5.832   4.152   8.706  0.0113 -0.0607  0.0964
  148loPI   C3B 2367   6.042   4.110   8.385 -0.0046 -0.1426  0.0579
  148loPI   C4B 2368   6.420   4.059   8.073  0.1366  0.3405 -0.0802
  149loPI    C1 2369   3.668  10.134  11.061  0.3542 -0.0180  0.0934
  149loPI    C2 2370   3.810   9.810  11.248  0.0145 -0.1757  0.0851
  149loPI    C3 2371   3.441   9.806  11.092  0.1537  0.0811 -0.2635
  149loPI   PO4 2372   3.866  10.222  10.849 -0.1611 -0.0668  0.2003
  149loPI   GL1 2373   3.997  10.075  10.514 -0.4076 -0.0893 -0.1302
  149loPI   GL2 2374   4.115   9.823  10.387  0.0576 -0.1711  0.0002
  149loPI   C1A 2375   3.654  10.046  10.191 -0.1178 -0.0533 -0.0253
  149loPI   C2A 2376   3.706  10.075   9.637  0.2058  0.0889  0.3392
  149loPI   C3A 2377   3.771  10.083   9.306  0.0189 -0.0136 -0.1471
  149loPI   C4A 2378   3.626  10.044   8.954 -0.2316  0.1127 -0.1664
  149loPI   C5A 2379   3.285   9.995   8.633  0.0223  0.3060 -0.5343
  149loPI   C6A 2380   2.925   9.770   8.552 -0.2450 -0.1266  0.0711
  149loPI   C1B 2381   4.105  10.046   9.989  0.1440 -0.2610 -0.0002
  149loPI   C2B 2382   4.206  10.027   9.496 -0.1931 -0.0750 -0.1282
  149loPI   C3B 2383   4.221  10.011   9.035  0.0097  0.3625 -0.0176
  149loPI   C4B 2384   4.227  10.024   8.687 -0.1096 -0.0070 -0.0001
  150loPI    C1 2385   3.817   0.734  11.258  0.0124  0.0863  0.1270
  150loPI    C2 2386   4.114   0.828  11.509  0.0194 -0.0613  0.1749
  150loPI    C3 2387   3.758   0.717  11.653 -0.0443  0.0670  0.1177
  150loPI   PO4 2388   3.937   0.611  11.052  0.1046 -0.1180 -0.1520
  150loPI   GL1 2389   3.860   0.613  10.691 -0.0061  0.3543 -0.1469
  150loPI   GL2 2390   3.563   0.628  10.519  0.1874 -0.0506  0.2843
  150loPI   C1A 2391   3.947   0.681  10.251  0.1357 -0.1561  0.3687
  150loPI   C2A 2392   4.117   0.691   9.828  0.1620  0.0234  0.0467
  150loPI   C3A 2393   4.203   0.659   9.451  0.1402 -0.1945 -0.1264
  150loPI   C4A 2394   4.196   0.509   9.149 -0.1597  0.2736  0.1346
  150loPI   C5A 2395   4.296   0.460   8.732 -0.0185 -0.0369  0.2362
  150loPI   C6A 2396   4.608   0.383   8.392 -0.0979 -0.0900 -0.1412
  150loPI   C1B 2397   3.367   0.596  10.166  0.2993  0.2459 -0.1882
  150loPI   C2B 2398   3.270   0.395   9.672 -0.1993  0.1121 -0.0537
  150loPI   C3B 2399   3.396   0.339   9.247 -0.0001  0.0402 -0.0055
  150loPI   C4B 2400   3.369   0.292   8.786 -0.2265 -0.0425 -0.0452
  151loPI    C1 2401  11.855   8.829  10.752 -0.2448  0.2001  0.1522
  151loPI    C2 2402  12.142   9.046  10.578 -0.1484 -0.2633 -0.2900
  151loPI    C3 2403  12.082   9.074  10.972  0.3001  0.0645 -0.2366
  151loPI   PO4 2404  11.706   8.666  10.440  0.1341 -0.2066 -0.2694
  151loPI   GL1 2405  11.651   8.450  10.135  0.0596  0.1030 -0.0584
  151loPI   GL2 2406  11.317   8.500  10.025 -0.0336 -0.0209  0.1166
  151loPI   C1A 2407  11.662   8.232   9.753 -0.0258  0.1392 -0.5498
  151loPI   C2A 2408  11.642   8.265   9.384 -0.0466 -0.2663 -0.1053
  151loPI   C3A 2409  11.755   8.216   8.866 -0.0256  0.1337  0.1602
  151loPI   C4A 2410  12.036   8.507   8.593 -0.1422  0.5130 -0.3429
  151loPI   C5A 2411  12.092   8.789   8.249 -0.0123  0.0019  0.0031
  151loPI   C6A 2412  12.473   9.077   8.062 -0.0624  0.3190 -0.1159
  151loPI   C1B 2413  11.290   8.605   9.558 -0.1890  0.1955  0.0532
  151loPI   C2B 2414  11.262   8.507   9.180 -0.0048 -0.0691  0.2151
  151loPI   C3B 2415  11.415   8.581   8.755 -0.1725 -0.0339 -0.0434
  151loPI   C4B 2416  11.630   8.707   8.379 -0.2206  0.0136 -0.1631
  152loPI    C1 2417   2.429   2.703  10.570 -0.0580  0.1629  0.0038
  152loPI    C2 2418   2.712   2.857  10.806  0.0958  0.0624 -0.1131
  152loPI    C3 2419   2.355   2.762  10.958  0.1668  0.0727  0.0620
  152loPI   PO4 2420   2.396   2.828  10.374 -0.2802  0.0920 -0.0220
  152loPI   GL1 2421   2.194   2.767  10.038  0.0135 -0.1172 -0.0790
  152loPI   GL2 2422   2.491   2.552   9.990  0.0028 -0.0133 -0.0349
  152loPI   C1A 2423   2.227   2.751   9.597  0.2959 -0.0957 -0.2245
  152loPI   C2A 2424   2.296   2.648   9.178 -0.2579  0.3209 -0.1706
  152loPI   C3A 2425   2.102   2.642   8.739 -0.2421  0.0639 -0.2881
  152loPI   C4A 2426   2.317   2.666   8.361  0.0543  0.0438  0.0620
  152loPI   C5A 2427   2.587   2.833   8.135 -0.1918 -0.2678 -0.0778
  152loPI   C6A 2428   2.955   2.904   8.029 -0.0231  0.0915  0.0946
  152loPI   C1B 2429   2.752   2.661   9.826 -0.1089  0.1328 -0.1736
  152loPI   C2B 2430   2.773   2.762   9.431 -0.1591  0.0464 -0.0663
  152loPI   C3B 2431   2.863   2.823   9.090  0.1073  0.2493  0.2035
  152loPI   C4B 2432   2.665   2.660   8.776 -0.0638  0.4875 -0.1432
  153loPI    C1 2433   6.247  11.489  11.221 -0.0517 -0.0876  0.1689
  153loPI    C2 2434   6.392  11.319  10.890  0.1120  0.2204  0.0785
  153loPI    C3 2435   6.070  11.164  11.069  0.1219 -0.0472 -0.1274
  153loPI   PO4 2436   6.344  11.785  11.114 -0.1694  0.2981 -0.0293
  153loPI   GL1 2437   6.630  11.745  10.739 -0.0506 -0.0493 -0.1730
  153loPI   GL2 2438   6.926  11.765  10.819 -0.1753 -0.0622 -0.0302
  153loPI   C1A 2439   6.411  11.685  10.322 -0.1898 -0.0430 -0.0861
  153loPI   C2A 2440   6.416  11.726   9.918 -0.0339 -0.0077  0.1184
  153loPI   C3A 2441   6.456  11.803   9.361 -0.1179  0.0570 -0.0960
  153loPI   C4A 2442   6.367  11.792   8.934  0.2012 -0.0797 -0.0552
  153loPI   C5A 2443   6.355  12.132   8.547 -0.2430 -0.3242  0.3189
  153loPI   C6A 2444   6.563  12.595   8.615  0.1864  0.0009 -0.0427
  153loPI   C1B 2445   6.944  11.563  10.366  0.4234 -0.2483  0.0828
  153loPI   C2B 2446   6.934  11.598   9.920 -0.0654  0.1541 -0.3391
  153loPI   C3B 2447   6.946  11.647   9.427  0.0437 -0.1561 -0.0253
  153loPI   C4B 2448   6.871  11.712   8.931  0.0595  0.0159 -0.0812
  154loPI    C1 2449  13.698  13.691  10.921 -0.1240 -0.2325 -0.1576
  154loPI    C2 2450  13.859  13.553  11.260  0.1349 -0.0216 -0.1912
  154loPI    C3 2451  13.462  13.545  11.209  0.0589  0.3013  0.2812
  154loPI   PO4 2452  13.832  13.494  10.745  0.1219 -0.0714  0.2686
  154loPI   GL1 2453  13.730  13.571  10.302  0.0371 -0.1106 -0.1698
  154loPI   GL2 2454  13.452  13.624  10.189 -0.0335 -0.1778 -0.0116
  154loPI   C1A 2455  13.943  13.643   9.935  0.3498 -0.1312  0.1018
  154loPI   C2A 2456  13.917  13.757   9.540 -0.2852 -0.3666  0.1714
  154loPI   C3A 2457  13.822  13.924   9.206  0.3878 -0.1184  0.0374
  154loPI   C4A 2458  13.596  13.654   8.830 -0.0149 -0.1591  0.0407
  154loPI   C5A 2459  13.365  13.414   8.540  0.3819 -0.4931 -0.1040
  154loPI   C6A 2460  13.351  12.972   8.354  0.2660  0.0806  0.0452
  154loPI   C1B 2461  13.361  13.534   9.800 -0.2009  0.1462 -0.0371
  154loPI   C2B 2462  13.483  13.520   9.363 -0.4292 -0.0287  0.2167
  154loPI   C3B 2463  13.947  13.425   9.087  0.0334  0.0938 -0.0421
  154loPI   C4B 2464  14.045  13.415   8.695  0.0989 -0.0168  0.0515
  155loPI    C1 2465   7.491   1.865  11.277 -0.1462 -0.0227  0.0420
  155loPI    C2 2466   7.828   1.953  11.476 -0.1273 -0.6559  0.3131
  155loPI    C3 2467   7.551   2.235  11.416  0.5725 -0.0374 -0.1861
  155loPI   PO4 2468   7.568   1.704  11.036  0.0582 -0.1044 -0.0420
  155loPI   GL1 2469   7.515   1.587  10.682  0.0786 -0.3334  0.2471
  155loPI   GL2 2470   7.861   1.472  10.654  0.1441 -0.3809  0.1545
  155loPI   C1A 2471   7.508   1.465  10.245  0.1502 -0.0710 -0.0258
  155loPI   C2A 2472   7.356   1.417   9.881  0.4247 -0.0894 -0.0009
  155loPI   C3A 2473   7.463   1.350   9.416  0.1541  0.0901 -0.1213
  155loPI   C4A 2474   7.469   1.249   8.884 -0.0045  0.0278 -0.4575
  155loPI   C5A 2475   7.304   1.512   8.572 -0.0655  0.0074 -0.0651
  155loPI   C6A 2476   7.289   1.804   8.342 -0.0802 -0.0523 -0.0734
  155loPI   C1B 2477   8.032   1.462  10.140 -0.0449 -0.0016  0.0108
  155loPI   C2B 2478   8.238   1.281   9.721 -0.0740 -0.1467 -0.0430
  155loPI   C3B 2479   8.292   1.055   9.333 -0.1045 -0.0974 -0.1709
  155loPI   C4B 2480   8.565   0.955   8.982  0.1310 -0.0395  0.0302
  156loPI    C1 2481   4.768   2.227  10.765  0.2514 -0.0144  0.0090
  156loPI    C2 2482   5.077   1.979  10.715  0.1404 -0.1559  0.0166
  156loPI    C3 2483   4.810   1.909  11.004  0.2197  0.0873  0.1511
  156loPI   PO4 2484   4.665   2.288  10.423  0.0406 -0.0045 -0.0360
  156loPI   GL1 2485   4.491   2.098  10.109  0.2495 -0.2699  0.1031
  156loPI   GL2 2486   4.587   1.841   9.963  0.1750 -0.1358  0.0054
  156loPI   C1A 2487   4.464   2.329   9.687  0.3096 -0.0859 -0.1969
  156loPI   C2A 2488   4.553   2.421   9.310 -0.0178  0.2345  0.2796
  156loPI   C3A 2489   4.692   2.309   8.961  0.0734  0.3902 -0.0974
  156loPI   C4A 2490   4.303   2.227   8.730 -0.0786  0.0117  0.0283
  156loPI   C5A 2491   4.050   2.634   8.475 -0.1399 -0.1234  0.2164
  156loPI   C6A 2492   3.908   2.831   8.186  0.0924 -0.1753 -0.1326
  156loPI   C1B 2493   4.577   1.834   9.563 -0.3355  0.3503  0.1399
  156loPI   C2B 2494   4.711   1.843   9.133  0.0070 -0.2235  0.0111
  156loPI   C3B 2495   4.643   1.815   8.777  0.2001 -0.3729  0.1173
  156loPI   C4B 2496   4.876   1.679   8.424  0.0108 -0.0850  0.1031
  157loPI    C1 2497   9.493   9.441  10.853 -0.1846 -0.0581 -0.0490
  157loPI    C2 2498   9.671   9.752  11.030 -0.1897  0.0091 -0.1607
  157loPI    C3 2499   9.723   9.382  11.174 -0.1125  0.0511 -0.0800
  157loPI   PO4 2500   9.480   9.556  10.607  0.0377  0.0787 -0.3098
  157loPI   GL1 2501   9.557   9.818  10.268  0.0238  0.1699 -0.1173
  157loPI   GL2 2502   9.791   9.435  10.197  0.2148 -0.2006  0.2211
  157loPI   C1A 2503   9.831  10.070   9.965 -0.1141  0.1841 -0.2466
  157loPI   C2A 2504   9.850  10.167   9.568 -0.0062  0.0410  0.0227
  157loPI   C3A 2505   9.764  10.190   9.187  0.4753 -0.0442 -0.0428
  157loPI   C4A 2506   9.574  10.203   8.707  0.1070  0.0952  0.0614
  157loPI   C5A 2507   9.373  10.404   8.328  0.2098 -0.1852 -0.0774
  157loPI   C6A 2508   9.310  10.633   7.955 -0.2427 -0.0421 -0.2139
  157loPI   C1B 2509   9.956   9.330   9.830  0.0781 -0.1908 -0.0766
  157loPI   C2B 2510   9.990   9.377   9.420  0.2223  0.1151  0.0488
  157loPI   C3B 2511  10.052   9.249   8.994 -0.1321 -0.4667 -0.2750
  157loPI   C4B 2512  10.269   9.246   8.743  0.1102  0.1545  0.3900
  158loPI    C1 2513  10.018  15.928  11.430  0.2608  0.1535  0.1037
  158loPI    C2 2514   9.882  15.994  11.800  0.0788  0.2025  0.0292
  158loPI    C3 2515  10.262  16.077  11.710  0.2043 -0.0793  0.2803
  158loPI   PO4 2516   9.918  15.979  11.290 -0.0202 -0.1378 -0.0092
  158loPI   GL1 2517  10.089  16.087  10.830 -0.1889  0.1371 -0.1467
  158loPI   GL2 2518  10.135  16.349  10.732  0.0164  0.1519 -0.0356
  158loPI   C1A 2519   9.782  16.111  10.434  0.0840 -0.0780 -0.0802
  158loPI   C2A 2520   9.872  16.232  10.035 -0.0071 -0.1657  0.1555
  158loPI   C3A 2521   9.833  16.200   9.579  0.1043 -0.0792 -0.2417
  158loPI   C4A 2522   9.679  16.231   9.149  0.0154  0.0536 -0.0515
  158loPI   C5A 2523   9.896  16.257   8.811 -0.0401  0.0756  0.0785
  158loPI   C6A 2524  10.161  15.951   8.624  0.0029  0.2162 -0.0521
  158loPI   C1B 2525  10.096  16.539  10.352 -0.0046 -0.0730  0.0354
  158loPI   C2B 2526  10.105  16.648   9.867 -0.0817  0.2136  0.1287
  158loPI   C3B 2527  10.082  16.629   9.358 -0.0922  0.1581  0.1614
  158loPI   C4B 2528  10.119  16.724   8.932 -0.0942 -0.1969 -0.0429
  159loPI    C1 2529  15.705   7.433  10.356 -0.1068 -0.1521  0.1574
  159loPI    C2 2530  15.751   7.340  10.742 -0.0357 -0.1914  0.1397
  159loPI    C3 2531  15.759   7.723  10.627 -0.1197 -0.1757  0.1852
  159loPI   PO4 2532  15.544   7.164  10.269  0.2135 -0.2294 -0.3007
  159loPI   GL1 2533  15.460   6.732  10.088  0.1810  0.0596 -0.1290
  159loPI   GL2 2534  15.725   6.769   9.898 -0.0074 -0.0728  0.0419
  159loPI   C1A 2535  15.037   6.612   9.852  0.0130  0.2045  0.0389
  159loPI   C2A 2536  15.021   6.315   9.592 -0.1905 -0.0828 -0.1845
  159loPI   C3A 2537  14.972   6.329   9.254 -0.2135 -0.4043  0.0598
  159loPI   C4A 2538  15.038   6.445   8.823 -0.1495 -0.0688 -0.2948
  159loPI   C5A 2539  15.003   6.530   8.388  0.0776 -0.2760 -0.0350
  159loPI   C6A 2540  14.986   6.743   7.939  0.1080  0.0888 -0.3031
  159loPI   C1B 2541  15.867   6.756   9.540 -0.2627  0.1341 -0.0947
  159loPI   C2B 2542  15.916   6.791   9.101  0.0622  0.2574 -0.0009
  159loPI   C3B 2543  16.059   6.746   8.657  0.2733  0.0245  0.0204
  159loPI   C4B 2544  15.981   6.535   8.311 -0.0187  0.3753  0.1379
  160loPI    C1 2545  17.202   0.361  10.820  0.0448 -0.0331 -0.3446
  160loPI    C2 2546  16.835   0.384  10.662 -0.0280  0.0387 -0.1672
  160loPI    C3 2547  16.931   0.077  10.900 -0.0517  0.1469 -0.0169
  160loPI   PO4 2548  17.328   0.593  10.654  0.1096 -0.0095 -0.0881
  160loPI   GL1 2549  17.220   0.591  10.216 -0.0257  0.2135 -0.1304
  160loPI   GL2 2550  16.872   0.500  10.180  0.2099 -0.0942 -0.1698
  160loPI   C1A 2551  17.216   0.645   9.805 -0.0217 -0.1073  0.1226
  160loPI   C2A 2552  17.222   0.681   9.480  0.0920  0.1847  0.1083
  160loPI   C3A 2553  17.183   0.718   9.010  0.0052  0.5024 -0.0634
  160loPI   C4A 2554  17.127   0.782   8.538 -0.0330  0.0247  0.1116
  160loPI   C5A 2555  17.418   0.717   8.248  0.0916 -0.1245  0.0007
  160loPI   C6A 2556  17.499   0.621   7.831  0.4951 -0.1706 -0.2637
  160loPI   C1B 2557  16.826   0.319   9.760  0.0802 -0.0960 -0.0523
  160loPI   C2B 2558  16.889   0.311   9.240 -0.1159  0.0821  0.2060
  160loPI   C3B 2559  16.892   0.177   8.875  0.2069 -0.0088  0.0942
  160loPI   C4B 2560  17.065   0.230   8.513 -0.1647 -0.1481  0.1687
  161loPI    C1 2561   4.532   3.757  10.750  0.3285 -0.0071  0.3242
  161loPI    C2 2562   4.146   3.761  10.853  0.1946 -0.0717 -0.1509
  161loPI    C3 2563   4.395   3.498  11.022 -0.0187 -0.1899 -0.0158
  161loPI   PO4 2564   4.483   3.808  10.485  0.3455 -0.1575 -0.1003
  161loPI   GL1 2565   4.400   3.903  10.090  0.4298 -0.0786 -0.1398
  161loPI   GL2 2566   4.265   4.224   9.999 -0.0285 -0.3116  0.0246
  161loPI   C1A 2567   4.502   3.675   9.719 -0.0981  0.2047  0.1507
  161loPI   C2A 2568   4.586   3.404   9.431  0.3350 -0.0866  0.1758
  161loPI   C3A 2569   4.453   3.416   8.985 -0.1260  0.0144  0.2346
  161loPI   C4A 2570   4.519   3.238   8.589  0.1940  0.0247  0.3465
  161loPI   C5A 2571   4.422   2.909   8.252 -0.0362  0.0243  0.5656
  161loPI   C6A 2572   4.353   2.628   7.937 -0.2478  0.0594  0.0668
  161loPI   C1B 2573   4.258   4.232   9.543  0.3981  0.1107 -0.3189
  161loPI   C2B 2574   4.232   4.229   8.998  0.1849 -0.1157 -0.0109
  161loPI   C3B 2575   4.204   4.234   8.630  0.3015 -0.2908 -0.0425
  161loPI   C4B 2576   4.054   4.257   8.267 -0.0942  0.0620 -0.0158
  162loPI    C1 2577   0.553  16.336  11.072 -0.1992  0.1237  0.1480
  162loPI    C2 2578   0.493  16.557  11.401 -0.3304  0.1540  0.1043
  162loPI    C3 2579   0.856  16.405  11.325 -0.2786  0.2194  0.2180
  162loPI   PO4 2580   0.436  16.462  10.886 -0.1488  0.0757 -0.0393
  162loPI   GL1 2581   0.340  16.382  10.533  0.2898 -0.0235  0.1238
  162loPI   GL2 2582   0.137  16.076  10.438  0.0873 -0.3701  0.3046
  162loPI   C1A 2583   0.276  16.447  10.037 -0.0948 -0.0236  0.1420
  162loPI   C2A 2584   0.175  16.515   9.692  0.0552 -0.0218 -0.2185
  162loPI   C3A 2585   0.076  16.370   9.358  0.0975 -0.2616  0.0103
  162loPI   C4A 2586   0.008  16.169   8.939  0.0123  0.0653  0.0308
  162loPI   C5A 2587  -0.106  16.075   8.480  0.2732  0.0240 -0.1215
  162loPI   C6A 2588  -0.083  16.164   8.119  0.0062 -0.0277 -0.0248
  162loPI   C1B 2589   0.302  15.965  10.007 -0.1415  0.1233 -0.0998
  162loPI   C2B 2590   0.289  15.888   9.559  0.0508 -0.1712 -0.0700
  162loPI   C3B 2591   0.183  15.667   9.192  0.0285  0.1685  0.0381
  162loPI   C4B 2592   0.100  15.718   8.762 -0.2299  0.1795 -0.2029
  163loPI    C1 2593   8.545   3.876  10.601  0.0325  0.1925  0.2493
  163loPI    C2 2594   8.152   3.935  10.555  0.0258  0.1220  0.2153
  163loPI    C3 2595   8.290   3.756  10.885  0.0251  0.1018  0.2045
  163loPI   PO4 2596   8.619   3.850  10.392  0.0251  0.1571 -0.3059
  163loPI   GL1 2597   8.644   3.998  10.013  0.0005  0.0384 -0.3227
  163loPI   GL2 2598   8.954   3.882  10.025  0.2361  0.0349 -0.2330
  163loPI   C1A 2599   8.668   3.761   9.586  0.0707 -0.0629  0.4112
  163loPI   C2A 2600   8.655   3.682   9.145 -0.1265  0.1402 -0.2220
  163loPI   C3A 2601   8.644   3.713   8.749  0.0629  0.2069  0.3449
  163loPI   C4A 2602   8.708   3.646   8.298 -0.3817 -0.0013  0.1487
  163loPI   C5A 2603   8.840   4.010   8.094 -0.0697  0.3168  0.2800
  163loPI   C6A 2604   8.939   4.436   8.172 -0.2746  0.1134 -0.2287
  163loPI   C1B 2605   9.212   3.820   9.618  0.0333  0.2841 -0.0930
  163loPI   C2B 2606   9.142   3.649   9.309 -0.0364 -0.0299 -0.0157
  163loPI   C3B 2607   9.149   3.628   8.888  0.0288 -0.3836  0.1361
  163loPI   C4B 2608   9.210   3.793   8.450  0.2325  0.1219 -0.0304
  164loPI    C1 2609   0.083   0.830  10.654 -0.1025  0.0622  0.2055
  164loPI    C2 2610   0.278   0.833  11.003  0.2863  0.1036 -0.0063
  164loPI    C3 2611   0.031   0.531  10.915  0.2502  0.0503  0.2675
  164loPI   PO4 2612   0.202   1.022  10.541 -0.2971  0.1851  0.0246
  164loPI   GL1 2613   0.322   1.199  10.149 -0.3281  0.0477 -0.2723
  164loPI   GL2 2614   0.331   0.824   9.924 -0.4275  0.2663  0.2468
  164loPI   C1A 2615   0.481   1.224   9.652  0.1611 -0.2016 -0.0952
  164loPI   C2A 2616   0.547   1.108   9.300  0.2484 -0.3553 -0.3210
  164loPI   C3A 2617   0.627   0.998   8.915 -0.1432  0.1641  0.0767
  164loPI   C4A 2618   0.648   0.871   8.547 -0.0428  0.1824  0.1205
  164loPI   C5A 2619   0.593   0.818   8.158 -0.1598  0.3962  0.2831
  164loPI   C6A 2620   0.753   0.521   7.835  0.1787  0.1640  0.0261
  164loPI   C1B 2621   0.438   0.735   9.584  0.0291  0.0310  0.1187
  164loPI   C2B 2622   0.349   0.691   9.216 -0.1528  0.1177 -0.0322
  164loPI   C3B 2623   0.239   0.706   8.824 -0.0929  0.3275  0.3503
  164loPI   C4B 2624   0.167   0.764   8.434 -0.2571  0.1646  0.0169
  165loPI    C1 2625   6.336   9.018  10.998  0.2249  0.3559  0.0205
  165loPI    C2 2626   6.539   9.105  11.332 -0.0312  0.1127  0.2455
  165loPI    C3 2627   6.173   8.946  11.357  0.0242 -0.0896 -0.1526
  165loPI   PO4 2628   6.489   8.916  10.915 -0.1009  0.1945  0.0304
  165loPI   GL1 2629   6.511   8.804  10.459 -0.0623 -0.0275  0.0707
  165loPI   GL2 2630   6.649   8.457  10.342  0.1114  0.0285  0.1314
  165loPI   C1A 2631   6.462   9.026  10.101  0.1111  0.1882 -0.0238
  165loPI   C2A 2632   6.594   9.356   9.890 -0.3845 -0.1871  0.1760
  165loPI   C3A 2633   6.742   9.449   9.510 -0.0356  0.1278 -0.0203
  165loPI   C4A 2634   6.712   9.395   9.105  0.0044 -0.1283 -0.0077
  165loPI   C5A 2635   6.831   9.189   8.705 -0.1919  0.0757  0.2606
  165loPI   C6A 2636   6.733   9.204   8.275  0.1568 -0.0539 -0.3526
  165loPI   C1B 2637   6.760   8.306   9.856 -0.2025  0.1797  0.1105
  165loPI   C2B 2638   6.733   8.464   9.461 -0.1122  0.1437 -0.2233
  165loPI   C3B 2639   6.676   8.472   9.150  0.0584 -0.2010  0.0316
  165loPI   C4B 2640   6.918   8.706   8.858  0.1365 -0.1028 -0.0943
  166loPI    C1 2641  16.181  11.148  10.816 -0.0186 -0.4148  0.0610
  166loPI    C2 2642  16.034  11.143  11.188 -0.1724  0.1453  0.0168
  166loPI    C3 2643  16.400  11.288  11.120 -0.1372  0.0269 -0.0490
  166loPI   PO4 2644  15.971  11.214  10.690  0.2763  0.1354  0.2880
  166loPI   GL1 2645  15.974  11.484  10.427 -0.2012 -0.0460  0.3225
  166loPI   GL2 2646  16.230  11.453  10.357 -0.0739 -0.0286  0.0318
  166loPI   C1A 2647  15.732  11.462  10.031 -0.0546  0.3298 -0.1052
  166loPI   C2A 2648  15.830  11.544   9.591 -0.1059  0.1701  0.0531
  166loPI   C3A 2649  15.908  11.569   9.162  0.3225  0.1498 -0.1870
  166loPI   C4A 2650  15.983  11.588   8.749 -0.3093  0.0182  0.1447
  166loPI   C5A 2651  15.864  12.045   8.645 -0.4373  0.0165 -0.0276
  166loPI   C6A 2652  15.790  12.256   8.316  0.0694 -0.2426 -0.2729
  166loPI   C1B 2653  16.183  11.560   9.897 -0.1968 -0.1268 -0.0323
  166loPI   C2B 2654  16.399  11.535   9.480  0.3377 -0.1884  0.0989
  166loPI   C3B 2655  16.393  11.393   9.088  0.0853 -0.2110 -0.0030
  166loPI   C4B 2656  16.420  11.599   8.633 -0.1706 -0.4055  0.0377
  167loPI    C1 2657   6.532   0.582  10.809  0.2418 -0.0287 -0.2225
  167loPI    C2 2658   6.508   0.381  11.154  0.3056 -0.1356 -0.2798
  167loPI    C3 2659   6.613   0.767  11.154  0.0211 -0.0558 -0.1545
  167loPI   PO4 2660   6.346   0.553  10.654  0.1458 -0.3447  0.0666
  167loPI   GL1 2661   6.123   0.236  10.465  0.1729 -0.1602  0.2334
  167loPI   GL2 2662   5.869   0.367  10.307 -0.1823 -0.1048 -0.2430
  167loPI   C1A 2663   6.270   0.251  10.044 -0.1818 -0.1825 -0.4684
  167loPI   C2A 2664   6.233   0.140   9.641  0.0525  0.0670  0.0208
  167loPI   C3A 2665   6.287   0.063   9.314 -0.0369  0.1156 -0.2389
  167loPI   C4A 2666   6.333   0.008   8.824  0.1697  0.0720 -0.3204
  167loPI   C5A 2667   6.620  -0.093   8.422 -0.2492 -0.1461  0.1790
  167loPI   C6A 2668   7.025  -0.028   8.357  0.0652  0.0534 -0.0938
  167loPI   C1B 2669   5.823   0.331   9.921 -0.1456 -0.0268  0.0343
  167loPI   C2B 2670   5.822   0.335   9.355 -0.3072  0.0626  0.0129
  167loPI   C3B 2671   5.974   0.368   8.913 -0.0952 -0.1800  0.1479
  167loPI   C4B 2672   6.048   0.677   8.673 -0.2321 -0.3144 -0.1584
  168loPI    C1 2673   8.732  12.301  10.920 -0.1514 -0.0100  0.0429
  168loPI    C2 2674   8.517  12.576  11.117 -0.0692  0.0545  0.0426
  168loPI    C3 2675   8.705  12.286  11.319  0.1904  0.2447  0.0799
  168loPI   PO4 2676   8.859  12.458  10.671  0.0086 -0.0796 -0.1296
  168loPI   GL1 2677   8.939  12.664  10.334 -0.2089 -0.0866 -0.1782
  168loPI   GL2 2678   9.131  12.522  10.216  0.2853 -0.3145 -0.1549
  168loPI   C1A 2679   8.780  12.847  10.005  0.1640 -0.0944  0.2186
  168loPI   C2A 2680   8.722  12.906   9.638  0.3081  0.1709  0.0032
  168loPI   C3A 2681   8.750  13.144   9.281  0.1952  0.0102  0.2865
  168loPI   C4A 2682   8.814  13.207   8.764 -0.1819 -0.0629 -0.0715
  168loPI   C5A 2683   9.066  13.114   8.494  0.3246 -0.1340 -0.2709
  168loPI   C6A 2684   9.446  13.038   8.384  0.0390  0.0841 -0.0229
  168loPI   C1B 2685   9.122  12.591   9.777 -0.3105  0.1507 -0.1043
  168loPI   C2B 2686   9.081  12.615   9.311  0.0429  0.2289  0.1646
  168loPI   C3B 2687   8.962  12.810   9.004  0.1324 -0.2520  0.1811
  168loPI   C4B 2688   8.815  12.689   8.615  0.1351 -0.3675  0.0461
  169loPI    C1 2689   0.475  15.795  10.974 -0.0955 -0.2157 -0.0228
  169loPI    C2 2690   0.746  15.924  11.238  0.0669 -0.1917 -0.1987
  169loPI    C3 2691   0.356  15.940  11.327  0.1208 -0.2088  0.0485
  169loPI   PO4 2692   0.522  15.868  10.800 -0.1177 -0.0663 -0.0396
  169loPI   GL1 2693   0.587  15.840  10.430  0.0282  0.1933  0.1138
  169loPI   GL2 2694   0.798  16.076  10.320 -0.1056 -0.0446  0.1566
  169loPI   C1A 2695   0.798  15.574  10.209  0.2162  0.0712 -0.1405
  169loPI   C2A 2696   0.634  15.539   9.776 -0.0191  0.1204 -0.3373
  169loPI   C3A 2697   0.733  15.698   9.380  0.2543 -0.0235 -0.0172
  169loPI   C4A 2698   0.739  15.976   9.155  0.1127  0.1596  0.2400
  169loPI   C5A 2699   0.527  16.055   8.840  0.0346  0.2499  0.1680
  169loPI   C6A 2700   0.352  16.263   8.542 -0.0903  0.1554 -0.0105
  169loPI   C1B 2701   0.757  16.019   9.938  0.3422 -0.2897  0.3378
  169loPI   C2B 2702   0.608  16.302   9.595 -0.2561  0.1424 -0.1197
  169loPI   C3B 2703   0.576  16.485   9.198 -0.4537 -0.4148  0.2578
  169loPI   C4B 2704   0.708  16.572   8.760  0.0317 -0.0064 -0.0847
  170loPI    C1 2705  10.552   5.051  10.522 -0.0839 -0.0728 -0.1365
  170loPI    C2 2706  10.430   5.022  10.901 -0.0622  0.0173 -0.1224
  170loPI    C3 2707  10.675   5.319  10.792 -0.1070  0.0199 -0.2171
  170loPI   PO4 2708  10.262   5.036  10.404  0.0867 -0.3972  0.0085
  170loPI   GL1 2709  10.054   4.958   9.903 -0.2718  0.1460  0.0899
  170loPI   GL2 2710   9.947   4.787   9.714 -0.0983 -0.1179  0.3252
  170loPI   C1A 2711  10.188   5.173   9.502  0.0526  0.1169  0.2653
  170loPI   C2A 2712  10.079   5.115   9.042  0.0640  0.0269  0.0752
  170loPI   C3A 2713  10.135   4.978   8.537 -0.2527 -0.0711 -0.0871
  170loPI   C4A 2714  10.093   4.991   8.129 -0.0105 -0.0771  0.3129
  170loPI   C5A 2715  10.081   4.961   7.656  0.0104 -0.1828 -0.0437
  170loPI   C6A 2716   9.806   4.703   7.553  0.1276  0.1344  0.1655
  170loPI   C1B 2717   9.840   4.773   9.304  0.0099 -0.1706  0.1109
  170loPI   C2B 2718   9.782   4.630   8.905  0.2919  0.2407  0.0564
  170loPI   C3B 2719   9.733   4.529   8.499 -0.1783 -0.1154 -0.2877
  170loPI   C4B 2720   9.711   4.653   8.071 -0.0050  0.3392  0.3279
  171loPI    C1 2721   0.129   5.573  10.309 -0.3628 -0.4138 -0.0393
  171loPI    C2 2722   0.001   5.746  10.646  0.0962  0.0702 -0.1011
  171loPI    C3 2723   0.182   5.390  10.660 -0.3369 -0.1501  0.0961
  171loPI   PO4 2724  -0.102   5.628  10.099  0.0587  0.0573  0.2422
  171loPI   GL1 2725  -0.134   5.778   9.655  0.0257 -0.1881 -0.0625
  171loPI   GL2 2726   0.120   6.044   9.597 -0.0452 -0.0093  0.3079
  171loPI   C1A 2727  -0.038   5.790   9.224  0.0697 -0.1240  0.1877
  171loPI   C2A 2728  -0.010   5.881   8.836  0.2221  0.0365  0.0276
  171loPI   C3A 2729   0.085   6.076   8.408 -0.3515 -0.1157  0.1795
  171loPI   C4A 2730  -0.015   6.144   7.987 -0.1850  0.1429  0.1507
  171loPI   C5A 2731   0.152   6.093   7.621 -0.3017  0.3398  0.0671
  171loPI   C6A 2732   0.026   6.058   7.235  0.3645  0.0946 -0.2439
  171loPI   C1B 2733   0.190   6.210   9.287  0.1378 -0.0009  0.0261
  171loPI   C2B 2734   0.275   6.334   8.880 -0.1414 -0.2917 -0.0052
  171loPI   C3B 2735   0.242   6.560   8.576  0.0844 -0.2691 -0.2904
  171loPI   C4B 2736  -0.078   6.624   8.318  0.1750 -0.1529  0.1314
  172loPI    C1 2737   0.536   6.274  10.420 -0.1225  0.0618 -0.1437
  172loPI    C2 2738   0.281   6.053  10.205 -0.0412 -0.1272 -0.0482
  172loPI    C3 2739   0.505   5.881  10.488 -0.0868  0.1047  0.1316
  172loPI   PO4 2740   0.587   6.438  10.165  0.1457  0.2009  0.0283
  172loPI   GL1 2741   0.522   6.657   9.840  0.2608 -0.1787  0.1254
  172loPI   GL2 2742   0.740   6.943   9.769  0.1975 -0.0218  0.2786
  172loPI   C1A 2743   0.514   6.624   9.330  0.1723 -0.0275  0.1936
  172loPI   C2A 2744   0.491   6.788   9.000  0.0696 -0.1311  0.0914
  172loPI   C3A 2745   0.649   6.881   8.583  0.0903 -0.1107 -0.0445
  172loPI   C4A 2746   0.550   6.810   8.204  0.2448  0.1846  0.1026
  172loPI   C5A 2747   0.297   6.565   8.057  0.0563  0.2649  0.0030
  172loPI   C6A 2748   0.065   6.560   7.705 -0.3191  0.0452 -0.2413
  172loPI   C1B 2749   0.858   7.067   9.366  0.0258  0.0522  0.0644
  172loPI   C2B 2750   1.050   7.174   8.865  0.2000 -0.0329 -0.2011
  172loPI   C3B 2751   1.057   7.114   8.383  0.2479  0.0268  0.0193
  172loPI   C4B 2752   1.285   7.135   8.058 -0.2332 -0.0677 -0.0165
  173loPI    C1 2753  15.083  13.312  11.276  0.1331 -0.1247  0.0357
  173loPI    C2 2754  15.039  12.950  11.439 -0.2403 -0.0830  0.0372
  173loPI    C3 2755  14.866  13.267  11.609 -0.0699  0.0682 -0.0680
  173loPI   PO4 2756  15.200  13.240  11.071  0.0679  0.0479  0.0141
  173loPI   GL1 2757  15.095  13.152  10.693  0.2576 -0.0784 -0.0055
  173loPI   GL2 2758  14.916  12.978  10.473 -0.1399  0.0233 -0.3128
  173loPI   C1A 2759  15.219  13.491  10.352 -0.1644 -0.0708  0.3250
  173loPI   C2A 2760  15.436  13.518   9.989 -0.2303  0.1481  0.3561
  173loPI   C3A 2761  15.442  13.520   9.602 -0.0450  0.2217 -0.0253
  173loPI   C4A 2762  15.342  13.637   9.198 -0.3864  0.1406 -0.6055
  173loPI   C5A 2763  15.301  13.812   8.767 -0.0829 -0.3741 -0.1020
  173loPI   C6A 2764  15.330  13.880   8.331  0.0645 -0.1213 -0.2250
  173loPI   C1B 2765  15.192  13.010  10.071  0.1724  0.0852 -0.2245
  173loPI   C2B 2766  15.361  13.005   9.667  0.0149  0.0024  0.1140
  173loPI   C3B 2767  15.401  13.063   9.251 -0.1270 -0.0010  0.0274
  173loPI   C4B 2768  15.567  13.139   8.871 -0.2208 -0.1887  0.1363
  174loPI    C1 2769  16.252   9.355  10.515  0.1775 -0.1615 -0.1150
  174loPI    C2 2770  16.566   9.449  10.744  0.0370  0.0093  0.0104
  174loPI    C3 2771  16.196   9.459  10.897 -0.0363 -0.1219 -0.1552
  174loPI   PO4 2772  16.429   9.198  10.276 -0.1681 -0.0906 -0.0410
  174loPI   GL1 2773  16.253   9.271   9.856 -0.1956  0.0952 -0.0005
  174loPI   GL2 2774  16.527   9.491   9.864 -0.1653  0.1429  0.0496
  174loPI   C1A 2775  16.177   9.131   9.446  0.0126  0.3068  0.0500
  174loPI   C2A 2776  16.124   9.222   9.038 -0.2984  0.0692  0.3550
  174loPI   C3A 2777  16.265   9.172   8.527  0.1738  0.0065  0.2592
  174loPI   C4A 2778  16.389   9.371   8.135  0.2684  0.3054 -0.1039
  174loPI   C5A 2779  16.363   9.837   7.946  0.1362  0.0550 -0.2150
  174loPI   C6A 2780  16.269  10.256   7.728  0.2749 -0.2230 -0.1714
  174loPI   C1B 2781  16.470   9.552   9.464 -0.0948  0.0442  0.1365
  174loPI   C2B 2782  16.517   9.576   9.003 -0.2336 -0.0091 -0.1982
  174loPI   C3B 2783  16.632   9.567   8.624  0.1440 -0.1933  0.0472
  174loPI   C4B 2784  16.766   9.674   8.257  0.0186 -0.1269 -0.1132
  175loPI    C1 2785  15.404  14.786  11.222 -0.1145 -0.0670 -0.0410
  175loPI    C2 2786  15.326  14.835  11.612  0.0571  0.0378 -0.0183
  175loPI    C3 2787  15.050  14.673  11.371 -0.0721  0.0270  0.1348
  175loPI   PO4 2788  15.533  14.963  11.140  0.1853 -0.1524  0.1662
  175loPI   GL1 2789  15.709  14.922  10.810  0.1556 -0.0313 -0.0501
  175loPI   GL2 2790  15.999  14.831  10.617  0.1847 -0.0381 -0.0920
  175loPI   C1A 2791  15.584  15.113  10.467 -0.0224  0.0892  0.1271
  175loPI   C2A 2792  15.715  15.464  10.208  0.0445  0.0491 -0.1464
  175loPI   C3A 2793  15.800  15.431   9.754  0.2567  0.1263 -0.0346
  175loPI   C4A 2794  15.681  15.459   9.364  0.1289 -0.0058  0.1630
  175loPI   C5A 2795  15.693  15.522   8.864 -0.0688 -0.2469 -0.0694
  175loPI   C6A 2796  15.999  15.247   8.680  0.0151 -0.0283  0.0527
  175loPI   C1B 2797  15.950  14.791  10.244  0.0760 -0.2650 -0.2253
  175loPI   C2B 2798  15.819  14.938   9.920 -0.3669 -0.1377  0.4340
  175loPI   C3B 2799  15.796  15.012   9.466  0.1834  0.1174  0.0642
  175loPI   C4B 2800  15.791  14.940   9.012 -0.0476 -0.1437  0.2865
  176loPI    C1 2801  11.547   4.989  10.289 -0.1890 -0.2010  0.0366
  176loPI    C2 2802  11.611   4.682  10.538 -0.3509 -0.0458  0.2734
  176loPI    C3 2803  11.818   5.022  10.582 -0.0855 -0.1587 -0.0632
  176loPI   PO4 2804  11.446   4.946  10.124  0.1177 -0.1833  0.0987
  176loPI   GL1 2805  11.383   4.853   9.755  0.1244  0.0706  0.0082
  176loPI   GL2 2806  11.627   4.560   9.781 -0.1304 -0.0720 -0.0488
  176loPI   C1A 2807  11.374   4.936   9.356 -0.2134  0.1643 -0.1316
  176loPI   C2A 2808  11.335   4.867   8.876 -0.0535  0.1620 -0.1224
  176loPI   C3A 2809  11.496   4.846   8.532 -0.1118 -0.1702 -0.0964
  176loPI   C4A 2810  11.561   4.961   8.131  0.1991 -0.0959 -0.0742
  176loPI   C5A 2811  11.353   5.347   7.988  0.1117 -0.4687  0.0344
  176loPI   C6A 2812  11.134   5.798   7.951 -0.1303  0.2619 -0.4990
  176loPI   C1B 2813  11.850   4.554   9.538  0.1164 -0.2380 -0.0414
  176loPI   C2B 2814  11.887   4.604   9.125 -0.0614  0.2122  0.0037
  176loPI   C3B 2815  11.782   4.487   8.710 -0.3822  0.1123 -0.0819
  176loPI   C4B 2816  11.790   4.467   8.283 -0.0469 -0.4173  0.0427
  177loPI    C1 2817  11.326   2.291  10.531 -0.1428 -0.0314  0.0982
  177loPI    C2 2818  11.711   2.353  10.622 -0.1243  0.2598 -0.1622
  177loPI    C3 2819  11.472   2.164  10.881  0.1874  0.0950  0.0105
  177loPI   PO4 2820  11.267   2.514  10.364 -0.2694 -0.1991  0.0954
  177loPI   GL1 2821  11.063   2.516  10.120 -0.1135 -0.2437  0.0306
  177loPI   GL2 2822  10.807   2.678  10.002  0.1177  0.0020  0.0298
  177loPI   C1A 2823  10.934   2.135   9.865 -0.0923 -0.2402  0.0737
  177loPI   C2A 2824  10.930   1.885   9.507 -0.3158  0.0089  0.1920
  177loPI   C3A 2825  10.953   1.809   9.060 -0.0584  0.1433 -0.0022
  177loPI   C4A 2826  11.038   1.870   8.577 -0.2265  0.1932  0.0358
  177loPI   C5A 2827  11.439   2.005   8.366 -0.1993  0.1805  0.1134
  177loPI   C6A 2828  11.653   1.798   8.047 -0.0945 -0.4127  0.0611
  177loPI   C1B 2829  10.734   2.831   9.601  0.0916  0.0835 -0.0459
  177loPI   C2B 2830  10.779   2.614   9.187  0.1271 -0.1485 -0.0492
  177loPI   C3B 2831  10.752   2.344   8.890 -0.0077  0.1668 -0.0598
  177loPI   C4B 2832  10.630   2.285   8.469  0.2026  0.0129  0.1509
  178loPI    C1 2833   6.372  16.692  11.389 -0.0715 -0.0901 -0.0260
  178loPI    C2 2834   6.581  16.921  11.642 -0.1267  0.0341 -0.0916
  178loPI    C3 2835   6.323  16.650  11.784 -0.0766  0.0269 -0.0137
  178loPI   PO4 2836   6.234  16.921  11.189  0.1405  0.0652  0.0648
  178loPI   GL1 2837   6.172  16.820  10.713 -0.1132  0.1394 -0.1965
  178loPI   GL2 2838   6.471  16.676  10.836 -0.0901 -0.0323 -0.0803
  178loPI   C1A 2839   6.218  16.699  10.293 -0.0192  0.0465  0.2067
  178loPI   C2A 2840   6.171  16.616   9.972 -0.0613  0.0603 -0.1948
  178loPI   C3A 2841   6.276  16.492   9.617 -0.1824  0.2013 -0.1665
  178loPI   C4A 2842   6.206  16.483   9.144  0.1661 -0.1999 -0.2001
  178loPI   C5A 2843   6.295  16.198   8.909  0.1545 -0.2067 -0.2657
  178loPI   C6A 2844   6.424  15.904   8.580  0.2420  0.1229  0.0320
  178loPI   C1B 2845   6.481  16.400  10.531 -0.1439  0.0278 -0.1603
  178loPI   C2B 2846   6.474  16.223  10.117  0.1696 -0.0580  0.0317
  178loPI   C3B 2847   6.451  16.071   9.695  0.3032  0.1173 -0.0093
  178loPI   C4B 2848   6.372  16.041   9.377  0.0877  0.3222  0.0028
  179loPI    C1 2849  15.522   2.068  10.472  0.0529  0.1647 -0.1328
  179loPI    C2 2850  15.366   1.863  10.778 -0.0462  0.1382 -0.2008
  179loPI    C3 2851  15.367   2.263  10.785 -0.0572  0.1378 -0.1704
  179loPI   PO4 2852  15.672   1.966  10.409  0.0541  0.2851  0.1783
  179loPI   GL1 2853  15.961   2.085  10.069 -0.3704  0.0058  0.1115
  179loPI   GL2 2854  16.176   2.425   9.951 -0.2500 -0.0766  0.0520
  179loPI   C1A 2855  15.777   1.872   9.587  0.2255 -0.3784  0.0846
  179loPI   C2A 2856  15.783   1.915   9.126 -0.3548  0.1269 -0.1869
  179loPI   C3A 2857  15.729   1.835   8.690 -0.1298  0.0471 -0.0604
  179loPI   C4A 2858  15.687   1.720   8.236 -0.3038 -0.2053  0.3648
  179loPI   C5A 2859  15.795   1.563   7.800 -0.1477 -0.2080 -0.1817
  179loPI   C6A 2860  15.911   1.485   7.437 -0.0352 -0.0749 -0.0538
  179loPI   C1B 2861  16.195   2.268   9.594  0.1209  0.1663  0.3392
  179loPI   C2B 2862  16.191   2.340   9.186  0.1036  0.0204  0.1437
  179loPI   C3B 2863  16.116   2.177   8.811  0.0460  0.1237 -0.0787
  179loPI   C4B 2864  15.987   2.186   8.383  0.3023 -0.0712  0.1860
  180loPI    C1 2865   9.410  11.230  11.087 -0.0031  0.0400  0.0273
  180loPI    C2 2866   9.119  11.038  11.284 -0.0573 -0.0305 -0.1195
  180loPI    C3 2867   9.482  11.073  11.448 -0.0414 -0.2760 -0.0987
  180loPI   PO4 2868   9.375  11.108  10.803  0.2253  0.0312 -0.0778
  180loPI   GL1 2869   9.602  11.028  10.476  0.3166  0.3119  0.1807
  180loPI   GL2 2870   9.442  11.365  10.340 -0.0824 -0.2759 -0.1815
  180loPI   C1A 2871   9.452  10.928  10.107  0.0052  0.2195  0.0316
  180loPI   C2A 2872   9.430  11.001   9.641 -0.3555 -0.1065 -0.1648
  180loPI   C3A 2873   9.525  11.174   9.207 -0.0624  0.0350  0.2632
  180loPI   C4A 2874   9.505  11.124   8.810  0.2897 -0.0583 -0.0253
  180loPI   C5A 2875   9.609  10.858   8.405 -0.0726 -0.0687  0.4088
  180loPI   C6A 2876   9.847  10.597   8.226 -0.1811  0.0023 -0.0939
  180loPI   C1B 2877   9.065  11.242   9.980 -0.0498 -0.0185 -0.0582
  180loPI   C2B 2878   9.073  11.239   9.469  0.1298  0.3528  0.0348
  180loPI   C3B 2879   9.008  11.332   9.094 -0.0212 -0.2053 -0.2375
  180loPI   C4B 2880   8.926  11.217   8.692 -0.3378  0.0001  0.0263
  181loPI    C1 2881  16.593   5.376  10.460 -0.0993 -0.1936  0.1651
  181loPI    C2 2882  16.915   5.160  10.556  0.0408 -0.1199 -0.1285
  181loPI    C3 2883  16.874   5.530  10.700 -0.0422 -0.2230  0.1175
  181loPI   PO4 2884  16.512   5.296  10.238 -0.1308 -0.0601  0.1432
  181loPI   GL1 2885  16.668   5.361   9.858 -0.1431 -0.0471  0.0656
  181loPI   GL2 2886  16.781   5.170   9.634  0.1979 -0.1027 -0.0239
  181loPI   C1A 2887  16.692   5.578   9.370  0.1560  0.1470 -0.3236
  181loPI   C2A 2888  16.709   5.564   8.941  0.3072 -0.2043 -0.0265
  181loPI   C3A 2889  16.822   5.788   8.589 -0.0529 -0.1439  0.1178
  181loPI   C4A 2890  16.670   5.968   8.198 -0.0092  0.1229 -0.1125
  181loPI   C5A 2891  16.371   6.166   7.958  0.1841 -0.1127  0.5170
  181loPI   C6A 2892  16.298   6.576   7.893 -0.0388  0.3617  0.3444
  181loPI   C1B 2893  16.608   4.958   9.380  0.1217  0.0706  0.1780
  181loPI   C2B 2894  16.524   4.945   9.007  0.0250 -0.0859  0.0710
  181loPI   C3B 2895  16.695   4.997   8.518 -0.3785  0.0217 -0.1047
  181loPI   C4B 2896  16.455   5.125   8.150 -0.1391  0.1188 -0.1938
  182loPI    C1 2897  17.602   2.004  10.852 -0.0461  0.0541 -0.1241
  182loPI    C2 2898  17.374   1.675  10.854 -0.0125  0.0310 -0.0199
  182loPI    C3 2899  17.674   1.713  11.117  0.0504  0.0987 -0.1008
  182loPI   PO4 2900  17.719   1.968  10.564  0.2902 -0.2057 -0.2620
  182loPI   GL1 2901  17.793   2.013  10.183  0.1643  0.0597 -0.2062
  182loPI   GL2 2902  17.522   1.913  10.053  0.2365 -0.4482 -0.0943
  182loPI   C1A 2903  18.163   2.189   9.913  0.1726 -0.1870 -0.1777
  182loPI   C2A 2904  18.160   2.132   9.471 -0.0352  0.0811 -0.2306
  182loPI   C3A 2905  18.211   2.182   8.981 -0.1668 -0.1255  0.0011
  182loPI   C4A 2906  18.258   2.244   8.477 -0.3099  0.3847  0.0673
  182loPI   C5A 2907  17.925   2.402   8.208  0.1408 -0.1859 -0.0352
  182loPI   C6A 2908  17.722   2.662   8.031  0.1549  0.0992  0.1321
  182loPI   C1B 2909  17.711   1.950   9.662  0.2260 -0.4927 -0.1330
  182loPI   C2B 2910  17.788   2.020   9.225 -0.0921 -0.1479 -0.0259
  182loPI   C3B 2911  17.743   1.949   8.850  0.1054  0.0151 -0.1168
  182loPI   C4B 2912  18.174   1.772   8.716  0.2236  0.2319 -0.0417
  183loPI    C1 2913  15.317   5.587  10.374  0.0117  0.3835  0.2212
  183loPI    C2 2914  15.310   5.444  10.748  0.0761 -0.2469 -0.0075
  183loPI    C3 2915  14.988   5.405  10.512  0.0904  0.0074 -0.0721
  183loPI   PO4 2916  15.620   5.424  10.302  0.4793  0.4251 -0.0201
  183loPI   GL1 2917  15.693   5.145   9.968  0.1032 -0.2451  0.0807
  183loPI   GL2 2918  15.912   4.986   9.862 -0.0782  0.0465 -0.0515
  183loPI   C1A 2919  15.630   5.218   9.538 -0.2108 -0.0078 -0.0407
  183loPI   C2A 2920  15.610   5.161   9.110  0.0652 -0.0565 -0.3197
  183loPI   C3A 2921  15.605   5.086   8.706 -0.0746  0.1782  0.1161
  183loPI   C4A 2922  15.608   4.870   8.277  0.0695 -0.1059 -0.0000
  183loPI   C5A 2923  15.320   4.689   8.008  0.1017 -0.0373  0.3521
  183loPI   C6A 2924  15.113   4.266   7.978  0.1453 -0.0165  0.0689
  183loPI   C1B 2925  16.010   4.868   9.494  0.0773 -0.0934 -0.1037
  183loPI   C2B 2926  16.046   4.810   9.072  0.0579 -0.3339 -0.0115
  183loPI   C3B 2927  15.905   4.632   8.743  0.1627  0.1498 -0.2514
  183loPI   C4B 2928  16.101   4.425   8.355  0.1284 -0.1497  0.0075
  184loPI    C1 2929   0.684   7.434  10.527 -0.0453  0.0739 -0.0721
  184loPI    C2 2930   0.590   7.407  10.914  0.1277  0.0375 -0.0314
  184loPI    C3 2931   0.783   7.107  10.735  0.1692  0.1117 -0.1118
  184loPI   PO4 2932   0.469   7.559  10.361 -0.0717 -0.1481  0.1023
  184loPI   GL1 2933   0.534   7.795   9.928 -0.0533 -0.2180 -0.0304
  184loPI   GL2 2934   0.168   7.784   9.929 -0.0568  0.2882  0.2293
  184loPI   C1A 2935   0.707   7.967   9.556 -0.0033 -0.0740  0.2434
  184loPI   C2A 2936   0.727   8.031   9.137 -0.1411  0.1235 -0.0184
  184loPI   C3A 2937   0.751   8.161   8.634 -0.0490 -0.2252 -0.3287
  184loPI   C4A 2938   0.717   8.534   8.390  0.0852 -0.1292 -0.0334
  184loPI   C5A 2939   0.805   8.703   7.947  0.0141  0.0426  0.2903
  184loPI   C6A 2940   0.915   8.883   7.517 -0.2060  0.0183 -0.1423
  184loPI   C1B 2941   0.211   7.809   9.556  0.0266  0.2322 -0.0496
  184loPI   C2B 2942   0.270   7.755   9.138  0.0252  0.0471  0.1227
  184loPI   C3B 2943   0.399   7.821   8.686 -0.2675  0.0970 -0.1646
  184loPI   C4B 2944   0.442   8.024   8.272  0.0154  0.2150  0.0695
  185loPI    C1 2945   2.470   5.842  10.508 -0.2179  0.0159 -0.0872
  185loPI    C2 2946   2.551   6.217  10.620  0.1497 -0.0083 -0.2573
  185loPI    C3 2947   2.462   5.942  10.896 -0.1881  0.2154 -0.1369
  185loPI   PO4 2948   2.297   5.863  10.332  0.0659 -0.0080  0.0338
  185loPI   GL1 2949   2.215   5.897   9.917  0.2102 -0.0932 -0.0138
  185loPI   GL2 2950   2.047   5.634   9.747  0.2193 -0.0455 -0.0531
  185loPI   C1A 2951   2.431   5.685   9.484  0.1491 -0.1987  0.0624
  185loPI   C2A 2952   2.455   5.593   8.991 -0.2343 -0.0620  0.0620
  185loPI   C3A 2953   2.458   5.547   8.481 -0.0572 -0.5198 -0.1612
  185loPI   C4A 2954   2.573   5.536   8.013 -0.0597  0.0342  0.1955
  185loPI   C5A 2955   2.518   5.361   7.584  0.1812  0.0699 -0.0093
  185loPI   C6A 2956   2.519   5.415   7.170  0.1498 -0.3517 -0.0817
  185loPI   C1B 2957   1.931   5.558   9.333 -0.2655  0.0458  0.0550
  185loPI   C2B 2958   1.966   5.487   8.839 -0.0737  0.3821  0.0894
  185loPI   C3B 2959   1.946   5.367   8.417  0.4101 -0.0524 -0.0036
  185loPI   C4B 2960   1.681   5.170   8.160  0.2730  0.2408  0.0308
  186loPI    C1 2961   2.299   5.041  10.579 -0.1894  0.0410 -0.0155
  186loPI    C2 2962   2.361   5.414  10.711  0.0757 -0.0426  0.1035
  186loPI    C3 2963   1.990   5.291  10.623 -0.0207  0.2281  0.1237
  186loPI   PO4 2964   2.485   4.997  10.397  0.1846  0.0364  0.0902
  186loPI   GL1 2965   2.485   5.093   9.931  0.0354  0.3423  0.0478
  186loPI   GL2 2966   2.398   4.810   9.979 -0.1378 -0.4094  0.0887
  186loPI   C1A 2967   2.450   5.122   9.484 -0.0089  0.0744  0.0233
  186loPI   C2A 2968   2.280   5.127   9.139 -0.3257 -0.3625  0.0175
  186loPI   C3A 2969   2.311   5.091   8.721 -0.1984 -0.1035 -0.0008
  186loPI   C4A 2970   2.295   5.070   8.279  0.0117  0.0332 -0.0475
  186loPI   C5A 2971   2.160   5.314   7.934 -0.0009  0.3923 -0.0895
  186loPI   C6A 2972   1.767   5.536   7.862 -0.0347 -0.0229 -0.1551
  186loPI   C1B 2973   2.409   4.659   9.615  0.1310 -0.1222 -0.5575
  186loPI   C2B 2974   2.243   4.650   9.255 -0.2419  0.0003  0.1224
  186loPI   C3B 2975   2.176   4.615   8.818 -0.0423  0.0616  0.0676
  186loPI   C4B 2976   1.959   4.774   8.500 -0.1850 -0.2710 -0.1591
  187loPI    C1 2977   2.015  13.755  10.875  0.0059 -0.1186 -0.1105
  187loPI    C2 2978   2.302  14.029  10.928 -0.1078 -0.0447  0.1389
  187loPI    C3 2979   2.398  13.642  10.896  0.0668  0.0331 -0.3646
  187loPI   PO4 2980   1.831  13.943  10.761 -0.0121  0.0595  0.3011
  187loPI   GL1 2981   1.787  14.111  10.290 -0.0519  0.1242  0.2322
  187loPI   GL2 2982   2.137  13.940  10.318  0.1583  0.0492 -0.1870
  187loPI   C1A 2983   1.777  14.193   9.827 -0.0348 -0.1687 -0.0988
  187loPI   C2A 2984   1.777  14.144   9.407 -0.1901 -0.0484 -0.0988
  187loPI   C3A 2985   1.760  14.178   8.923 -0.0916  0.0144 -0.3520
  187loPI   C4A 2986   1.716  13.949   8.578 -0.0073 -0.1487  0.0311
  187loPI   C5A 2987   1.261  13.667   8.422 -0.2451 -0.1583  0.1949
  187loPI   C6A 2988   1.073  13.251   8.423 -0.0289  0.2630  0.0963
  187loPI   C1B 2989   2.261  13.990   9.966 -0.0802  0.1657  0.3307
  187loPI   C2B 2990   2.255  14.078   9.547  0.1257 -0.1255  0.4630
  187loPI   C3B 2991   2.248  14.040   9.115 -0.0708  0.0932  0.1115
  187loPI   C4B 2992   2.407  13.830   8.758 -0.3239 -0.2076 -0.1739
  188loPI    C1 2993  14.955  17.358  11.046 -0.1213  0.0215 -0.1257
  188loPI    C2 2994  14.863  17.600  11.351 -0.0403  0.2773 -0.3007
  188loPI    C3 2995  14.574  17.463  11.110 -0.0990  0.1106 -0.1382
  188loPI   PO4 2996  15.047  17.472  10.815 -0.4108 -0.3916 -0.1957
  188loPI   GL1 2997  15.322  17.532  10.499  0.1679  0.3096 -0.4027
  188loPI   GL2 2998  15.672  17.475  10.490 -0.0335  0.0178  0.0748
  188loPI   C1A 2999  15.015  17.485  10.148  0.0886 -0.2272  0.2639
  188loPI   C2A 3000  15.010  17.430   9.719 -0.2313  0.0208  0.0407
  188loPI   C3A 3001  15.160  17.346   9.274  0.1243  0.3736 -0.0412
  188loPI   C4A 3002  15.045  17.393   8.841  0.0624 -0.1808  0.1724
  188loPI   C5A 3003  15.103  17.095   8.526  0.1692  0.1163  0.1664
  188loPI   C6A 3004  14.880  16.721   8.560  0.1152 -0.0029  0.0990
  188loPI   C1B 3005  15.514  17.385  10.054 -0.0101  0.2198  0.0116
  188loPI   C2B 3006  15.573  17.316   9.604  0.1712 -0.0083  0.1180
  188loPI   C3B 3007  15.694  17.363   9.252 -0.0389  0.1031  0.0352
  188loPI   C4B 3008  15.584  17.293   8.847 -0.1944  0.2570  0.0690
  189loPI    C1 3009  17.108  13.741  11.343 -0.0258  0.1722  0.1001
  189loPI    C2 3010  16.954  13.459  11.582  0.2020 -0.2241 -0.2076
  189loPI    C3 3011  17.075  13.808  11.736 -0.0358 -0.3100  0.1884
  189loPI   PO4 3012  17.236  13.614  11.173 -0.1834  0.0867  0.2902
  189loPI   GL1 3013  17.321  13.609  10.705  0.1807 -0.0979 -0.0209
  189loPI   GL2 3014  17.371  13.830  10.524  0.0982 -0.0630  0.0744
  189loPI   C1A 3015  17.391  13.218  10.344 -0.1293  0.0711  0.2191
  189loPI   C2A 3016  17.450  13.149   9.930  0.0430  0.0826  0.0813
  189loPI   C3A 3017  17.395  13.182   9.571  0.0025 -0.0005  0.2128
  189loPI   C4A 3018  17.445  13.307   9.140 -0.2299 -0.1151 -0.1826
  189loPI   C5A 3019  17.574  13.298   8.737 -0.0389 -0.1625 -0.1870
  189loPI   C6A 3020  17.440  13.408   8.357  0.0488 -0.0459  0.2584
  189loPI   C1B 3021  17.365  13.633  10.107 -0.0320  0.1493 -0.0541
  189loPI   C2B 3022  17.248  13.626   9.716  0.1531  0.0927 -0.3075
  189loPI   C3B 3023  17.164  13.661   9.307  0.2262  0.1332  0.2925
  189loPI   C4B 3024  17.219  13.675   8.832  0.0832 -0.0084 -0.1629
  190loPI    C1 3025   1.457  12.142  11.123 -0.2138  0.0029  0.1070
  190loPI    C2 3026   1.304  12.368  11.415 -0.1739 -0.0312  0.1543
  190loPI    C3 3027   1.615  12.127  11.490 -0.1778 -0.0566  0.0892
  190loPI   PO4 3028   1.520  12.283  10.869 -0.0078 -0.2782 -0.0920
  190loPI   GL1 3029   1.296  12.216  10.471  0.0063 -0.1159  0.0209
  190loPI   GL2 3030   1.771  12.223  10.371 -0.0100  0.0999 -0.2156
  190loPI   C1A 3031   1.320  12.270   9.973 -0.1280  0.0009 -0.1040
  190loPI   C2A 3032   1.422  12.277   9.539 -0.0149 -0.1043  0.3510
  190loPI   C3A 3033   1.397  12.375   9.184  0.1850  0.2731  0.1500
  190loPI   C4A 3034   1.341  12.482   8.783  0.0460 -0.0247  0.0786
  190loPI   C5A 3035   1.317  12.219   8.419  0.2882  0.0855  0.4977
  190loPI   C6A 3036   1.243  12.116   7.985  0.4725 -0.0298  0.0834
  190loPI   C1B 3037   1.884  12.195   9.888 -0.0147  0.1295  0.2160
  190loPI   C2B 3038   1.945  12.236   9.499  0.0037  0.3416 -0.0156
  190loPI   C3B 3039   1.873  12.282   8.994  0.2291  0.0136 -0.0217
  190loPI   C4B 3040   2.146  12.322   8.612 -0.1883  0.1388  0.1300
  191loPI    C1 3041  15.584   0.553  11.017 -0.1678 -0.2024  0.2992
  191loPI    C2 3042  15.540   0.944  11.090  0.4368  0.0374 -0.4821
  191loPI    C3 3043  15.854   0.746  11.239  0.1089 -0.1770 -0.0516
  191loPI   PO4 3044  15.614   0.486  10.743 -0.3963 -0.3506 -0.1059
  191loPI   GL1 3045  15.384   0.539  10.401 -0.1298 -0.1351 -0.0779
  191loPI   GL2 3046  15.315   0.744  10.203 -0.2578  0.1456 -0.0301
  191loPI   C1A 3047  15.354   0.188  10.115 -0.1341 -0.0027 -0.1009
  191loPI   C2A 3048  15.356   0.106   9.682  0.0252  0.2488  0.0215
  191loPI   C3A 3049  15.452   0.050   9.204  0.1897  0.0314  0.2903
  191loPI   C4A 3050  15.430   0.014   8.789  0.1269  0.0910 -0.1643
  191loPI   C5A 3051  15.737   0.163   8.585  0.0866  0.0500 -0.2380
  191loPI   C6A 3052  16.071  -0.039   8.641 -0.0344  0.0758  0.1155
  191loPI   C1B 3053  15.213   0.605   9.803 -0.1881  0.2735  0.0126
  191loPI   C2B 3054  15.262   0.512   9.386 -0.2621 -0.1616 -0.2876
  191loPI   C3B 3055  15.351   0.585   9.000  0.2393 -0.1106  0.0431
  191loPI   C4B 3056  15.367   0.589   8.623  0.2490 -0.0708 -0.2471
  192loPI    C1 3057  14.072  16.705  11.203 -0.0228  0.1827 -0.0550
  192loPI    C2 3058  13.827  16.462  11.405 -0.0470  0.0993 -0.1831
  192loPI    C3 3059  14.147  16.620  11.586  0.0029 -0.0767 -0.1157
  192loPI   PO4 3060  14.141  16.672  10.976 -0.1534  0.2219 -0.3101
  192loPI   GL1 3061  14.072  16.556  10.603  0.3540  0.1317  0.1903
  192loPI   GL2 3062  14.300  16.843  10.524 -0.1604  0.0217 -0.2992
  192loPI   C1A 3063  13.994  16.333  10.249 -0.1713  0.1021  0.0589
  192loPI   C2A 3064  14.122  16.256   9.866 -0.0643 -0.0101  0.0744
  192loPI   C3A 3065  14.088  16.184   9.411  0.0398 -0.2021 -0.0201
  192loPI   C4A 3066  14.078  16.296   9.012  0.3312 -0.0364  0.1428
  192loPI   C5A 3067  13.715  16.470   8.743  0.0079 -0.2368 -0.1589
  192loPI   C6A 3068  13.477  16.563   8.352 -0.0775 -0.1102 -0.1973
  192loPI   C1B 3069  14.408  16.675  10.071 -0.2343  0.1945  0.0688
  192loPI   C2B 3070  14.374  16.590   9.639  0.2767  0.0477  0.0362
  192loPI   C3B 3071  14.420  16.579   9.246  0.1809 -0.1240 -0.1133
  192loPI   C4B 3072  14.248  16.773   8.848 -0.0366  0.0270  0.0507
  193loPI    C1 3073   6.640  11.064  11.370  0.0413  0.0067 -0.3013
  193loPI    C2 3074   6.935  10.819  11.485 -0.0373  0.0119 -0.0854
  193loPI    C3 3075   6.945  11.206  11.587 -0.1613 -0.0059 -0.0034
  193loPI   PO4 3076   6.495  10.947  11.266  0.1388  0.1779 -0.0243
  193loPI   GL1 3077   6.367  10.783  10.791 -0.1873  0.0842 -0.1792
  193loPI   GL2 3078   6.606  10.483  10.703 -0.0736 -0.4346 -0.0102
  193loPI   C1A 3079   6.189  10.866  10.439 -0.1412  0.0579  0.1873
  193loPI   C2A 3080   6.104  10.829  10.043 -0.1627 -0.0483 -0.0960
  193loPI   C3A 3081   6.202  10.852   9.710 -0.1367  0.0520  0.2340
  193loPI   C4A 3082   6.235  10.960   9.319 -0.1047 -0.0980  0.2017
  193loPI   C5A 3083   6.069  10.974   8.901 -0.1994 -0.3851 -0.2549
  193loPI   C6A 3084   5.876  10.762   8.554 -0.3833  0.0712 -0.0704
  193loPI   C1B 3085   6.669  10.716  10.355 -0.0711  0.2278 -0.1703
  193loPI   C2B 3086   6.782  10.698   9.942 -0.2037 -0.4223  0.0160
  193loPI   C3B 3087   6.711  10.829   9.574  0.1889 -0.0489  0.3583
  193loPI   C4B 3088   6.678  10.841   9.080  0.0270  0.1649 -0.2013
  194loPI    C1 3089   4.636  15.206  11.369 -0.2912 -0.1340  0.0249
  194loPI    C2 3090   4.537  15.550  11.546  0.0961  0.0431 -0.0908
  194loPI    C3 3091   4.788  15.298  11.727  0.3852  0.1613 -0.3192
  194loPI   PO4 3092   4.725  15.283  11.142 -0.0239  0.0804  0.0153
  194loPI   GL1 3093   4.539  15.217  10.719 -0.0085  0.3008  0.0565
  194loPI   GL2 3094   4.363  14.975  10.809  0.2518  0.0416 -0.3769
  194loPI   C1A 3095   4.571  15.483  10.373  0.2942  0.0007  0.1668
  194loPI   C2A 3096   4.582  15.535   9.874 -0.1603 -0.1179 -0.2373
  194loPI   C3A 3097   4.702  15.304   9.480 -0.0299  0.1677 -0.0756
  194loPI   C4A 3098   4.730  15.360   9.046  0.2248 -0.2133  0.0517
  194loPI   C5A 3099   4.933  15.219   8.781 -0.0110  0.1072  0.1070
  194loPI   C6A 3100   4.963  14.777   8.648 -0.1398  0.0360  0.0978
  194loPI   C1B 3101   4.341  14.983  10.349  0.2975  0.0710  0.0970
  194loPI   C2B 3102   4.303  14.973   9.923  0.0792  0.2216  0.1886
  194loPI   C3B 3103   4.350  14.910   9.555  0.0965 -0.0052  0.2327
  194loPI   C4B 3104   4.444  14.924   9.111  0.3310 -0.4290  0.0348
  195loPI    C1 3105   8.307   1.065  11.247  0.1871  0.0417 -0.0602
  195loPI    C2 3106   8.043   0.890  11.490  0.0850  0.1729 -0.0756
  195loPI    C3 3107   8.374   1.055  11.641  0.1116  0.0934 -0.0460
  195loPI   PO4 3108   8.275   0.877  11.037  0.0637 -0.2313 -0.1880
  195loPI   GL1 3109   8.299   0.764  10.627  0.2987  0.0684 -0.2546
  195loPI   GL2 3110   8.655   0.647  10.591 -0.2051  0.3406 -0.1187
  195loPI   C1A 3111   8.215   0.467  10.193  0.0256 -0.0367  0.0955
  195loPI   C2A 3112   8.218   0.250   9.884  0.1912  0.2799  0.3254
  195loPI   C3A 3113   8.127   0.207   9.505 -0.1344 -0.2071  0.0110
  195loPI   C4A 3114   7.927   0.240   9.098  0.0444  0.0029  0.0596
  195loPI   C5A 3115   7.660   0.354   8.739 -0.1161  0.1604  0.0052
  195loPI   C6A 3116   7.345   0.369   8.414  0.2209 -0.0825 -0.1075
  195loPI   C1B 3117   8.762   0.578  10.142 -0.2470  0.1014 -0.1479
  195loPI   C2B 3118   8.946   0.507   9.718  0.0817  0.2889  0.2683
  195loPI   C3B 3119   9.009   0.461   9.314  0.2431 -0.1713 -0.0208
  195loPI   C4B 3120   9.070   0.549   8.939 -0.0259 -0.0068  0.0663
  196loPI    C1 3121   7.219  13.427  11.349  0.1931 -0.0222 -0.0499
  196loPI    C2 3122   7.551  13.227  11.449  0.1927 -0.0079 -0.0197
  196loPI    C3 3123   7.335  13.411  11.731 -0.0077 -0.2729  0.0030
  196loPI   PO4 3124   7.290  13.554  11.062  0.0401 -0.1030  0.1453
  196loPI   GL1 3125   7.212  13.688  10.656 -0.4149 -0.0197 -0.1391
  196loPI   GL2 3126   7.518  13.645  10.636 -0.1841  0.0073 -0.1793
  196loPI   C1A 3127   7.036  13.875  10.286  0.2492 -0.2478  0.0604
  196loPI   C2A 3128   7.024  13.892   9.884 -0.2327 -0.0870  0.1112
  196loPI   C3A 3129   7.015  13.937   9.449 -0.2952  0.0932 -0.1921
  196loPI   C4A 3130   7.088  13.989   9.072 -0.3433  0.2442 -0.0802
  196loPI   C5A 3131   7.178  14.028   8.577  0.1626  0.1800  0.4011
  196loPI   C6A 3132   7.025  14.275   8.271  0.2701 -0.2749 -0.0742
  196loPI   C1B 3133   7.487  13.801  10.186  0.0277 -0.1153 -0.1749
  196loPI   C2B 3134   7.479  13.836   9.689 -0.0794 -0.2201  0.1187
  196loPI   C3B 3135   7.532  13.914   9.269  0.3742  0.3316 -0.2871
  196loPI   C4B 3136   7.547  13.810   8.812  0.3727 -0.2178 -0.1925
  197loPI    C1 3137   5.309   2.376  10.792 -0.1855  0.1273  0.1028
  197loPI    C2 3138   5.584   2.227  11.041 -0.0951 -0.2177 -0.1946
  197loPI    C3 3139   5.209   2.287  11.169  0.0528  0.0222  0.1424
  197loPI   PO4 3140   5.395   2.289  10.522  0.0632 -0.3276  0.1167
  197loPI   GL1 3141   5.575   2.175  10.088  0.3427 -0.0190 -0.1098
  197loPI   GL2 3142   5.611   1.960  10.261 -0.0442 -0.1524  0.0753
  197loPI   C1A 3143   5.688   2.127   9.580 -0.0409  0.2644 -0.1627
  197loPI   C2A 3144   5.706   2.162   9.181  0.0186 -0.0031 -0.2618
  197loPI   C3A 3145   5.494   2.210   8.727  0.2018  0.1084  0.0057
  197loPI   C4A 3146   5.183   2.066   8.415  0.1323 -0.1788 -0.1226
  197loPI   C5A 3147   4.756   2.167   8.442 -0.3006  0.0691 -0.0766
  197loPI   C6A 3148   4.433   2.219   8.282 -0.2317 -0.3428 -0.0289
  197loPI   C1B 3149   5.528   1.707   9.942  0.0626  0.1026  0.1869
  197loPI   C2B 3150   5.425   1.633   9.547  0.2051 -0.0027 -0.4982
  197loPI   C3B 3151   5.345   1.701   9.172  0.0894  0.0289  0.0875
  197loPI   C4B 3152   5.183   1.809   8.894 -0.2528 -0.0706  0.1832
  198loPI    C1 3153   3.487   0.123  11.020 -0.0532 -0.0849  0.0819
  198loPI    C2 3154   3.163   0.287  11.188 -0.0898 -0.0690 -0.0039
  198loPI    C3 3155   3.517   0.311  11.372 -0.1131  0.0242  0.0293
  198loPI   PO4 3156   3.534   0.220  10.815  0.0203 -0.0631  0.1857
  198loPI   GL1 3157   3.893   0.163  10.423 -0.1983 -0.2389  0.0147
  198loPI   GL2 3158   3.779  -0.077  10.517  0.2509  0.0403 -0.0439
  198loPI   C1A 3159   3.741   0.324   9.953 -0.0011 -0.1647 -0.1050
  198loPI   C2A 3160   3.771   0.309   9.551  0.1038  0.2145 -0.1924
  198loPI   C3A 3161   3.862   0.105   9.081 -0.0415 -0.2510  0.0292
  198loPI   C4A 3162   3.873   0.182   8.634 -0.0701 -0.0750  0.0899
  198loPI   C5A 3163   3.718   0.456   8.371  0.2586 -0.0362 -0.0201
  198loPI   C6A 3164   3.381   0.738   8.489  0.0597 -0.0122 -0.1454
  198loPI   C1B 3165   3.836  -0.191  10.028  0.2869 -0.2214 -0.2084
  198loPI   C2B 3166   4.067  -0.302   9.645  0.1141  0.0913  0.0204
  198loPI   C3B 3167   4.090  -0.359   9.160  0.0991  0.2587 -0.0320
  198loPI   C4B 3168   4.078  -0.280   8.691 -0.3274  0.1108  0.0059
  199loPI    C1 3169  10.599  17.103  11.602 -0.0460  0.1145 -0.0789
  199loPI    C2 3170  10.872  17.351  11.449  0.0245 -0.0259 -0.1827
  199loPI    C3 3171  10.983  16.993  11.589 -0.0120  0.1648  0.3560
  199loPI   PO4 3172  10.392  17.142  11.496 -0.1961  0.0128  0.2100
  199loPI   GL1 3173  10.337  17.276  11.086  0.0715 -0.0440  0.0053
  199loPI   GL2 3174  10.534  17.499  11.115 -0.1443  0.1080  0.1176
  199loPI   C1A 3175  10.207  17.437  10.646  0.4701  0.2919  0.1957
  199loPI   C2A 3176  10.168  17.469  10.208 -0.0396  0.0743 -0.0283
  199loPI   C3A 3177  10.267  17.559   9.947  0.0443 -0.3115 -0.2355
  199loPI   C4A 3178  10.168  17.465   9.522  0.1241 -0.2849  0.2155
  199loPI   C5A 3179  10.148  17.490   9.097 -0.3722 -0.0232  0.1320
  199loPI   C6A 3180   9.876  17.249   8.854  0.3993  0.1549  0.0612
  199loPI   C1B 3181  10.741  17.356  10.704  0.0961 -0.1916  0.0692
  199loPI   C2B 3182  10.778  17.388  10.302 -0.4178  0.1544  0.0776
  199loPI   C3B 3183  10.789  17.397   9.915  0.3984  0.0438  0.2132
  199loPI   C4B 3184  10.716  17.440   9.543  0.2331 -0.1977 -0.1148
  200loPI    C1 3185   8.377  16.460  11.318  0.1270  0.1520 -0.1472
  200loPI    C2 3186   8.204  16.769  11.132 -0.1627  0.0477 -0.0568
  200loPI    C3 3187   8.226  16.762  11.532 -0.0500  0.0061 -0.0634
  200loPI   PO4 3188   8.223  16.238  11.102 -0.0830  0.1524 -0.3264
  200loPI   GL1 3189   7.868  16.311  10.800  0.2996  0.2177 -0.2863
  200loPI   GL2 3190   8.006  16.547  10.696  0.0170 -0.3051  0.0987
  200loPI   C1A 3191   7.850  16.092  10.342  0.0994  0.0837 -0.1461
  200loPI   C2A 3192   7.872  16.136   9.849 -0.0650 -0.0172 -0.0831
  200loPI   C3A 3193   7.816  16.067   9.477 -0.2264  0.2076  0.0948
  200loPI   C4A 3194   7.778  16.082   9.051 -0.0186  0.2718  0.0918
  200loPI   C5A 3195   7.521  15.817   8.783  0.0787  0.0457 -0.0749
  200loPI   C6A 3196   7.284  15.654   8.445  0.1388  0.1344  0.1600
  200loPI   C1B 3197   8.176  16.510  10.265  0.0181 -0.0021 -0.0791
  200loPI   C2B 3198   8.233  16.445   9.832 -0.2656 -0.1472  0.0491
  200loPI   C3B 3199   8.214  16.511   9.461  0.2081  0.2413  0.0276
  200loPI   C4B 3200   8.013  16.566   8.984 -0.2078  0.0023  0.0412
  201loPI    C1 3201   3.757   7.659  10.280  0.2313  0.1790 -0.1049
  201loPI    C2 3202   3.625   7.981  10.478 -0.1875 -0.1079  0.0989
  201loPI    C3 3203   3.835   7.700  10.670 -0.2053 -0.1703  0.0277
  201loPI   PO4 3204   3.606   7.587  10.118 -0.5413  0.0424  0.2476
  201loPI   GL1 3205   3.326   7.509   9.895 -0.0040 -0.0174 -0.0137
  201loPI   GL2 3206   3.258   7.887   9.833 -0.1272 -0.1595 -0.0826
  201loPI   C1A 3207   3.147   7.423   9.503  0.0806  0.1109 -0.0328
  201loPI   C2A 3208   3.115   7.379   9.120 -0.1111  0.0045  0.3821
  201loPI   C3A 3209   3.128   7.387   8.707  0.0236  0.0440  0.1996
  201loPI   C4A 3210   2.868   7.571   8.358 -0.0746 -0.1666 -0.0959
  201loPI   C5A 3211   2.417   7.696   8.208  0.0491  0.0855  0.0756
  201loPI   C6A 3212   2.049   7.488   8.060 -0.3480  0.1491 -0.0858
  201loPI   C1B 3213   3.184   7.903   9.460 -0.1322 -0.2784 -0.0324
  201loPI   C2B 3214   3.003   7.860   9.087 -0.0835  0.1541 -0.0865
  201loPI   C3B 3215   2.959   7.883   8.730 -0.2476 -0.0943  0.1839
  201loPI   C4B 3216   3.053   8.005   8.294 -0.1411 -0.0209  0.1237
  202loPI    C1 3217  14.156  10.530  10.464 -0.1554 -0.2076  0.0840
  202loPI    C2 3218  14.460  10.574  10.721 -0.0727 -0.1627 -0.0208
  202loPI    C3 3219  14.157  10.327  10.808 -0.2345  0.1376  0.2935
  202loPI   PO4 3220  14.146  10.783  10.321  0.1427 -0.0923 -0.1090
  202loPI   GL1 3221  14.408  10.904   9.968 -0.1771 -0.2645 -0.0097
  202loPI   GL2 3222  14.605  10.737  10.217 -0.0382  0.1025 -0.5935
  202loPI   C1A 3223  14.400  10.962   9.523 -0.0619  0.0812 -0.0247
  202loPI   C2A 3224  14.529  10.993   9.081 -0.0707 -0.0043  0.2487
  202loPI   C3A 3225  14.761  10.971   8.740 -0.1091 -0.2398  0.1611
  202loPI   C4A 3226  14.842  10.721   8.381  0.0634  0.2166 -0.0450
  202loPI   C5A 3227  14.991  10.300   8.205  0.1280 -0.2272 -0.0440
  202loPI   C6A 3228  14.815   9.897   8.060  0.0717  0.1280 -0.0936
  202loPI   C1B 3229  14.737  10.536   9.911  0.0153  0.4619  0.2717
  202loPI   C2B 3230  14.812  10.637   9.452  0.1244 -0.0432 -0.1749
  202loPI   C3B 3231  14.866  10.586   9.064 -0.0982 -0.1976 -0.1187
  202loPI   C4B 3232  14.836  10.372   8.717  0.4131  0.1441  0.0002
  203loPI    C1 3233   6.373   9.697  11.202  0.2308  0.1805 -0.2801
  203loPI    C2 3234   6.100   9.425  11.309  0.2509  0.1303 -0.3555
  203loPI    C3 3235   6.188   9.728  11.555  0.0890  0.1763 -0.3533
  203loPI   PO4 3236   6.518   9.534  10.953 -0.1826  0.2864  0.1597
  203loPI   GL1 3237   6.740   9.741  10.615 -0.1035  0.3291  0.1474
  203loPI   GL2 3238   6.724   9.994  10.680  0.1120  0.1031  0.0621
  203loPI   C1A 3239   6.941   9.771  10.169 -0.1183  0.2100 -0.1468
  203loPI   C2A 3240   7.041   9.794   9.702 -0.3614  0.1491  0.0190
  203loPI   C3A 3241   7.063   9.862   9.250 -0.1751 -0.0407  0.1255
  203loPI   C4A 3242   7.015   9.956   8.863  0.2782  0.3459  0.1161
  203loPI   C5A 3243   6.875  10.336   8.602 -0.2319 -0.1456  0.2598
  203loPI   C6A 3244   6.784  10.795   8.531 -0.1273  0.2291 -0.0321
  203loPI   C1B 3245   6.934  10.266  10.377  0.0853 -0.3319 -0.0273
  203loPI   C2B 3246   6.944  10.241   9.903  0.0094  0.0856 -0.0216
  203loPI   C3B 3247   6.880  10.319   9.526 -0.0361  0.1174  0.1928
  203loPI   C4B 3248   6.898  10.337   9.138 -0.0869 -0.5999 -0.2136
  204loPI    C1 3249   5.721   6.268  10.454 -0.0139 -0.2323  0.1478
  204loPI    C2 3250   5.861   6.642  10.431 -0.1005 -0.2101 -0.0319
  204loPI    C3 3251   6.110   6.340  10.510 -0.0128 -0.1272  0.0106
  204loPI   PO4 3252   5.602   6.226  10.215  0.0047 -0.3442 -0.1106
  204loPI   GL1 3253   5.705   6.057   9.788  0.1166 -0.1773  0.2133
  204loPI   GL2 3254   5.732   5.715   9.768  0.0087  0.1294 -0.1486
  204loPI   C1A 3255   5.199   6.026   9.549 -0.2601  0.1239  0.0899
  204loPI   C2A 3256   5.118   6.070   9.174  0.1594  0.2250 -0.0942
  204loPI   C3A 3257   5.160   5.996   8.777  0.0411 -0.0506 -0.2889
  204loPI   C4A 3258   5.191   5.926   8.360  0.2240  0.1394  0.2230
  204loPI   C5A 3259   5.238   6.177   8.050  0.1572 -0.0280  0.0070
  204loPI   C6A 3260   4.996   6.536   7.836  0.1079 -0.2096  0.0693
  204loPI   C1B 3261   5.683   5.899   9.334  0.1883 -0.0449 -0.0310
  204loPI   C2B 3262   5.624   5.933   8.996 -0.0758 -0.1614  0.2743
  204loPI   C3B 3263   5.608   6.072   8.584 -0.2774 -0.0478  0.2382
  204loPI   C4B 3264   5.895   6.175   8.163 -0.2152  0.0619  0.1613
  205loPI    C1 3265   2.293  11.726  11.000 -0.2057  0.1483 -0.0547
  205loPI    C2 3266   2.484  12.074  10.951  0.1513 -0.0411 -0.0402
  205loPI    C3 3267   2.348  11.969  11.312 -0.0149  0.1105 -0.0576
  205loPI   PO4 3268   2.414  11.522  10.785 -0.0546  0.1286 -0.1339
  205loPI   GL1 3269   2.561  11.631  10.422  0.0579 -0.0990 -0.0027
  205loPI   GL2 3270   2.799  11.809  10.420 -0.0339  0.3879 -0.0205
  205loPI   C1A 3271   2.523  11.556   9.980  0.3554  0.1517 -0.1355
  205loPI   C2A 3272   2.638  11.653   9.624 -0.4522 -0.2094 -0.1971
  205loPI   C3A 3273   2.584  11.652   9.144 -0.1648  0.1880 -0.0310
  205loPI   C4A 3274   2.640  11.383   8.782 -0.1931 -0.3074  0.0970
  205loPI   C5A 3275   2.450  11.055   8.575  0.1844 -0.3424 -0.0122
  205loPI   C6A 3276   2.355  10.715   8.351  0.4097 -0.2265 -0.0346
  205loPI   C1B 3277   2.921  11.872   9.960  0.1459 -0.2655  0.0030
  205loPI   C2B 3278   2.950  12.023   9.476 -0.0597  0.0179  0.1032
  205loPI   C3B 3279   2.976  11.991   9.083  0.3613  0.4694 -0.0543
  205loPI   C4B 3280   3.050  11.735   8.743  0.0948  0.1308  0.0430
  206loPI    C1 3281   5.202   3.180  10.944 -0.2116  0.1200  0.0636
  206loPI    C2 3282   5.138   2.796  11.036 -0.0847  0.0710 -0.0491
  206loPI    C3 3283   5.147   3.072  11.325 -0.1673 -0.0118  0.0333
  206loPI   PO4 3284   5.281   3.105  10.635 -0.0532 -0.1399 -0.5230
  206loPI   GL1 3285   5.508   2.882  10.238  0.0260  0.0938  0.1755
  206loPI   GL2 3286   5.317   2.688  10.242  0.0914  0.5922 -0.0078
  206loPI   C1A 3287   5.620   3.015   9.863  0.3357  0.0621  0.2505
  206loPI   C2A 3288   5.751   3.149   9.446 -0.1666 -0.1848 -0.1571
  206loPI   C3A 3289   5.799   3.110   9.060  0.0096 -0.2950  0.0455
  206loPI   C4A 3290   5.821   3.166   8.663 -0.2306 -0.1904 -0.0241
  206loPI   C5A 3291   5.590   3.141   8.309  0.2491 -0.1457  0.0617
  206loPI   C6A 3292   5.368   3.465   8.060 -0.2203 -0.2205  0.1128
  206loPI   C1B 3293   5.443   2.558   9.856  0.0580  0.0107 -0.0294
  206loPI   C2B 3294   5.413   2.542   9.485  0.0364  0.0479  0.0939
  206loPI   C3B 3295   5.474   2.678   9.138 -0.1112 -0.1691 -0.0362
  206loPI   C4B 3296   5.485   2.778   8.694  0.0450  0.2903  0.1684
  207loPI    C1 3297   9.562  14.830  11.277  0.0314  0.0203 -0.1375
  207loPI    C2 3298   9.798  14.639  11.537 -0.2485 -0.0707  0.0546
  207loPI    C3 3299   9.759  15.037  11.558 -0.2762 -0.0785  0.1583
  207loPI   PO4 3300   9.603  14.681  11.086  0.2655 -0.1194  0.0453
  207loPI   GL1 3301   9.401  14.580  10.716  0.1948 -0.0841 -0.0830
  207loPI   GL2 3302   9.789  14.371  10.589  0.1881 -0.0500 -0.0050
  207loPI   C1A 3303   9.501  14.555  10.229 -0.1998  0.0592  0.1646
  207loPI   C2A 3304   9.753  14.713   9.820  0.3389  0.0437 -0.1542
  207loPI   C3A 3305   9.762  14.811   9.450 -0.0819 -0.0590  0.1233
  207loPI   C4A 3306   9.593  14.811   9.001 -0.2742 -0.2273  0.5156
  207loPI   C5A 3307   9.743  14.595   8.662 -0.2265  0.0716  0.2250
  207loPI   C6A 3308   9.921  14.282   8.424 -0.1226  0.1155 -0.1441
  207loPI   C1B 3309  10.066  14.514  10.231 -0.0134  0.3755 -0.1217
  207loPI   C2B 3310  10.223  14.583   9.761 -0.2411 -0.3834 -0.0018
  207loPI   C3B 3311  10.240  14.752   9.331  0.1686  0.1148  0.1988
  207loPI   C4B 3312  10.108  14.750   8.937  0.2325  0.2480 -0.1973
  208loPI    C1 3313  12.067   1.254  11.144 -0.1132  0.1681  0.0599
  208loPI    C2 3314  12.321   1.006  11.328  0.1131  0.2250 -0.1693
  208loPI    C3 3315  12.216   1.350  11.502 -0.0084  0.0846  0.0393
  208loPI   PO4 3316  11.921   1.082  11.034  0.0089  0.0164 -0.0205
  208loPI   GL1 3317  11.798   1.156  10.676  0.1505  0.0407 -0.2813
  208loPI   GL2 3318  11.590   1.338  10.482 -0.0137 -0.1151  0.1762
  208loPI   C1A 3319  11.778   0.985  10.184  0.2128 -0.0084  0.1547
  208loPI   C2A 3320  11.670   0.858   9.832  0.0712  0.0055  0.0684
  208loPI   C3A 3321  11.780   0.874   9.450 -0.1182 -0.0650 -0.3861
  208loPI   C4A 3322  11.740   0.716   9.025  0.3957 -0.0007  0.0176
  208loPI   C5A 3323  11.600   0.281   8.892 -0.0480  0.0301  0.0199
  208loPI   C6A 3324  11.554  -0.126   8.962  0.0755 -0.0437  0.0338
  208loPI   C1B 3325  11.616   1.399   9.987 -0.1528  0.0309 -0.1373
  208loPI   C2B 3326  11.589   1.315   9.630  0.1570  0.1859 -0.0179
  208loPI   C3B 3327  11.682   1.354   9.231  0.1050 -0.1179 -0.1154
  208loPI   C4B 3328  11.603   1.160   8.803  0.2320 -0.0432 -0.0237
  209loPI    C1 3329   4.853  12.602  11.010  0.0727  0.0737  0.4750
  209loPI    C2 3330   4.467  12.665  10.925  0.1574  0.1290  0.1122
  209loPI    C3 3331   4.572  12.372  11.177 -0.1115  0.0127  0.0919
  209loPI   PO4 3332   4.976  12.659  10.827  0.2257 -0.0263  0.1555
  209loPI   GL1 3333   4.966  13.003  10.495  0.0768 -0.1178  0.0598
  209loPI   GL2 3334   5.265  13.273  10.431  0.0719  0.0725 -0.1133
  209loPI   C1A 3335   4.925  12.870  10.127  0.0143 -0.0336  0.0718
  209loPI   C2A 3336   4.987  13.025   9.707 -0.0498  0.3125 -0.0509
  209loPI   C3A 3337   5.007  13.059   9.271  0.6398 -0.1563  0.1508
  209loPI   C4A 3338   4.995  13.031   8.801  0.1135 -0.0187 -0.0958
  209loPI   C5A 3339   5.240  12.970   8.464 -0.1410 -0.2055  0.2155
  209loPI   C6A 3340   5.222  12.682   8.093 -0.3618  0.1852  0.1241
  209loPI   C1B 3341   5.249  13.294  10.007  0.1730  0.0800  0.1948
  209loPI   C2B 3342   5.313  13.360   9.590  0.2291 -0.0463  0.0008
  209loPI   C3B 3343   5.381  13.397   9.143  0.6287  0.3841  0.3357
  209loPI   C4B 3344   5.359  13.381   8.682  0.0407 -0.1542 -0.1092
  210loPI    C1 3345   9.155  13.269  11.197  0.0297 -0.1249 -0.0147
  210loPI    C2 3346   9.357  12.933  11.118  0.3613  0.0167  0.2061
  210loPI    C3 3347   9.297  13.045  11.497 -0.1639 -0.0356  0.1457
  210loPI   PO4 3348   9.205  13.412  10.997 -0.1847  0.1310  0.0413
  210loPI   GL1 3349   9.202  13.514  10.519 -0.1030 -0.0859 -0.0821
  210loPI   GL2 3350   8.873  13.674  10.333 -0.3413 -0.0834  0.1676
  210loPI   C1A 3351   9.257  13.613  10.058 -0.0062 -0.0208 -0.0965
  210loPI   C2A 3352   9.419  13.722   9.677 -0.0083 -0.2358 -0.0685
  210loPI   C3A 3353   9.419  13.929   9.322 -0.2310  0.1876 -0.2092
  210loPI   C4A 3354   9.430  14.017   8.934  0.0258  0.4758  0.0685
  210loPI   C5A 3355   9.240  14.059   8.539  0.0684  0.1974 -0.0793
  210loPI   C6A 3356   8.904  13.891   8.198  0.0497  0.1443  0.2149
  210loPI   C1B 3357   8.868  13.862   9.926 -0.1470 -0.2627 -0.0716
  210loPI   C2B 3358   8.899  13.965   9.493  0.1024 -0.0540  0.0844
  210loPI   C3B 3359   8.924  14.078   9.113  0.0989  0.2772 -0.1539
  210loPI   C4B 3360   8.804  14.287   8.686 -0.0435 -0.2510  0.3412
  211loPI    C1 3361   7.545   5.299  10.459  0.0807 -0.1927 -0.1689
  211loPI    C2 3362   7.231   5.410  10.679  0.1722 -0.1863 -0.0405
  211loPI    C3 3363   7.348   5.027  10.676  0.1672 -0.1875 -0.0832
  211loPI   PO4 3364   7.552   5.380  10.178  0.3997 -0.1012 -0.1202
  211loPI   GL1 3365   7.769   5.401   9.848 -0.1133  0.1184  0.2049
  211loPI   GL2 3366   7.803   5.707   9.874  0.3092  0.0784 -0.2504
  211loPI   C1A 3367   7.588   5.500   9.466 -0.1784  0.0691 -0.2872
  211loPI   C2A 3368   7.502   5.511   9.057  0.0027  0.0646  0.0498
  211loPI   C3A 3369   7.604   5.535   8.691  0.0781  0.2083  0.0981
  211loPI   C4A 3370   7.442   5.370   8.362 -0.1948  0.2752 -0.1140
  211loPI   C5A 3371   7.698   5.184   8.023 -0.0188 -0.4134  0.3678
  211loPI   C6A 3372   8.054   5.319   7.736  0.0697  0.0304 -0.1201
  211loPI   C1B 3373   7.731   5.957   9.643 -0.0915 -0.2949  0.0623
  211loPI   C2B 3374   7.702   5.939   9.256 -0.2567  0.0696 -0.0950
  211loPI   C3B 3375   7.743   5.991   8.864  0.0115 -0.1754 -0.1592
  211loPI   C4B 3376   7.747   6.070   8.396  0.0373 -0.1470  0.0479
  212loPI    C1 3377   0.178  12.342  11.116 -0.1225  0.1572  0.2996
  212loPI    C2 3378   0.033  12.645  10.899  0.1721  0.0463 -0.0625
  212loPI    C3 3379  -0.178  12.307  10.937 -0.0601  0.2131  0.1632
  212loPI   PO4 3380   0.487  12.342  11.006 -0.1369  0.3561 -0.0833
  212loPI   GL1 3381   0.628  12.466  10.643 -0.1769 -0.0804  0.1215
  212loPI   GL2 3382   0.373  12.590  10.426  0.4169 -0.1712  0.0594
  212loPI   C1A 3383   1.036  12.618  10.279  0.0116 -0.0018  0.3137
  212loPI   C2A 3384   1.126  12.752   9.870 -0.2730 -0.0964  0.0254
  212loPI   C3A 3385   1.241  12.822   9.460 -0.1615 -0.2432  0.0911
  212loPI   C4A 3386   1.225  12.898   9.058 -0.0527  0.1070 -0.1066
  212loPI   C5A 3387   1.365  12.973   8.726  0.1235 -0.1771  0.0216
  212loPI   C6A 3388   1.529  13.024   8.203 -0.3362 -0.0153  0.2319
  212loPI   C1B 3389   0.296  12.496  10.010 -0.2149  0.0223  0.0531
  212loPI   C2B 3390   0.315  12.548   9.580 -0.1248  0.1292  0.2496
  212loPI   C3B 3391   0.284  12.594   9.093  0.4631 -0.2487  0.0954
  212loPI   C4B 3392   0.309  12.753   8.590  0.1304 -0.3895  0.0244
  213loPI    C1 3393   5.264   8.280  10.389  0.0209 -0.0286 -0.1258
  213loPI    C2 3394   4.962   8.543  10.392  0.0302 -0.0180 -0.0937
  213loPI    C3 3395   5.222   8.534  10.695  0.0799 -0.0067 -0.1358
  213loPI   PO4 3396   5.342   8.253  10.133 -0.1856 -0.0040 -0.2328
  213loPI   GL1 3397   5.354   8.112   9.733  0.1335  0.1588 -0.1716
  213loPI   GL2 3398   5.128   7.893   9.855 -0.0814  0.1142  0.1372
  213loPI   C1A 3399   5.370   8.051   9.353  0.1383  0.0287 -0.1718
  213loPI   C2A 3400   5.522   8.070   8.881 -0.0434  0.1141  0.3240
  213loPI   C3A 3401   5.614   7.883   8.492 -0.1811 -0.0393 -0.0081
  213loPI   C4A 3402   5.659   7.465   8.346  0.1824 -0.0981 -0.2137
  213loPI   C5A 3403   5.387   7.237   8.000 -0.2307 -0.1726  0.0820
  213loPI   C6A 3404   5.197   6.869   8.190 -0.2867  0.2734 -0.0552
  213loPI   C1B 3405   4.920   7.885   9.445  0.1136  0.0132 -0.1828
  213loPI   C2B 3406   4.969   7.928   8.984 -0.1966 -0.1904 -0.3201
  213loPI   C3B 3407   5.047   7.938   8.548 -0.2714 -0.0041  0.3744
  213loPI   C4B 3408   4.922   7.757   8.207 -0.1947 -0.0569  0.0299
  214loPI    C1 3409  17.019   9.022  10.560 -0.1425 -0.0635  0.0056
  214loPI    C2 3410  17.352   9.216  10.667 -0.0291 -0.1142 -0.2486
  214loPI    C3 3411  17.047   9.186  10.924  0.0590  0.1603 -0.1077
  214loPI   PO4 3412  16.921   9.184  10.369 -0.1606  0.3345 -0.1492
  214loPI   GL1 3413  16.974   9.338  10.008 -0.1775  0.0309 -0.0531
  214loPI   GL2 3414  17.279   9.495  10.203  0.0101 -0.0598 -0.2487
  214loPI   C1A 3415  17.045   9.576   9.580  0.1238 -0.0060 -0.0660
  214loPI   C2A 3416  17.264   9.744   9.339  0.6080  0.0712  0.0548
  214loPI   C3A 3417  17.456   9.854   9.044  0.2095 -0.1777 -0.0328
  214loPI   C4A 3418  17.448   9.999   8.561  0.1581 -0.0334 -0.0931
  214loPI   C5A 3419  17.530   9.727   8.299  0.2025 -0.2364 -0.1988
  214loPI   C6A 3420  17.778   9.330   8.256 -0.2318  0.1935 -0.0888
  214loPI   C1B 3421  17.479   9.502   9.870  0.0544 -0.0385 -0.1806
  214loPI   C2B 3422  17.420   9.333   9.494 -0.2201 -0.1556  0.1710
  214loPI   C3B 3423  17.250   9.335   9.007 -0.1002  0.1286 -0.2253
  214loPI   C4B 3424  17.156   9.475   8.589  0.3368 -0.0647  0.1539
  215loPI    C1 3425   2.988   2.070  10.665  0.0030  0.0177 -0.1252
  215loPI    C2 3426   3.178   2.386  10.820 -0.2357 -0.0579  0.3394
  215loPI    C3 3427   2.780   2.360  10.844 -0.2134 -0.4284  0.3740
  215loPI   PO4 3428   3.002   2.037  10.469 -0.0166  0.2315  0.0914
  215loPI   GL1 3429   2.961   2.143   9.999  0.1408  0.1077  0.2901
  215loPI   GL2 3430   3.115   2.341   9.903 -0.0397 -0.2689 -0.0752
  215loPI   C1A 3431   2.865   1.929   9.704 -0.1199 -0.2058  0.1212
  215loPI   C2A 3432   2.562   1.688   9.611  0.2280 -0.0668 -0.2866
  215loPI   C3A 3433   2.629   1.406   9.268  0.2698 -0.0211  0.2032
  215loPI   C4A 3434   2.813   1.625   8.898 -0.0953  0.0159  0.3238
  215loPI   C5A 3435   2.602   1.658   8.478 -0.1115 -0.2259 -0.1457
  215loPI   C6A 3436   2.419   1.576   8.161 -0.1113  0.0057 -0.2588
  215loPI   C1B 3437   3.099   2.348   9.487  0.0433  0.2614 -0.0106
  215loPI   C2B 3438   3.081   1.943   9.155  0.1252 -0.1689 -0.1799
  215loPI   C3B 3439   3.282   1.667   8.885 -0.0741 -0.0172 -0.0684
  215loPI   C4B 3440   3.536   1.695   8.529  0.0474 -0.4777  0.1717
  216loPI    C1 3441  10.397   2.362  10.954 -0.0590 -0.2246  0.0459
  216loPI    C2 3442  10.618   2.130  11.193  0.1162 -0.0172  0.0882
  216loPI    C3 3443  10.298   2.319  11.339  0.0765 -0.0912  0.0970
  216loPI   PO4 3444  10.435   2.228  10.741 -0.3200 -0.3825  0.1248
  216loPI   GL1 3445  10.302   1.879  10.539  0.0872  0.2937  0.0461
  216loPI   GL2 3446  10.099   1.968  10.245  0.0138 -0.1018 -0.0488
  216loPI   C1A 3447  10.556   1.576  10.227  0.1300 -0.1639  0.0519
  216loPI   C2A 3448  10.619   1.681   9.813  0.1487  0.0408 -0.2484
  216loPI   C3A 3449  10.609   1.492   9.396  0.4265  0.1192 -0.2129
  216loPI   C4A 3450  10.705   1.379   9.021  0.1156 -0.4829  0.1662
  216loPI   C5A 3451  10.735   1.228   8.600 -0.1165 -0.2053  0.1201
  216loPI   C6A 3452  10.579   1.032   8.195  0.1240 -0.0097  0.2118
  216loPI   C1B 3453  10.070   1.932   9.897  0.0144  0.0537  0.1922
  216loPI   C2B 3454  10.117   1.643   9.599  0.0565  0.1010  0.1738
  216loPI   C3B 3455  10.056   1.498   9.190  0.0242  0.2380 -0.0815
  216loPI   C4B 3456  10.232   1.504   8.721 -0.0646 -0.0757 -0.6118
  217loPI    C1 3457   7.304  15.754  11.449  0.0030 -0.0277 -0.1976
  217loPI    C2 3458   7.521  16.057  11.596 -0.0080 -0.1321  0.0387
  217loPI    C3 3459   7.162  16.128  11.433  0.0028 -0.0144  0.0653
  217loPI   PO4 3460   7.537  15.557  11.294 -0.1760  0.1342 -0.2445
  217loPI   GL1 3461   7.463  15.525  10.875 -0.0935 -0.0693 -0.1456
  217loPI   GL2 3462   7.785  15.576  10.876 -0.3158 -0.1433  0.1922
  217loPI   C1A 3463   7.408  15.698  10.496 -0.1249  0.0292  0.0170
  217loPI   C2A 3464   7.467  15.793  10.082 -0.0890 -0.1730  0.1765
  217loPI   C3A 3465   7.407  15.745   9.671 -0.2008  0.0316  0.1101
  217loPI   C4A 3466   7.391  15.793   9.294  0.0489 -0.0666 -0.1244
  217loPI   C5A 3467   7.032  15.806   8.884 -0.2157 -0.4041  0.1157
  217loPI   C6A 3468   6.774  15.534   8.667  0.4024 -0.1767 -0.4547
  217loPI   C1B 3469   7.957  15.553  10.458 -0.3920 -0.0073 -0.2468
  217loPI   C2B 3470   7.924  15.627   9.952  0.0980  0.4554 -0.2265
  217loPI   C3B 3471   7.975  15.575   9.637  0.0508 -0.0946 -0.2919
  217loPI   C4B 3472   7.965  15.646   9.222 -0.0206  0.1050 -0.3197
  218loPI    C1 3473   6.061   0.058  11.145  0.3067 -0.0281 -0.0309
  218loPI    C2 3474   5.895  -0.099  11.473 -0.1589  0.3043 -0.0962
  218loPI    C3 3475   6.190   0.169  11.507 -0.0275  0.1444  0.0405
  218loPI   PO4 3476   5.931  -0.092  10.979  0.0821  0.1682  0.1956
  218loPI   GL1 3477   5.993  -0.217  10.491 -0.1320  0.2393  0.0853
  218loPI   GL2 3478   5.903  -0.453  10.601 -0.2471 -0.2027 -0.0919
  218loPI   C1A 3479   5.914  -0.098  10.159  0.0440  0.1537 -0.2334
  218loPI   C2A 3480   5.920  -0.184   9.814  0.2397 -0.0814 -0.0096
  218loPI   C3A 3481   5.959  -0.330   9.384  0.1765 -0.0330 -0.0792
  218loPI   C4A 3482   5.917  -0.208   8.925 -0.1073 -0.2527  0.2958
  218loPI   C5A 3483   6.028  -0.009   8.424 -0.1074 -0.1473 -0.0893
  218loPI   C6A 3484   6.282   0.143   8.098  0.1934 -0.1414  0.1925
  218loPI   C1B 3485   6.041  -0.570  10.143  0.0720 -0.0634  0.1167
  218loPI   C2B 3486   5.992  -0.650   9.755 -0.2962 -0.1810 -0.1288
  218loPI   C3B 3487   6.108  -0.787   9.431  0.1316  0.2133  0.1970
  218loPI   C4B 3488   5.999  -0.764   8.995 -0.0823 -0.1672  0.2738
  219loPI    C1 3489   8.807   7.251  10.792 -0.0121 -0.0399  0.0465
  219loPI    C2 3490   8.491   7.011  10.842  0.0666 -0.1037  0.2484
  219loPI    C3 3491   8.632   7.223  11.150  0.0947  0.0831  0.1090
  219loPI   PO4 3492   8.829   7.224  10.402  0.0654  0.2491  0.1979
  219loPI   GL1 3493   8.834   6.963  10.142  0.0957 -0.0008  0.0165
  219loPI   GL2 3494   9.168   6.832  10.091 -0.3132  0.0627 -0.0134
  219loPI   C1A 3495   8.792   7.189   9.753  0.2167  0.1718 -0.0833
  219loPI   C2A 3496   8.742   7.189   9.342  0.0757  0.1421  0.0020
  219loPI   C3A 3497   8.812   7.240   8.936 -0.2180  0.1167  0.2269
  219loPI   C4A 3498   9.072   7.033   8.666 -0.0936  0.0688  0.1144
  219loPI   C5A 3499   8.966   6.693   8.383 -0.0677 -0.0343 -0.2780
  219loPI   C6A 3500   8.803   6.467   8.011  0.1709 -0.1988  0.2168
  219loPI   C1B 3501   9.038   6.773   9.664  0.0670 -0.0939 -0.0984
  219loPI   C2B 3502   8.892   6.712   9.206  0.1791  0.0633 -0.2455
  219loPI   C3B 3503   8.770   6.522   8.814 -0.1142 -0.1317 -0.0788
  219loPI   C4B 3504   8.580   6.408   8.456  0.2489  0.0983 -0.0070
  220loPI    C1 3505  11.708   7.563  10.769  0.1425 -0.0431  0.0269
  220loPI    C2 3506  11.600   7.812  11.063  0.2208 -0.0220  0.0380
  220loPI    C3 3507  11.963   7.644  11.066  0.1889 -0.0919  0.0005
  220loPI   PO4 3508  11.587   7.680  10.530 -0.1767  0.0518 -0.0546
  220loPI   GL1 3509  11.345   7.458  10.240  0.0003  0.1723 -0.3277
  220loPI   GL2 3510  11.222   7.296  10.145 -0.1139 -0.3450 -0.1071
  220loPI   C1A 3511  11.551   7.562   9.843  0.0021  0.1244 -0.1200
  220loPI   C2A 3512  11.351   7.439   9.390 -0.1059 -0.1277 -0.0512
  220loPI   C3A 3513  11.419   7.383   8.906  0.1281 -0.0082 -0.1364
  220loPI   C4A 3514  11.469   7.543   8.541 -0.2621  0.1911  0.0470
  220loPI   C5A 3515  11.849   7.636   8.317 -0.0902 -0.0292  0.1977
  220loPI   C6A 3516  12.182   7.775   8.189  0.0897 -0.2099 -0.1463
  220loPI   C1B 3517  10.979   7.505   9.862 -0.0873 -0.0039  0.3005
  220loPI   C2B 3518  10.808   7.467   9.580  0.0365 -0.0997  0.2694
  220loPI   C3B 3519  10.878   7.562   9.162 -0.0278 -0.0780  0.1952
  220loPI   C4B 3520  11.003   7.592   8.723  0.0595  0.2321  0.0304
  221loPI    C1 3521   4.995   1.343  11.103 -0.1155 -0.2141  0.1481
  221loPI    C2 3522   4.617   1.452  11.179 -0.0245  0.1576  0.0858
  221loPI    C3 3523   4.903   1.521  11.450  0.0103 -0.0750  0.1107
  221loPI   PO4 3524   4.967   1.342  10.821  0.1907  0.0816 -0.1217
  221loPI   GL1 3525   5.142   1.516  10.437  0.0925  0.0895 -0.1511
  221loPI   GL2 3526   5.080   1.514  10.152  0.2827  0.0250 -0.1898
  221loPI   C1A 3527   5.522   1.375  10.341  0.0217  0.3329  0.1506
  221loPI   C2A 3528   5.742   1.211   9.992 -0.1528 -0.2669  0.2246
  221loPI   C3A 3529   5.808   1.151   9.642  0.0992  0.1343 -0.3038
  221loPI   C4A 3530   5.615   1.327   9.275  0.1963 -0.1389 -0.0718
  221loPI   C5A 3531   5.377   1.256   8.880 -0.0290  0.2682  0.2380
  221loPI   C6A 3532   5.503   1.507   8.488  0.0880 -0.2021 -0.0388
  221loPI   C1B 3533   4.982   1.528   9.701  0.0002 -0.4073 -0.0400
  221loPI   C2B 3534   4.935   1.442   9.239  0.2907 -0.0027 -0.0155
  221loPI   C3B 3535   4.863   1.363   8.808 -0.1971  0.2598 -0.0619
  221loPI   C4B 3536   5.106   1.220   8.444  0.0617  0.0821  0.0663
  222loPI    C1 3537  15.291   4.433  10.196 -0.2083 -0.0385 -0.0666
  222loPI    C2 3538  14.978   4.677  10.248 -0.0339  0.1729  0.0064
  222loPI    C3 3539  15.120   4.465  10.556 -0.1314  0.0427 -0.0371
  222loPI   PO4 3540  15.413   4.581  10.060 -0.2130 -0.2324  0.0221
  222loPI   GL1 3541  15.419   4.797   9.730  0.0271 -0.0112  0.2136
  222loPI   GL2 3542  15.175   5.005   9.690  0.0391 -0.1003  0.0620
  222loPI   C1A 3543  15.548   4.627   9.383 -0.0428 -0.1505 -0.3493
  222loPI   C2A 3544  15.517   4.650   9.052  0.2042 -0.1388  0.1181
  222loPI   C3A 3545  15.411   4.563   8.620  0.2592 -0.0818  0.0963
  222loPI   C4A 3546  15.008   4.592   8.404 -0.1904 -0.0430 -0.1878
  222loPI   C5A 3547  14.785   4.670   8.097 -0.1544 -0.1980  0.2881
  222loPI   C6A 3548  14.814   4.810   7.742  0.0385 -0.0002 -0.1560
  222loPI   C1B 3549  15.187   4.948   9.285  0.0136 -0.3024  0.1686
  222loPI   C2B 3550  15.172   4.983   8.844  0.2793  0.0366  0.0012
  222loPI   C3B 3551  15.173   5.094   8.471 -0.0243  0.1954 -0.0183
  222loPI   C4B 3552  15.009   5.132   8.148  0.0681 -0.0034 -0.0832
  223loPI    C1 3553  11.820   1.672  11.141  0.0954 -0.2205  0.0397
  223loPI    C2 3554  11.906   2.051  11.233  0.1237 -0.2362  0.0778
  223loPI    C3 3555  11.898   1.772  11.520 -0.2519 -0.1985  0.1092
  223loPI   PO4 3556  11.795   1.666  10.909  0.2318  0.1787  0.2747
  223loPI   GL1 3557  11.735   1.884  10.577 -0.0730  0.3231  0.2362
  223loPI   GL2 3558  11.924   1.780  10.359 -0.0872 -0.0986 -0.1469
  223loPI   C1A 3559  11.482   1.793  10.268  0.0263  0.0784  0.0400
  223loPI   C2A 3560  11.342   1.894   9.803 -0.0247 -0.1259  0.0397
  223loPI   C3A 3561  11.395   1.832   9.298  0.2910  0.3043 -0.4515
  223loPI   C4A 3562  11.471   1.677   8.869 -0.0503 -0.1258 -0.0117
  223loPI   C5A 3563  11.593   1.484   8.421 -0.0730  0.0423 -0.1899
  223loPI   C6A 3564  11.477   1.318   7.918 -0.0681  0.0180 -0.0916
  223loPI   C1B 3565  11.873   1.806   9.950  0.1798  0.2154 -0.1635
  223loPI   C2B 3566  11.787   1.849   9.599  0.0622  0.5416 -0.2814
  223loPI   C3B 3567  11.823   2.074   9.209  0.0287  0.0189 -0.0054
  223loPI   C4B 3568  11.768   2.099   8.804 -0.0646  0.2119 -0.0655
  224loPI    C1 3569  13.543   9.712  10.535  0.0554 -0.0419  0.1017
  224loPI    C2 3570  13.383   9.695  10.901 -0.1551 -0.1583  0.0061
  224loPI    C3 3571  13.390   9.368  10.671  0.1248 -0.1266 -0.0332
  224loPI   PO4 3572  13.374   9.882  10.391  0.5655 -0.3084 -0.5151
  224loPI   GL1 3573  13.287   9.988  10.062 -0.1608  0.2910 -0.1312
  224loPI   GL2 3574  12.984   9.844   9.976 -0.2060  0.3383  0.1514
  224loPI   C1A 3575  13.436   9.711   9.677 -0.0408  0.1024 -0.5367
  224loPI   C2A 3576  13.507   9.788   9.254 -0.1421 -0.3463  0.2950
  224loPI   C3A 3577  13.571   9.921   8.782 -0.1019 -0.2319  0.2169
  224loPI   C4A 3578  13.699   9.669   8.332  0.0979 -0.2007  0.2595
  224loPI   C5A 3579  13.664   9.810   7.900 -0.0559  0.2112 -0.0254
  224loPI   C6A 3580  13.835   9.891   7.553 -0.1184 -0.1614 -0.3482
  224loPI   C1B 3581  12.958   9.989   9.544  0.1153 -0.0635 -0.0918
  224loPI   C2B 3582  13.057   9.984   9.106 -0.1265 -0.1478 -0.2209
  224loPI   C3B 3583  13.035   9.960   8.696 -0.2045  0.0941 -0.0053
  224loPI   C4B 3584  13.194   9.845   8.363  0.2565  0.0339  0.0527
  225loPI    C1 3585   0.322  10.799  10.767 -0.1342 -0.1553 -0.2083
  225loPI    C2 3586   0.461  10.423  10.756  0.0459 -0.0878 -0.2780
  225loPI    C3 3587   0.468  10.629  11.099 -0.0621 -0.1510 -0.2376
  225loPI   PO4 3588   0.110  10.699  10.587  0.1747 -0.0197  0.2837
  225loPI   GL1 3589   0.197  10.771  10.087 -0.1753  0.0390  0.0607
  225loPI   GL2 3590  -0.020  10.522  10.119  0.2486 -0.1024 -0.0912
  225loPI   C1A 3591   0.150  10.936   9.557  0.1849 -0.1477 -0.1285
  225loPI   C2A 3592   0.149  11.109   9.096  0.3413  0.1402 -0.3893
  225loPI   C3A 3593   0.397  11.090   8.737 -0.0416  0.0962  0.1643
  225loPI   C4A 3594   0.270  10.861   8.460 -0.0406  0.0546 -0.1741
  225loPI   C5A 3595   0.507  10.548   8.345  0.1690 -0.0065  0.1141
  225loPI   C6A 3596   0.862  10.214   8.386  0.0945  0.2547  0.0214
  225loPI   C1B 3597  -0.243  10.686   9.756 -0.1306  0.0867 -0.0298
  225loPI   C2B 3598  -0.208  10.716   9.357  0.0272  0.2599  0.0701
  225loPI   C3B 3599  -0.109  10.705   8.956 -0.2161  0.1045  0.0502
  225loPI   C4B 3600  -0.210  10.664   8.508 -0.0960  0.2401 -0.3008
  226loPI    C1 3601  13.244  16.432  11.232 -0.0394  0.1185  0.0725
  226loPI    C2 3602  12.954  16.408  11.508  0.0487  0.1093  0.1648
  226loPI    C3 3603  13.043  16.089  11.282  0.0567  0.0810  0.2078
  226loPI   PO4 3604  13.154  16.623  11.046 -0.1015  0.3229  0.0376
  226loPI   GL1 3605  12.846  16.667  10.555  0.3636 -0.0348 -0.2756
  226loPI   GL2 3606  12.574  16.766  10.701 -0.4283  0.5827 -0.0753
  226loPI   C1A 3607  12.909  16.460  10.079 -0.3034  0.3027  0.0448
  226loPI   C2A 3608  13.016  16.460   9.723 -0.0298 -0.0434  0.2229
  226loPI   C3A 3609  12.908  16.476   9.232  0.2338 -0.0529  0.1820
  226loPI   C4A 3610  12.842  16.825   8.860  0.2288  0.1471 -0.0618
  226loPI   C5A 3611  12.574  17.177   8.639  0.1262 -0.1181 -0.3213
  226loPI   C6A 3612  12.260  17.421   8.675  0.2141  0.1048  0.0934
  226loPI   C1B 3613  12.463  16.793  10.296 -0.0793  0.1170 -0.1309
  226loPI   C2B 3614  12.464  16.801   9.904 -0.3263 -0.0891  0.0820
  226loPI   C3B 3615  12.333  17.050   9.474  0.3327 -0.0050 -0.0011
  226loPI   C4B 3616  12.265  17.120   9.079 -0.2403 -0.1264 -0.1244
  227loPI    C1 3617   5.973  14.321  11.028  0.0467 -0.0188 -0.0187
  227loPI    C2 3618   6.009  14.473  11.396  0.1408  0.0765 -0.0668
  227loPI    C3 3619   5.668  14.297  11.285  0.1537 -0.0589  0.1052
  227loPI   PO4 3620   6.198  14.474  10.938  0.0569 -0.1558  0.3996
  227loPI   GL1 3621   6.395  14.782  10.604 -0.2726  0.0679  0.4176
  227loPI   GL2 3622   6.064  14.710  10.542  0.1304 -0.3768  0.0831
  227loPI   C1A 3623   6.713  14.861  10.281 -0.1805 -0.1197 -0.1315
  227loPI   C2A 3624   6.764  14.865   9.841 -0.0707 -0.3302  0.0189
  227loPI   C3A 3625   6.790  14.960   9.429  0.3518  0.1014  0.0440
  227loPI   C4A 3626   6.702  14.786   8.990  0.0161 -0.1446  0.1148
  227loPI   C5A 3627   6.585  14.530   8.747  0.0050 -0.0828 -0.1160
  227loPI   C6A 3628   6.540  14.495   8.285 -0.1189  0.1143  0.1886
  227loPI   C1B 3629   6.292  14.621  10.128  0.0507 -0.1687 -0.0265
  227loPI   C2B 3630   6.408  14.491   9.781 -0.0099 -0.0923  0.1155
  227loPI   C3B 3631   6.463  14.583   9.422  0.0160 -0.2289 -0.1243
  227loPI   C4B 3632   6.273  14.381   9.105  0.0435 -0.2264  0.0256
  228loPI    C1 3633   3.013   4.867  10.597 -0.0219 -0.1127 -0.0467
  228loPI    C2 3634   3.087   4.474  10.580  0.1083 -0.0962  0.1116
  228loPI    C3 3635   2.715   4.605  10.648  0.0496 -0.1903 -0.0248
  228loPI   PO4 3636   3.110   4.937  10.363 -0.1279  0.1460  0.3003
  228loPI   GL1 3637   2.985   5.098  10.008 -0.1470  0.0872 -0.1083
  228loPI   GL2 3638   3.317   5.076   9.863  0.0812  0.0566 -0.0342
  228loPI   C1A 3639   2.899   5.296   9.602 -0.1418 -0.0528 -0.1442
  228loPI   C2A 3640   2.852   5.290   9.195  0.1392 -0.1325  0.0695
  228loPI   C3A 3641   2.815   5.295   8.804  0.1672  0.0255 -0.1593
  228loPI   C4A 3642   2.986   5.180   8.409 -0.0560 -0.2329  0.1337
  228loPI   C5A 3643   2.791   5.088   7.975  0.2322  0.2313  0.0256
  228loPI   C6A 3644   2.349   4.817   7.808 -0.0278  0.2002  0.1437
  228loPI   C1B 3645   3.343   5.052   9.400 -0.2187  0.1064  0.0567
  228loPI   C2B 3646   3.278   5.164   8.953 -0.0022  0.1368 -0.0426
  228loPI   C3B 3647   3.349   4.938   8.554 -0.0996  0.1442 -0.1560
  228loPI   C4B 3648   3.456   5.066   8.125  0.1665 -0.0021  0.2808
  229loPI    C1 3649  16.423   0.206  11.017 -0.2226 -0.0892 -0.0560
  229loPI    C2 3650  16.065   0.384  11.025 -0.0766  0.2090 -0.0260
  229loPI    C3 3651  16.232   0.256  11.365 -0.1091  0.1616 -0.0278
  229loPI   PO4 3652  16.388   0.075  10.778  0.0170 -0.0659  0.1671
  229loPI   GL1 3653  16.545   0.067  10.340  0.2620 -0.2270  0.0988
  229loPI   GL2 3654  16.716  -0.220  10.473 -0.2868  0.1537  0.2169
  229loPI   C1A 3655  16.513  -0.067   9.873  0.0470  0.4138  0.0318
  229loPI   C2A 3656  16.474  -0.134   9.413  0.0673 -0.1165  0.0645
  229loPI   C3A 3657  16.507  -0.086   8.921 -0.0465 -0.0080  0.0301
  229loPI   C4A 3658  16.613  -0.088   8.471 -0.3549 -0.1231 -0.1634
  229loPI   C5A 3659  17.020  -0.224   8.199 -0.2332 -0.0466  0.4188
  229loPI   C6A 3660  17.128  -0.598   8.158 -0.1084 -0.1364 -0.1167
  229loPI   C1B 3661  16.971  -0.192  10.046 -0.0578  0.0979 -0.1732
  229loPI   C2B 3662  16.942  -0.143   9.545  0.2372 -0.1644 -0.3774
  229loPI   C3B 3663  17.001  -0.270   9.171  0.1401 -0.3387  0.0661
  229loPI   C4B 3664  16.941  -0.413   8.713  0.0603 -0.1111  0.1263
  230loPI    C1 3665   4.261   1.928  10.758 -0.1526 -0.1244 -0.2799
  230loPI    C2 3666   4.224   2.323  10.802  0.2590 -0.1047 -0.0712
  230loPI    C3 3667   3.942   2.079  10.946  0.0990  0.1026 -0.0278
  230loPI   PO4 3668   4.275   1.886  10.481 -0.1029  0.1898 -0.1831
  230loPI   GL1 3669   4.200   1.582  10.250 -0.1593 -0.1838 -0.1638
  230loPI   GL2 3670   3.913   1.630  10.222  0.4712  0.1506 -0.0845
  230loPI   C1A 3671   4.203   1.600   9.777  0.0128 -0.0216  0.0358
  230loPI   C2A 3672   4.277   1.503   9.305  0.3959 -0.0082  0.2449
  230loPI   C3A 3673   4.404   1.354   8.990 -0.0636 -0.1250 -0.3318
  230loPI   C4A 3674   4.475   1.291   8.516 -0.0062 -0.2086  0.2407
  230loPI   C5A 3675   4.186   1.250   8.271 -0.1680 -0.0139 -0.0908
  230loPI   C6A 3676   3.795   1.313   8.393 -0.3615  0.0368 -0.2379
  230loPI   C1B 3677   3.748   1.547   9.898 -0.0285  0.2632 -0.0099
  230loPI   C2B 3678   3.492   1.231   9.682  0.1615  0.1725  0.0431
  230loPI   C3B 3679   3.566   1.203   9.261 -0.1489 -0.2136  0.1370
  230loPI   C4B 3680   3.561   1.069   8.860 -0.1293 -0.0155  0.1772
  231loPI    C1 3681   8.650  15.028  11.504 -0.0221 -0.0603 -0.0140
  231loPI    C2 3682   8.268  14.968  11.405 -0.1162  0.1274  0.2257
  231loPI    C3 3683   8.398  14.866  11.769  0.0378  0.1596  0.1801
  231loPI   PO4 3684   8.712  15.188  11.291 -0.0478  0.4617  0.3704
  231loPI   GL1 3685   8.446  15.482  11.059 -0.2108  0.1750 -0.0647
  231loPI   GL2 3686   8.238  15.812  10.892  0.1040  0.3221 -0.2839
  231loPI   C1A 3687   8.368  15.382  10.662  0.0979  0.2310 -0.2064
  231loPI   C2A 3688   8.393  15.539  10.240 -0.2923 -0.2823  0.1892
  231loPI   C3A 3689   8.423  15.601   9.819 -0.1174  0.0672 -0.1394
  231loPI   C4A 3690   8.460  15.553   9.437  0.2007 -0.1184 -0.0625
  231loPI   C5A 3691   8.409  15.511   8.960 -0.1711  0.0000 -0.0128
  231loPI   C6A 3692   8.359  15.086   8.695  0.2571  0.1214  0.0569
  231loPI   C1B 3693   8.311  15.976  10.502  0.1107  0.2107 -0.1012
  231loPI   C2B 3694   8.357  16.022  10.052  0.0806  0.0393  0.2568
  231loPI   C3B 3695   8.365  16.030   9.595  0.2225  0.1874 -0.2670
  231loPI   C4B 3696   8.280  16.034   9.206 -0.0787  0.2709  0.1587
  232loPI    C1 3697  13.640   4.579  10.413 -0.0424  0.0615 -0.1092
  232loPI    C2 3698  13.824   4.821  10.673  0.2043 -0.1324 -0.0993
  232loPI    C3 3699  13.710   4.455  10.787  0.0691 -0.1185 -0.1880
  232loPI   PO4 3700  13.802   4.639  10.235  0.0543 -0.0406 -0.0712
  232loPI   GL1 3701  13.656   4.631   9.896 -0.0397 -0.0226  0.0897
  232loPI   GL2 3702  13.655   4.928   9.846 -0.1863 -0.1814  0.0494
  232loPI   C1A 3703  13.606   4.459   9.461 -0.0266  0.0438 -0.2711
  232loPI   C2A 3704  13.486   4.409   9.050 -0.0165  0.0628 -0.3476
  232loPI   C3A 3705  13.514   4.543   8.724 -0.2014  0.0349  0.2548
  232loPI   C4A 3706  13.576   4.761   8.325 -0.1967  0.0363  0.1413
  232loPI   C5A 3707  13.662   4.943   7.976 -0.2503  0.0486 -0.2803
  232loPI   C6A 3708  14.055   5.084   7.758  0.0844 -0.2954 -0.2002
  232loPI   C1B 3709  13.800   5.038   9.426 -0.0638 -0.0044 -0.1140
  232loPI   C2B 3710  13.751   5.122   8.956  0.2788  0.1247 -0.2372
  232loPI   C3B 3711  13.753   5.226   8.540  0.1336 -0.1495  0.0665
  232loPI   C4B 3712  13.783   5.445   8.031  0.0394  0.1271  0.0143
  233loPI    C1 3713  13.813   7.013  10.501 -0.0641 -0.2134  0.0047
  233loPI    C2 3714  13.928   7.229  10.817 -0.0287 -0.0446 -0.1220
  233loPI    C3 3715  13.604   6.996  10.841 -0.0344 -0.0216  0.0338
  233loPI   PO4 3716  13.767   7.267  10.274  0.1240  0.3087  0.1201
  233loPI   GL1 3717  13.534   7.337   9.826 -0.2158  0.1238 -0.0651
  233loPI   GL2 3718  13.181   7.307   9.856 -0.1043 -0.1494  0.1301
  233loPI   C1A 3719  13.551   7.401   9.394 -0.4360 -0.0437 -0.0851
  233loPI   C2A 3720  13.581   7.460   9.007 -0.2255  0.0261 -0.2383
  233loPI   C3A 3721  13.624   7.547   8.582  0.2128 -0.0802 -0.1843
  233loPI   C4A 3722  13.751   7.520   8.170  0.2202 -0.1370 -0.0278
  233loPI   C5A 3723  14.020   7.866   8.055 -0.1298  0.0650  0.0683
  233loPI   C6A 3724  14.129   8.282   7.969 -0.3613 -0.1665 -0.2906
  233loPI   C1B 3725  13.073   7.243   9.356  0.1191 -0.0146 -0.1133
  233loPI   C2B 3726  12.966   7.331   8.983 -0.2099 -0.1820 -0.2942
  233loPI   C3B 3727  13.053   7.304   8.495  0.3394  0.1410 -0.0685
  233loPI   C4B 3728  12.872   7.406   8.081 -0.1239 -0.3541 -0.2476
  234loPI    C1 3729  15.152   0.734  10.899  0.1286 -0.3567  0.0411
  234loPI    C2 3730  14.948   0.546  11.187 -0.2115 -0.1214 -0.0404
  234loPI    C3 3731  15.029   0.936  11.222  0.0246 -0.1619 -0.1178
  234loPI   PO4 3732  14.959   0.663  10.574  0.0757 -0.0131  0.1591
  234loPI   GL1 3733  14.739   0.378  10.417  0.0446 -0.1116  0.3218
  234loPI   GL2 3734  14.816   0.058  10.510  0.3781 -0.3479  0.3733
  234loPI   C1A 3735  14.877   0.270  10.048 -0.1571  0.2315 -0.0400
  234loPI   C2A 3736  14.866   0.177   9.665  0.0267 -0.0395  0.1320
  234loPI   C3A 3737  14.915   0.161   9.200  0.0773  0.3035 -0.2924
  234loPI   C4A 3738  14.976   0.198   8.893  0.2384  0.1344 -0.0184
  234loPI   C5A 3739  14.794   0.083   8.504  0.0632  0.0264  0.3373
  234loPI   C6A 3740  14.728  -0.323   8.351 -0.0930  0.0913  0.1140
  234loPI   C1B 3741  14.545  -0.063  10.276 -0.2664  0.1967  0.0640
  234loPI   C2B 3742  14.549  -0.112   9.894 -0.0655  0.0417 -0.0331
  234loPI   C3B 3743  14.530  -0.192   9.412  0.2264  0.0468  0.0091
  234loPI   C4B 3744  14.550  -0.232   8.985  0.0011 -0.1962  0.0369
  235loPI    C1 3745   5.549   6.976  10.650 -0.0920 -0.0813 -0.1350
  235loPI    C2 3746   5.447   6.811  11.001  0.0208 -0.1712 -0.1439
  235loPI    C3 3747   5.696   7.124  10.991 -0.0865 -0.0850 -0.1358
  235loPI   PO4 3748   5.355   6.883  10.488  0.2359 -0.2593 -0.0784
  235loPI   GL1 3749   5.504   6.959  10.082 -0.0443 -0.2975  0.0778
  235loPI   GL2 3750   5.186   6.910   9.981  0.2268  0.2159 -0.2427
  235loPI   C1A 3751   5.458   7.132   9.647 -0.0071  0.1348 -0.2156
  235loPI   C2A 3752   5.486   7.135   9.245  0.1864  0.0335  0.0078
  235loPI   C3A 3753   5.428   7.094   8.856  0.2332 -0.4013 -0.2338
  235loPI   C4A 3754   5.561   7.020   8.515  0.2477 -0.2611  0.2055
  235loPI   C5A 3755   5.873   7.097   8.116 -0.1771  0.0697  0.3265
  235loPI   C6A 3756   6.170   7.323   7.844  0.0410 -0.0803  0.0262
  235loPI   C1B 3757   5.045   6.838   9.576 -0.2324 -0.0310 -0.1574
  235loPI   C2B 3758   4.940   6.885   9.164  0.0990  0.1390 -0.1031
  235loPI   C3B 3759   4.937   6.971   8.795  0.0076  0.0604 -0.2291
  235loPI   C4B 3760   4.686   7.099   8.586 -0.0275 -0.2055  0.3238
  236loPI    C1 3761  17.651  14.557  11.271  0.0906  0.2790 -0.1416
  236loPI    C2 3762  17.906  14.798  11.462  0.0220  0.1834  0.0743
  236loPI    C3 3763  17.585  14.656  11.653 -0.0297  0.0582 -0.1034
  236loPI   PO4 3764  17.784  14.371  11.100  0.2261  0.1332 -0.2893
  236loPI   GL1 3765  17.721  14.312  10.667  0.1513 -0.2005  0.1036
  236loPI   GL2 3766  17.785  14.596  10.404 -0.1228 -0.0635  0.0849
  236loPI   C1A 3767  17.543  14.147  10.231  0.1688 -0.0238  0.1985
  236loPI   C2A 3768  17.615  14.057   9.846 -0.2756  0.2125 -0.0263
  236loPI   C3A 3769  17.552  14.052   9.353 -0.0015  0.0885 -0.2057
  236loPI   C4A 3770  17.512  14.105   8.844 -0.0955 -0.3394 -0.1212
  236loPI   C5A 3771  17.309  14.325   8.465  0.2981 -0.0625 -0.2392
  236loPI   C6A 3772  17.077  14.618   8.216  0.0305 -0.0743  0.0072
  236loPI   C1B 3773  17.797  14.526  10.007  0.0637 -0.0698  0.2040
  236loPI   C2B 3774  17.883  14.458   9.571  0.0957  0.1543  0.1512
  236loPI   C3B 3775  17.832  14.442   9.106  0.0843  0.2365 -0.1539
  236loPI   C4B 3776  17.757  14.615   8.696  0.3018  0.1501 -0.0745
  237loPI    C1 3777  16.862   6.058  10.589 -0.2364 -0.0475 -0.0709
  237loPI    C2 3778  16.593   6.277  10.788  0.1266  0.2538  0.1011
  237loPI    C3 3779  16.801   5.995  10.980  0.1020  0.1819  0.0228
  237loPI   PO4 3780  16.983   6.218  10.417  0.0825 -0.0572 -0.1136
  237loPI   GL1 3781  16.875   6.393  10.112  0.1116 -0.3168  0.3817
  237loPI   GL2 3782  16.694   6.227   9.889  0.1977 -0.1426 -0.0945
  237loPI   C1A 3783  17.022   6.551   9.699  0.3300 -0.0446 -0.0972
  237loPI   C2A 3784  17.005   6.595   9.306  0.1462 -0.0373  0.0845
  237loPI   C3A 3785  17.126   6.712   8.938 -0.0691 -0.0919  0.2584
  237loPI   C4A 3786  17.230   6.735   8.504  0.1524  0.0160  0.3432
  237loPI   C5A 3787  17.397   7.160   8.279 -0.0010 -0.1286  0.1545
  237loPI   C6A 3788  17.467   7.421   8.165  0.2231 -0.2614  0.0091
  237loPI   C1B 3789  16.868   6.146   9.463 -0.1147 -0.1035  0.0797
  237loPI   C2B 3790  16.886   6.086   8.986  0.0613 -0.1266 -0.1287
  237loPI   C3B 3791  16.928   6.297   8.651 -0.0256  0.1056 -0.1921
  237loPI   C4B 3792  16.825   6.561   8.268 -0.0227 -0.2101 -0.4206
  238loPI    C1 3793  10.507   1.356  11.372 -0.0449 -0.0140  0.0440
  238loPI    C2 3794  10.752   1.348  11.688  0.1431 -0.0757 -0.1015
  238loPI    C3 3795  10.624   1.698  11.543 -0.1904 -0.0548  0.2284
  238loPI   PO4 3796  10.577   1.141  11.269  0.2598  0.1063 -0.1217
  238loPI   GL1 3797  10.750   0.748  11.144  0.3779  0.0503  0.0853
  238loPI   GL2 3798  11.051   0.652  11.078 -0.2516  0.0430  0.1719
  238loPI   C1A 3799  10.707   0.789  10.718  0.0401 -0.1350 -0.0651
  238loPI   C2A 3800  10.838   0.713  10.303  0.3354  0.0696 -0.2403
  238loPI   C3A 3801  10.956   0.558   9.915 -0.3152  0.0322 -0.0301
  238loPI   C4A 3802  10.962   0.510   9.500  0.3567  0.2920 -0.1147
  238loPI   C5A 3803  10.748   0.100   9.229 -0.2988 -0.2282 -0.0628
  238loPI   C6A 3804  10.765  -0.184   8.874 -0.1835  0.1455 -0.2118
  238loPI   C1B 3805  11.143   0.552  10.711 -0.0933 -0.1916 -0.1948
  238loPI   C2B 3806  11.264   0.411  10.335 -0.0826  0.3476 -0.1522
  238loPI   C3B 3807  11.448   0.417   9.917  0.0111  0.1153 -0.1294
  238loPI   C4B 3808  11.466   0.490   9.416  0.1114 -0.3498  0.1213
  239loPI    C1 3809  11.597  11.196  10.754  0.1309 -0.1388 -0.2642
  239loPI    C2 3810  11.946  11.390  10.720  0.0294  0.0974  0.0026
  239loPI    C3 3811  11.897  11.114  11.006  0.0558 -0.0683 -0.1509
  239loPI   PO4 3812  11.441  11.342  10.493 -0.4145  0.0647  0.0159
  239loPI   GL1 3813  11.401  11.102  10.071 -0.0320 -0.0581 -0.2311
  239loPI   GL2 3814  11.486  10.860  10.000 -0.0997  0.1722  0.0955
  239loPI   C1A 3815  11.013  11.288   9.924 -0.1900 -0.0761  0.1751
  239loPI   C2A 3816  10.856  11.248   9.452 -0.1497  0.0305 -0.2400
  239loPI   C3A 3817  10.859  11.124   9.109 -0.0514 -0.0152 -0.1607
  239loPI   C4A 3818  10.880  10.838   8.731 -0.4424  0.2910 -0.1727
  239loPI   C5A 3819  11.117  10.493   8.553  0.3565 -0.0274 -0.0763
  239loPI   C6A 3820  11.467  10.166   8.527  0.3069 -0.0726 -0.0381
  239loPI   C1B 3821  11.737  10.896   9.646 -0.2756  0.1241  0.2601
  239loPI   C2B 3822  11.768  10.872   9.243  0.1423 -0.1048  0.2878
  239loPI   C3B 3823  11.784  11.058   8.878 -0.0115 -0.1899 -0.3449
  239loPI   C4B 3824  11.936  10.987   8.494  0.0611  0.2989 -0.0377
  240loPI    C1 3825   9.406  12.181  10.928  0.0840  0.0185 -0.0130
  240loPI    C2 3826   9.181  12.432  11.143  0.1054  0.1786 -0.1757
  240loPI    C3 3827   9.580  12.460  11.156  0.1164 -0.0464  0.0423
  240loPI   PO4 3828   9.215  12.138  10.728  0.0485 -0.1573 -0.2133
  240loPI   GL1 3829   9.134  12.047  10.372 -0.0337 -0.1454  0.0615
  240loPI   GL2 3830   8.999  11.813  10.271  0.0584 -0.2228 -0.0615
  240loPI   C1A 3831   9.276  12.062   9.932  0.1080  0.2026  0.3275
  240loPI   C2A 3832   9.296  12.185   9.546  0.0805  0.1752 -0.0297
  240loPI   C3A 3833   9.226  12.152   9.115  0.1110 -0.2473 -0.1014
  240loPI   C4A 3834   9.102  12.217   8.726  0.3321  0.2596 -0.2020
  240loPI   C5A 3835   8.814  12.095   8.469 -0.1193 -0.0634  0.0451
  240loPI   C6A 3836   8.369  11.963   8.343 -0.2106  0.1307 -0.0274
  240loPI   C1B 3837   8.974  11.682   9.757  0.1036 -0.1528  0.1071
  240loPI   C2B 3838   8.913  11.788   9.335  0.0282  0.3248 -0.1120
  240loPI   C3B 3839   8.875  11.810   8.908  0.0371 -0.0594  0.0352
  240loPI   C4B 3840   8.745  11.641   8.537  0.3242 -0.0867  0.0173
  241loPI    C1 3841   0.860  15.374  11.202  0.0287  0.0158  0.1616
  241loPI    C2 3842   0.553  15.118  11.222 -0.0362  0.0747 -0.0466
  241loPI    C3 3843   0.519  15.485  11.379  0.0466 -0.0314  0.2260
  241loPI   PO4 3844   1.054  15.175  10.955  0.0262  0.3064 -0.1431
  241loPI   GL1 3845   1.030  15.135  10.469 -0.0915  0.0641  0.0993
  241loPI   GL2 3846   1.329  15.110  10.532 -0.2492 -0.0157  0.0047
  241loPI   C1A 3847   1.072  15.277   9.945 -0.2259  0.2375  0.0589
  241loPI   C2A 3848   1.064  15.235   9.458  0.1170 -0.0132  0.0222
  241loPI   C3A 3849   0.868  15.057   9.103  0.1096  0.0239  0.2307
  241loPI   C4A 3850   0.928  15.011   8.699  0.3700 -0.0216 -0.2919
  241loPI   C5A 3851   1.289  15.047   8.421  0.4097 -0.0150 -0.3846
  241loPI   C6A 3852   1.590  14.766   8.137 -0.0213  0.0040  0.1472
  241loPI   C1B 3853   1.483  15.116  10.173  0.2208 -0.0369  0.0415
  241loPI   C2B 3854   1.513  15.240   9.691 -0.0548 -0.1226 -0.0102
  241loPI   C3B 3855   1.539  15.154   9.354  0.1163  0.0631  0.2064
  241loPI   C4B 3856   1.326  15.076   8.995  0.2830 -0.1389 -0.0855
  242loPI    C1 3857   5.823   5.500  10.254  0.0365  0.0603 -0.0698
  242loPI    C2 3858   5.732   5.797  10.506  0.0445  0.1222 -0.1396
  242loPI    C3 3859   5.477   5.697  10.215 -0.1026 -0.1501  0.0777
  242loPI   PO4 3860   6.091   5.506  10.303  0.2083  0.1837  0.0097
  242loPI   GL1 3861   6.300   5.644   9.901 -0.0720  0.2194  0.1164
  242loPI   GL2 3862   6.055   5.366   9.800  0.1563  0.1928  0.1052
  242loPI   C1A 3863   6.132   5.754   9.486  0.0190  0.2699 -0.0958
  242loPI   C2A 3864   6.138   5.828   9.061  0.1545  0.2356  0.2557
  242loPI   C3A 3865   6.099   5.761   8.643 -0.2445 -0.1987  0.0516
  242loPI   C4A 3866   6.353   5.914   8.280  0.2070 -0.0187  0.0736
  242loPI   C5A 3867   6.410   6.163   7.913 -0.1388  0.2775  0.6348
  242loPI   C6A 3868   6.157   6.350   7.679 -0.1050 -0.0616 -0.0836
  242loPI   C1B 3869   5.717   5.339   9.436  0.3212 -0.0045  0.0559
  242loPI   C2B 3870   5.792   5.470   9.055 -0.2328 -0.1722  0.0714
  242loPI   C3B 3871   5.626   5.510   8.567 -0.0778  0.2945 -0.2029
  242loPI   C4B 3872   5.788   5.617   8.268 -0.1280 -0.1359 -0.0744
  243loPI    C1 3873   4.473  10.623  11.290 -0.2736  0.1669 -0.0352
  243loPI    C2 3874   4.702  10.699  11.609  0.0376 -0.1297 -0.1810
  243loPI    C3 3875   4.309  10.773  11.622  0.0646 -0.0363  0.2305
  243loPI   PO4 3876   4.712  10.408  11.167  0.0066  0.0323 -0.1827
  243loPI   GL1 3877   4.805  10.088  10.753 -0.1615 -0.0699  0.2173
  243loPI   GL2 3878   4.497  10.085  10.509  0.0219 -0.1004 -0.1239
  243loPI   C1A 3879   4.930  10.146  10.391 -0.0540  0.2777  0.0696
  243loPI   C2A 3880   4.994  10.278   9.909  0.1104 -0.1788 -0.1230
  243loPI   C3A 3881   5.014  10.317   9.490  0.0024  0.3693  0.1522
  243loPI   C4A 3882   4.990  10.217   9.089 -0.1164  0.0769  0.1420
  243loPI   C5A 3883   5.109  10.120   8.649  0.1409  0.0083  0.0197
  243loPI   C6A 3884   5.453   9.812   8.350 -0.0744 -0.2149  0.0076
  243loPI   C1B 3885   4.500  10.345  10.141  0.1110  0.2443  0.0790
  243loPI   C2B 3886   4.480  10.461   9.706  0.1491 -0.2298 -0.1884
  243loPI   C3B 3887   4.491  10.383   9.240  0.0794 -0.1832  0.0622
  243loPI   C4B 3888   4.577  10.443   8.716  0.3755 -0.2860  0.2246
  244loPI    C1 3889  17.612   8.070  10.592  0.0081 -0.1963 -0.0969
  244loPI    C2 3890  17.934   8.200  10.791 -0.1466  0.1414 -0.0596
  244loPI    C3 3891  17.602   8.101  10.990 -0.1012 -0.1116 -0.1059
  244loPI   PO4 3892  17.617   8.277  10.376  0.1101 -0.2780  0.2902
  244loPI   GL1 3893  17.650   8.216  10.033 -0.2433 -0.0561  0.1235
  244loPI   GL2 3894  17.341   8.406   9.895  0.1670 -0.4047  0.0487
  244loPI   C1A 3895  17.474   7.941   9.694 -0.0092 -0.1175 -0.1060
  244loPI   C2A 3896  17.492   7.947   9.303  0.1934  0.1448  0.1191
  244loPI   C3A 3897  17.632   8.025   8.868 -0.0806  0.1433 -0.3034
  244loPI   C4A 3898  17.642   7.989   8.465  0.0980 -0.0443  0.0232
  244loPI   C5A 3899  17.572   8.083   8.036 -0.1416 -0.1619  0.3906
  244loPI   C6A 3900  17.553   8.415   7.712 -0.2222  0.1116  0.0228
  244loPI   C1B 3901  17.409   8.479   9.506  0.0771  0.2726  0.4387
  244loPI   C2B 3902  17.369   8.401   9.071 -0.1690  0.2755  0.2231
  244loPI   C3B 3903  17.537   8.543   8.636  0.1532 -0.2469 -0.4523
  244loPI   C4B 3904  17.511   8.545   8.250  0.0762 -0.1951 -0.0909
  245loPI    C1 3905  14.729  11.906  11.100 -0.2044  0.0501  0.0369
  245loPI    C2 3906  14.604  12.061  11.447  0.0289 -0.1644  0.2201
  245loPI    C3 3907  14.961  11.881  11.425  0.0681 -0.0483 -0.1614
  245loPI   PO4 3908  14.827  12.149  10.924 -0.1264 -0.0473 -0.0679
  245loPI   GL1 3909  15.242  12.326  10.710  0.0748  0.1455 -0.0402
  245loPI   GL2 3910  15.016  12.566  10.628 -0.3488  0.2074 -0.1666
  245loPI   C1A 3911  15.251  12.301  10.294 -0.0869  0.2141 -0.0252
  245loPI   C2A 3912  15.336  12.474   9.894  0.2490 -0.0730  0.1273
  245loPI   C3A 3913  15.553  12.549   9.487 -0.2658 -0.0945  0.2182
  245loPI   C4A 3914  15.755  12.661   9.066  0.1706  0.0030 -0.0227
  245loPI   C5A 3915  15.706  12.684   8.600 -0.3148 -0.1976 -0.1784
  245loPI   C6A 3916  15.918  13.077   8.523 -0.2861 -0.1333 -0.2227
  245loPI   C1B 3917  14.891  12.612  10.130 -0.0456 -0.1442  0.0909
  245loPI   C2B 3918  14.883  12.638   9.737  0.1462 -0.2291  0.2469
  245loPI   C3B 3919  15.074  12.676   9.359 -0.2435  0.0358  0.0142
  245loPI   C4B 3920  15.274  12.715   8.940  0.0278  0.0153  0.0246
  246loPI    C1 3921   3.656   2.543  10.753  0.3922  0.1662 -0.1347
  246loPI    C2 3922   3.946   2.609  11.019  0.3111  0.1073 -0.0313
  246loPI    C3 3923   3.603   2.440  11.135  0.1894  0.2846 -0.1293
  246loPI   PO4 3924   3.785   2.696  10.579  0.3140  0.2011 -0.0336
  246loPI   GL1 3925   3.684   2.664  10.186 -0.1189  0.0790 -0.2419
  246loPI   GL2 3926   3.681   2.430   9.997  0.2852 -0.3130 -0.3871
  246loPI   C1A 3927   3.720   2.888   9.876  0.1226  0.0252  0.1497
  246loPI   C2A 3928   3.630   3.083   9.488 -0.2745  0.3654  0.2298
  246loPI   C3A 3929   3.596   3.076   9.014  0.0200 -0.0317  0.0564
  246loPI   C4A 3930   3.566   3.014   8.529  0.0987 -0.0784 -0.2088
  246loPI   C5A 3931   3.301   3.245   8.202  0.0026 -0.1569  0.0252
  246loPI   C6A 3932   2.802   3.312   8.245 -0.0564 -0.2050 -0.3125
  246loPI   C1B 3933   3.620   2.442   9.551 -0.1034  0.0546  0.0344
  246loPI   C2B 3934   3.553   2.215   9.174 -0.1035 -0.1255 -0.0594
  246loPI   C3B 3935   3.705   2.071   8.798 -0.0633  0.1197  0.0807
  246loPI   C4B 3936   3.960   2.048   8.430 -0.1602 -0.1314 -0.0352
  247loPI    C1 3937  12.731  15.690  11.453  0.1833  0.2622 -0.0536
  247loPI    C2 3938  12.722  15.988  11.720  0.0169  0.0429  0.1906
  247loPI    C3 3939  13.033  15.737  11.711  0.1960  0.2684 -0.0696
  247loPI   PO4 3940  12.707  15.747  11.115 -0.3060  0.1694 -0.2099
  247loPI   GL1 3941  12.862  15.821  10.698  0.0517  0.1407 -0.0505
  247loPI   GL2 3942  12.784  15.617  10.616  0.0432  0.1669  0.2950
  247loPI   C1A 3943  12.802  16.016  10.277 -0.0028 -0.2079 -0.0406
  247loPI   C2A 3944  12.892  15.938   9.799  0.1249  0.1186  0.0577
  247loPI   C3A 3945  13.062  16.008   9.507 -0.1935  0.2387  0.2570
  247loPI   C4A 3946  13.175  15.946   9.033  0.4398  0.1481  0.0160
  247loPI   C5A 3947  13.313  15.968   8.613 -0.2288 -0.1250  0.0780
  247loPI   C6A 3948  13.303  15.924   8.193  0.0582 -0.0973  0.1549
  247loPI   C1B 3949  12.868  15.469  10.200 -0.2161 -0.2096 -0.2212
  247loPI   C2B 3950  12.904  15.446   9.748  0.1374 -0.1060 -0.1323
  247loPI   C3B 3951  12.785  15.584   9.281  0.0875 -0.0762 -0.0177
  247loPI   C4B 3952  12.692  15.510   9.003  0.0663 -0.0026 -0.2550
  248loPI    C1 3953  16.332   4.466  10.085  0.0133  0.1813 -0.1286
  248loPI    C2 3954  15.993   4.637  10.211 -0.0417 -0.0511  0.0452
  248loPI    C3 3955  16.346   4.777  10.336 -0.0905 -0.1503  0.3007
  248loPI   PO4 3956  16.292   4.230  10.091  0.1036 -0.0313  0.2994
  248loPI   GL1 3957  16.181   3.891   9.799 -0.1850 -0.0849 -0.0564
  248loPI   GL2 3958  15.955   3.897   9.888 -0.1339 -0.1168 -0.1287
  248loPI   C1A 3959  16.311   3.951   9.406 -0.1215 -0.1042 -0.1233
  248loPI   C2A 3960  16.418   3.850   8.992 -0.0436 -0.0190 -0.2188
  248loPI   C3A 3961  16.344   4.060   8.674  0.0686 -0.0826 -0.1480
  248loPI   C4A 3962  16.364   4.024   8.209 -0.0099 -0.1919  0.1243
  248loPI   C5A 3963  16.361   3.863   7.796  0.3283  0.2121 -0.1277
  248loPI   C6A 3964  16.663   4.019   7.557 -0.0248 -0.0796  0.0586
  248loPI   C1B 3965  15.703   3.712   9.617  0.1938 -0.0044  0.0761
  248loPI   C2B 3966  15.550   3.676   9.171 -0.4972 -0.1407 -0.1981
  248loPI   C3B 3967  15.552   3.717   8.689  0.0515  0.1502 -0.2560
  248loPI   C4B 3968  15.669   3.437   8.291  0.1442 -0.0453  0.2982
  249loPI    C1 3969   0.676   8.306  10.610  0.1075  0.1856  0.1642
  249loPI    C2 3970   0.998   8.135  10.774  0.0956 -0.0603 -0.0608
  249loPI    C3 3971   0.656   7.930  10.746 -0.0937  0.2100  0.2056
  249loPI   PO4 3972   0.735   8.369  10.434 -0.1180 -0.0452  0.0895
  249loPI   GL1 3973   0.683   8.727  10.190 -0.2857  0.2552 -0.1514
  249loPI   GL2 3974   0.453   8.858  10.010  0.1035  0.0249  0.2023
  249loPI   C1A 3975   0.804   8.526   9.785 -0.1033  0.2669  0.2834
  249loPI   C2A 3976   0.828   8.483   9.459  0.0555  0.3071  0.1072
  249loPI   C3A 3977   0.841   8.507   9.043  0.0861 -0.3976  0.2225
  249loPI   C4A 3978   1.128   8.485   8.713  0.2062  0.1651 -0.0606
  249loPI   C5A 3979   1.307   8.709   8.388 -0.0700 -0.1459  0.4231
  249loPI   C6A 3980   1.212   9.188   8.207  0.2339  0.2382  0.1395
  249loPI   C1B 3981   0.422   8.851   9.576  0.1052  0.1814  0.0855
  249loPI   C2B 3982   0.408   8.828   9.079 -0.1337 -0.1501 -0.0802
  249loPI   C3B 3983   0.658   8.905   8.708  0.1168 -0.2672 -0.0397
  249loPI   C4B 3984   0.725   9.099   8.337 -0.0457  0.2189 -0.0251
  250loPI    C1 3985  16.023   2.305  10.533  0.0685 -0.1103  0.3440
  250loPI    C2 3986  16.069   2.547  10.848 -0.0385 -0.0146  0.2867
  250loPI    C3 3987  15.832   2.226  10.876 -0.0300 -0.0187  0.3109
  250loPI   PO4 3988  16.353   2.265  10.418 -0.0010  0.1053  0.0208
  250loPI   GL1 3989  16.570   2.150  10.100 -0.0788 -0.1880  0.0886
  250loPI   GL2 3990  16.459   1.852  10.024  0.2260  0.2604  0.0311
  250loPI   C1A 3991  16.747   2.223   9.771 -0.0912 -0.2891 -0.3074
  250loPI   C2A 3992  16.679   2.187   9.333  0.2078  0.1114  0.0583
  250loPI   C3A 3993  16.720   2.202   8.882  0.0919  0.2852 -0.1238
  250loPI   C4A 3994  16.829   2.269   8.397  0.1925 -0.2719  0.3077
  250loPI   C5A 3995  17.042   2.048   8.128  0.1620 -0.0480 -0.0265
  250loPI   C6A 3996  17.126   1.680   8.025 -0.1084 -0.0390  0.0981
  250loPI   C1B 3997  16.283   1.799   9.639 -0.0726  0.0954 -0.0283
  250loPI   C2B 3998  16.265   1.857   9.272 -0.0417  0.3797 -0.2096
  250loPI   C3B 3999  16.400   1.754   8.843 -0.1257 -0.1106 -0.0823
  250loPI   C4B 4000  16.474   2.000   8.544 -0.1631 -0.0203 -0.2707
  251loPI    C1 4001  12.695   0.423  10.903  0.4280  0.0575  0.0704
  251loPI    C2 4002  12.707   0.599  11.262 -0.1738  0.1637  0.0482
  251loPI    C3 4003  12.488   0.269  11.208  0.0722  0.0331 -0.1782
  251loPI   PO4 4004  12.717   0.662  10.758  0.3325 -0.2643 -0.1035
  251loPI   GL1 4005  13.004   0.799  10.443 -0.0831  0.2677  0.2552
  251loPI   GL2 4006  13.138   1.037  10.387 -0.5431  0.0050 -0.0656
  251loPI   C1A 4007  12.974   0.735  10.016  0.0814  0.1027 -0.3104
  251loPI   C2A 4008  12.981   0.668   9.605  0.0559 -0.2209  0.0723
  251loPI   C3A 4009  12.882   0.489   9.235  0.4087 -0.2344 -0.3743
  251loPI   C4A 4010  12.878   0.605   8.780 -0.1120  0.1360  0.2858
  251loPI   C5A 4011  12.766   0.404   8.369  0.1923 -0.2982 -0.0592
  251loPI   C6A 4012  12.722  -0.096   8.379  0.0425 -0.1726  0.1165
  251loPI   C1B 4013  13.061   1.248   9.938  0.2558 -0.0850 -0.3009
  251loPI   C2B 4014  13.035   1.172   9.522  0.0204 -0.0279  0.3040
  251loPI   C3B 4015  13.143   0.987   9.111  0.0293  0.0620 -0.1020
  251loPI   C4B 4016  13.180   1.028   8.666 -0.0473 -0.1295 -0.4158
  252loPI    C1 4017   0.274  11.150  11.137 -0.3197  0.1650 -0.0621
  252loPI    C2 4018   0.538  11.412  11.286 -0.1204  0.0635 -0.2317
  252loPI    C3 4019   0.369  11.140  11.526 -0.0200  0.0858 -0.1348
  252loPI   PO4 4020   0.276  11.293  10.843 -0.4871  0.1823  0.3346
  252loPI   GL1 4021   0.416  11.212  10.431 -0.0432 -0.1363  0.3052
  252loPI   GL2 4022   0.668  11.266  10.422 -0.1386  0.0504  0.1385
  252loPI   C1A 4023   0.357  11.279   9.999  0.2335 -0.3973 -0.0249
  252loPI   C2A 4024   0.298  11.366   9.583  0.0550 -0.1305 -0.0720
  252loPI   C3A 4025   0.300  11.618   9.262  0.0098  0.2319  0.2409
  252loPI   C4A 4026   0.177  11.707   8.799  0.1422 -0.0496 -0.1329
  252loPI   C5A 4027  -0.126  11.881   8.510  0.1723 -0.0206  0.2675
  252loPI   C6A 4028  -0.507  11.950   8.298 -0.0630 -0.3095 -0.0657
  252loPI   C1B 4029   0.811  11.455  10.082  0.1117 -0.2430  0.2496
  252loPI   C2B 4030   0.774  11.487   9.678  0.0468 -0.2322 -0.2670
  252loPI   C3B 4031   0.800  11.507   9.311 -0.0154 -0.1243 -0.2975
  252loPI   C4B 4032   0.684  11.658   8.937  0.0496  0.1779 -0.4679
  253loPI    C1 4033   6.666   4.707  10.518  0.0501  0.2534  0.0183
  253loPI    C2 4034   7.065   4.713  10.485  0.0576 -0.2032 -0.0312
  253loPI    C3 4035   6.895   4.676  10.845  0.0452  0.4681  0.0436
  253loPI   PO4 4036   6.656   4.627  10.191 -0.0217 -0.0947 -0.2524
  253loPI   GL1 4037   7.025   4.758   9.923  0.3292 -0.1455 -0.0646
  253loPI   GL2 4038   7.034   4.386   9.875  0.1098 -0.0115  0.0616
  253loPI   C1A 4039   6.908   4.879   9.558 -0.0905 -0.0502 -0.0472
  253loPI   C2A 4040   6.928   4.889   9.102  0.1410  0.1177  0.2602
  253loPI   C3A 4041   6.911   4.676   8.626  0.1313  0.2922  0.1087
  253loPI   C4A 4042   6.849   4.722   8.252 -0.1752  0.3763 -0.2238
  253loPI   C5A 4043   6.633   4.984   8.045  0.0563  0.2680  0.0829
  253loPI   C6A 4044   6.271   4.953   7.728 -0.1417 -0.0941  0.1787
  253loPI   C1B 4045   6.940   4.401   9.488  0.2303 -0.3375 -0.0005
  253loPI   C2B 4046   6.914   4.332   9.051  0.0338 -0.1197 -0.0282
  253loPI   C3B 4047   6.851   4.167   8.684 -0.0253 -0.1269  0.1227
  253loPI   C4B 4048   6.917   4.044   8.276  0.3424  0.1029  0.2416
  254loPI    C1 4049  13.800   5.951  10.782 -0.1593 -0.0226  0.0619
  254loPI    C2 4050  13.590   5.648  10.936 -0.0520 -0.1072  0.0430
  254loPI    C3 4051  13.969   5.707  11.050 -0.1054  0.0837  0.1256
  254loPI   PO4 4052  13.784   5.958  10.488  0.1843  0.1674 -0.1869
  254loPI   GL1 4053  13.545   6.100  10.130  0.3350  0.0448 -0.1007
  254loPI   GL2 4054  13.794   6.342  10.146 -0.2405  0.1074  0.2563
  254loPI   C1A 4055  13.589   5.882   9.694  0.4115  0.0629 -0.0121
  254loPI   C2A 4056  13.549   5.853   9.250  0.0228 -0.0615 -0.2568
  254loPI   C3A 4057  13.557   6.015   8.767 -0.0306  0.0262  0.0031
  254loPI   C4A 4058  13.602   6.188   8.349  0.1364  0.0838 -0.0509
  254loPI   C5A 4059  13.566   6.065   8.029 -0.1650 -0.2036 -0.2243
  254loPI   C6A 4060  13.679   6.345   7.641 -0.2452 -0.0898  0.1904
  254loPI   C1B 4061  13.779   6.408   9.737  0.1436 -0.0878  0.2102
  254loPI   C2B 4062  13.698   6.376   9.335 -0.0621  0.0753 -0.2337
  254loPI   C3B 4063  13.667   6.632   9.019  0.1208  0.1758 -0.1507
  254loPI   C4B 4064  13.584   6.602   8.662 -0.0023  0.0105 -0.1115
  255loPI    C1 4065   8.575  10.496  10.972  0.0799 -0.2013 -0.3060
  255loPI    C2 4066   8.349  10.342  11.264 -0.0506  0.0273 -0.2842
  255loPI    C3 4067   8.739  10.254  11.246 -0.0175  0.0966  0.0230
  255loPI   PO4 4068   8.536  10.453  10.786 -0.0907 -0.1692 -0.0663
  255loPI   GL1 4069   8.821  10.590  10.478 -0.0511  0.0787 -0.0160
  255loPI   GL2 4070   8.974  10.912  10.441  0.0281  0.0569 -0.0720
  255loPI   C1A 4071   8.753  10.398  10.129 -0.1223 -0.0018 -0.0027
  255loPI   C2A 4072   8.854  10.287   9.604  0.1488  0.1644 -0.0475
  255loPI   C3A 4073   8.871  10.353   9.182 -0.3471 -0.3423  0.0351
  255loPI   C4A 4074   8.787  10.420   8.687 -0.1364 -0.0248 -0.0455
  255loPI   C5A 4075   8.592  10.640   8.379 -0.0140  0.2215 -0.0338
  255loPI   C6A 4076   8.494  11.154   8.449 -0.2445 -0.1974  0.2694
  255loPI   C1B 4077   8.767  10.873  10.102 -0.1977 -0.2013 -0.1079
  255loPI   C2B 4078   8.695  10.841   9.697 -0.1074 -0.1378 -0.1478
  255loPI   C3B 4079   8.678  10.777   9.245  0.3321  0.0638  0.0204
  255loPI   C4B 4080   8.565  10.883   8.833 -0.0541 -0.1506 -0.1220
  256loPI    C1 4081   5.258  15.168  11.049 -0.1300 -0.1097 -0.0882
  256loPI    C2 4082   5.565  15.287  11.277  0.0499  0.0720 -0.4189
  256loPI    C3 4083   5.190  15.339  11.404  0.1439  0.3376 -0.2428
  256loPI   PO4 4084   5.301  15.001  10.982  0.2907  0.1200  0.1102
  256loPI   GL1 4085   5.382  14.650  10.725 -0.0786 -0.0760 -0.1486
  256loPI   GL2 4086   5.567  14.460  10.779  0.0273 -0.0640 -0.2089
  256loPI   C1A 4087   5.312  14.703  10.244  0.1141  0.1447 -0.2759
  256loPI   C2A 4088   5.374  14.743   9.769 -0.0471  0.1923 -0.2545
  256loPI   C3A 4089   5.410  14.753   9.305  0.1170 -0.0305  0.1027
  256loPI   C4A 4090   5.478  14.664   8.927  0.3269  0.0020 -0.0896
  256loPI   C5A 4091   5.807  14.544   8.560 -0.2078 -0.2078 -0.3648
  256loPI   C6A 4092   6.140  14.244   8.562 -0.1576 -0.0444 -0.1711
  256loPI   C1B 4093   5.455  14.192  10.453 -0.0495  0.2702  0.0502
  256loPI   C2B 4094   5.453  14.258   9.983  0.0938 -0.1062 -0.0787
  256loPI   C3B 4095   5.509  14.310   9.487 -0.0882 -0.2790  0.1185
  256loPI   C4B 4096   5.742  14.217   9.101 -0.2137 -0.0100  0.1763
  257loPI    C1 4097   5.359  10.759  10.904  0.0620 -0.2165  0.1075
  257loPI    C2 4098   5.126  10.435  10.929 -0.0078 -0.1715  0.0448
  257loPI    C3 4099   5.233  10.630  11.261  0.0500 -0.2694  0.0841
  257loPI   PO4 4100   5.309  10.852  10.755  0.1777  0.3116 -0.1934
  257loPI   GL1 4101   5.283  11.149  10.448 -0.0626 -0.1231 -0.2071
  257loPI   GL2 4102   5.639  11.018  10.298 -0.2342  0.1846  0.0727
  257loPI   C1A 4103   5.114  11.199  10.109 -0.0420  0.2279  0.1512
  257loPI   C2A 4104   5.160  11.197   9.681 -0.0375 -0.1076  0.2081
  257loPI   C3A 4105   5.223  11.084   9.219  0.0892 -0.0318  0.2458
  257loPI   C4A 4106   5.088  11.121   8.760  0.0760  0.1275 -0.0322
  257loPI   C5A 4107   4.993  11.556   8.497 -0.0113 -0.2547 -0.3635
  257loPI   C6A 4108   5.104  12.052   8.403 -0.2117 -0.0498 -0.1991
  257loPI   C1B 4109   5.722  10.965   9.799  0.1254  0.0241 -0.0684
  257loPI   C2B 4110   5.769  10.950   9.328 -0.0371  0.1616  0.0221
  257loPI   C3B 4111   5.616  11.121   8.927  0.1085 -0.0703 -0.1816
  257loPI   C4B 4112   5.477  11.121   8.469  0.2742 -0.1319  0.1113
  258loPI    C1 4113  17.024  12.688  11.003 -0.2166 -0.0204 -0.0170
  258loPI    C2 4114  17.085  12.313  11.129  0.3017  0.0978  0.1058
  258loPI    C3 4115  16.949  12.591  11.384 -0.1803 -0.0223 -0.0103
  258loPI   PO4 4116  17.204  12.697  10.914 -0.0997 -0.2258  0.1379
  258loPI   GL1 4117  17.360  12.698  10.514 -0.2616 -0.1411 -0.1870
  258loPI   GL2 4118  17.501  12.475  10.463  0.0434 -0.0299 -0.4115
  258loPI   C1A 4119  17.710  12.860  10.215  0.0838 -0.0147  0.0769
  258loPI   C2A 4120  17.865  12.944   9.833 -0.1255  0.2477 -0.3157
  258loPI   C3A 4121  17.926  13.032   9.409 -0.2131  0.1487 -0.0759
  258loPI   C4A 4122  17.938  13.076   9.016 -0.0265 -0.1581  0.3429
  258loPI   C5A 4123  18.060  13.230   8.571 -0.0685 -0.0769 -0.1520
  258loPI   C6A 4124  17.999  13.253   8.162 -0.0330 -0.1222 -0.1689
  258loPI   C1B 4125  17.382  12.565  10.035  0.1260 -0.0158 -0.0673
  258loPI   C2B 4126  17.485  12.708   9.648  0.3158 -0.2628 -0.2963
  258loPI   C3B 4127  17.558  12.769   9.182  0.0859  0.0146  0.4229
  258loPI   C4B 4128  17.549  12.752   8.775 -0.1593  0.0099  0.0393
  259loPI    C1 4129  13.319  14.901  11.273 -0.0626 -0.1356 -0.0183
  259loPI    C2 4130  13.542  15.110  11.015 -0.1839 -0.0135 -0.0253
  259loPI    C3 4131  13.518  15.225  11.398 -0.3255  0.0414 -0.0501
  259loPI   PO4 4132  13.010  14.904  11.004  0.2275 -0.2784 -0.1240
  259loPI   GL1 4133  12.915  14.777  10.599  0.2268 -0.1661 -0.0524
  259loPI   GL2 4134  12.924  15.087  10.512  0.0244  0.3633  0.3256
  259loPI   C1A 4135  12.777  14.551  10.336 -0.1417  0.3249  0.1225
  259loPI   C2A 4136  12.639  14.579   9.949 -0.2741 -0.1108  0.0180
  259loPI   C3A 4137  12.536  14.511   9.527  0.2017  0.0823 -0.1908
  259loPI   C4A 4138  12.484  14.672   9.081  0.2108  0.0662  0.1349
  259loPI   C5A 4139  12.267  14.772   8.663  0.2257  0.1986  0.0864
  259loPI   C6A 4140  12.135  14.623   8.215  0.2911 -0.0055  0.2100
  259loPI   C1B 4141  12.896  14.973   9.990  0.0700  0.0369 -0.0499
  259loPI   C2B 4142  12.917  14.912   9.593  0.2501  0.0144  0.3482
  259loPI   C3B 4143  12.878  15.021   9.223 -0.0065 -0.3558  0.1541
  259loPI   C4B 4144  12.829  14.917   8.791 -0.1921 -0.0906 -0.1560
  260loPI    C1 4145  10.479  15.264  11.353  0.2095 -0.0226 -0.0001
  260loPI    C2 4146  10.646  14.930  11.497  0.0827 -0.0889 -0.0052
  260loPI    C3 4147  10.250  14.948  11.441  0.0762  0.0983  0.0928
  260loPI   PO4 4148  10.514  15.295  11.069  0.2613  0.3615  0.2936
  260loPI   GL1 4149  10.604  15.249  10.612 -0.0759 -0.0239  0.3123
  260loPI   GL2 4150  10.716  14.904  10.498  0.1796 -0.0801  0.3856
  260loPI   C1A 4151  10.369  15.422  10.318  0.0734 -0.1244  0.1974
  260loPI   C2A 4152  10.432  15.518   9.963 -0.1419 -0.0219 -0.2808
  260loPI   C3A 4153  10.381  15.646   9.473 -0.2368 -0.1345 -0.0677
  260loPI   C4A 4154  10.452  15.642   9.092  0.1325 -0.2540 -0.0275
  260loPI   C5A 4155  10.402  15.493   8.656 -0.1084 -0.0713 -0.0999
  260loPI   C6A 4156  10.293  15.402   8.202 -0.2135 -0.1789 -0.1257
  260loPI   C1B 4157  10.581  14.988  10.190  0.4010 -0.1440 -0.0722
  260loPI   C2B 4158  10.566  15.057   9.792 -0.0600  0.0020  0.2884
  260loPI   C3B 4159  10.529  15.192   9.367 -0.0767 -0.2586  0.0606
  260loPI   C4B 4160  10.508  15.012   8.902 -0.0887  0.0311  0.1295
  261loPI    C1 4161   1.602   4.663  10.443  0.1631 -0.0716  0.0058
  261loPI    C2 4162   1.713   4.461  10.770 -0.0068 -0.0395  0.0839
  261loPI    C3 4163   1.874   4.819  10.692  0.0706 -0.0695  0.1060
  261loPI   PO4 4164   1.656   4.464  10.257 -0.0963 -0.0142 -0.1278
  261loPI   GL1 4165   1.618   4.253   9.843  0.1153 -0.0166 -0.0551
  261loPI   GL2 4166   1.669   4.013   9.747 -0.0852 -0.1509  0.2166
  261loPI   C1A 4167   1.364   4.110   9.394  0.3547  0.2934 -0.2722
  261loPI   C2A 4168   1.428   3.995   9.007  0.1421  0.0761  0.2633
  261loPI   C3A 4169   1.385   3.958   8.617  0.1054  0.3401 -0.2484
  261loPI   C4A 4170   1.418   3.977   8.235  0.2239 -0.1144  0.1035
  261loPI   C5A 4171   1.524   4.313   8.030 -0.1011 -0.1120 -0.1121
  261loPI   C6A 4172   1.853   4.735   7.989  0.0986 -0.0314 -0.2136
  261loPI   C1B 4173   1.824   3.844   9.340  0.2170  0.1515 -0.0445
  261loPI   C2B 4174   1.838   3.785   8.863 -0.1668  0.1265  0.1295
  261loPI   C3B 4175   1.807   3.793   8.466  0.2016 -0.1559  0.4655
  261loPI   C4B 4176   1.976   3.733   8.174 -0.1755  0.1289 -0.0752
  262loPI    C1 4177   5.193  17.220  11.112  0.0192  0.0738  0.3748
  262loPI    C2 4178   5.487  17.382  10.894  0.0117 -0.3645  0.0249
  262loPI    C3 4179   5.404  17.527  11.258  0.2441  0.1650 -0.1237
  262loPI   PO4 4180   5.064  17.103  10.969  0.0809  0.3863 -0.0313
  262loPI   GL1 4181   5.055  17.210  10.607 -0.0811 -0.1982  0.1245
  262loPI   GL2 4182   4.876  17.418  10.568 -0.3867 -0.0939 -0.0844
  262loPI   C1A 4183   5.430  17.277  10.361 -0.1670 -0.0425 -0.0453
  262loPI   C2A 4184   5.511  17.208   9.914 -0.1278 -0.0621  0.4062
  262loPI   C3A 4185   5.538  17.075   9.487  0.2295  0.0523 -0.0946
  262loPI   C4A 4186   5.517  17.110   9.108  0.0393  0.0223 -0.1256
  262loPI   C5A 4187   5.521  17.294   8.696 -0.3527 -0.0118  0.0825
  262loPI   C6A 4188   5.454  17.523   8.441 -0.0431 -0.0266  0.1082
  262loPI   C1B 4189   4.986  17.345  10.127 -0.0919  0.1511  0.1272
  262loPI   C2B 4190   4.981  17.305   9.744  0.4328 -0.1006  0.2443
  262loPI   C3B 4191   5.007  17.163   9.369 -0.3795  0.1762  0.0581
  262loPI   C4B 4192   5.022  17.139   8.938 -0.3154  0.1091 -0.2515
  263loPI    C1 4193   3.105   8.575  10.345  0.0288 -0.1722 -0.1503
  263loPI    C2 4194   2.946   8.887  10.151 -0.1702 -0.2134 -0.0558
  263loPI    C3 4195   2.779   8.756  10.490  0.1384 -0.1812  0.1119
  263loPI   PO4 4196   3.363   8.613  10.236  0.0076  0.1629  0.0726
  263loPI   GL1 4197   3.536   8.404   9.966 -0.2013  0.1397  0.0626
  263loPI   GL2 4198   3.683   8.082  10.017 -0.0705 -0.0230 -0.1044
  263loPI   C1A 4199   3.372   8.572   9.593  0.0695  0.1327 -0.0889
  263loPI   C2A 4200   3.245   8.587   9.205  0.1668 -0.0349  0.0512
  263loPI   C3A 4201   3.144   8.778   8.840 -0.2733  0.0040  0.1207
  263loPI   C4A 4202   3.322   9.008   8.585  0.0410  0.3224  0.0404
  263loPI   C5A 4203   3.716   9.218   8.459 -0.0192  0.0945  0.2179
  263loPI   C6A 4204   4.160   9.344   8.338  0.0369  0.0773 -0.1503
  263loPI   C1B 4205   3.611   8.151   9.586  0.2040  0.0176 -0.1112
  263loPI   C2B 4206   3.485   8.127   9.157  0.0769  0.0888 -0.2747
  263loPI   C3B 4207   3.255   8.285   8.863 -0.2187 -0.1109  0.0336
  263loPI   C4B 4208   3.252   8.483   8.427  0.0490  0.0184 -0.1420
  264loPI    C1 4209  16.547  12.454  11.130  0.1100 -0.0662  0.1572
  264loPI    C2 4210  16.371  12.257  11.431 -0.2161  0.0890  0.0729
  264loPI    C3 4211  16.370  12.657  11.426 -0.1634  0.0879 -0.1054
  264loPI   PO4 4212  16.619  12.366  10.807  0.0730  0.1931 -0.0508
  264loPI   GL1 4213  16.515  12.474  10.388  0.0497 -0.0912  0.0765
  264loPI   GL2 4214  16.425  12.733  10.434  0.0288 -0.0235 -0.0963
  264loPI   C1A 4215  16.521  12.393   9.983  0.2605  0.0720  0.2298
  264loPI   C2A 4216  16.623  12.462   9.555  0.2258 -0.0281 -0.1136
  264loPI   C3A 4217  16.638  12.361   9.094 -0.1550 -0.3246  0.2880
  264loPI   C4A 4218  16.784  12.511   8.670  0.0026 -0.4435  0.1401
  264loPI   C5A 4219  17.102  12.801   8.469 -0.0280 -0.2034  0.0194
  264loPI   C6A 4220  17.096  13.080   8.151 -0.0647 -0.2332  0.1510
  264loPI   C1B 4221  16.291  12.854   9.996  0.0013  0.3465  0.1636
  264loPI   C2B 4222  16.442  12.907   9.627  0.4011  0.0796  0.0938
  264loPI   C3B 4223  16.511  12.940   9.255  0.2195  0.1912 -0.1762
  264loPI   C4B 4224  16.588  12.968   8.815  0.1618 -0.0499 -0.1723
  265loPI    C1 4225   6.329  15.426  11.370 -0.0265 -0.1387  0.1530
  265loPI    C2 4226   6.018  15.435  11.119  0.1361  0.2040 -0.0443
  265loPI    C3 4227   5.965  15.516  11.507 -0.0294  0.2002 -0.0655
  265loPI   PO4 4228   6.522  15.473  11.162 -0.0235  0.0816  0.2070
  265loPI   GL1 4229   6.450  15.597  10.820  0.0566 -0.0098  0.1045
  265loPI   GL2 4230   6.582  15.231  10.629  0.1618  0.2665  0.1082
  265loPI   C1A 4231   6.429  15.850  10.438  0.0673  0.0729 -0.0619
  265loPI   C2A 4232   6.221  15.652  10.103  0.2011 -0.1283 -0.1897
  265loPI   C3A 4233   6.116  15.555   9.628  0.0226 -0.0481  0.1104
  265loPI   C4A 4234   6.065  15.692   9.292  0.3666 -0.0012 -0.0632
  265loPI   C5A 4235   6.057  15.687   8.832  0.1625 -0.4311  0.1305
  265loPI   C6A 4236   5.786  15.806   8.548  0.1308  0.1310  0.0422
  265loPI   C1B 4237   6.601  15.366  10.198 -0.0578  0.1157 -0.1535
  265loPI   C2B 4238   6.613  15.402   9.709 -0.5130 -0.2142 -0.2159
  265loPI   C3B 4239   6.637  15.485   9.324  0.0552  0.1093 -0.0991
  265loPI   C4B 4240   6.546  15.759   9.043 -0.0772 -0.0433 -0.1464
  266loPI    C1 4241   4.250   6.353  10.535 -0.2726 -0.0494  0.0972
  266loPI    C2 4242   4.462   6.678  10.629 -0.0413 -0.1631 -0.0217
  266loPI    C3 4243   4.334   6.432  10.917 -0.0137 -0.0928  0.0511
  266loPI   PO4 4244   4.103   6.328  10.363 -0.1347 -0.0663  0.1558
  266loPI   GL1 4245   4.228   6.334   9.931  0.1154  0.0160  0.1752
  266loPI   GL2 4246   3.838   6.220   9.852  0.2076 -0.0592 -0.0889
  266loPI   C1A 4247   4.370   6.294   9.557 -0.2093  0.2360 -0.1721
  266loPI   C2A 4248   4.329   6.147   9.183  0.1985 -0.2417  0.0758
  266loPI   C3A 4249   4.304   6.237   8.769  0.2787  0.1168 -0.0302
  266loPI   C4A 4250   4.373   6.081   8.454 -0.1331  0.1397  0.1067
  266loPI   C5A 4251   4.311   6.060   8.005  0.2636 -0.1826  0.3636
  266loPI   C6A 4252   4.417   6.034   7.612  0.0237  0.2820  0.0207
  266loPI   C1B 4253   3.945   6.133   9.453  0.0461  0.1494 -0.1500
  266loPI   C2B 4254   3.896   6.061   8.982  0.1376  0.1092 -0.0014
  266loPI   C3B 4255   3.918   5.861   8.600 -0.1925  0.0952  0.1691
  266loPI   C4B 4256   3.761   6.223   8.402 -0.0991  0.0765  0.2698
  267loPI    C1 4257  12.278   3.795  10.409  0.0083 -0.1568  0.0361
  267loPI    C2 4258  12.032   3.638  10.683  0.0256  0.0938  0.1988
  267loPI    C3 4259  12.376   3.807  10.796  0.1030  0.0681  0.0066
  267loPI   PO4 4260  12.258   3.619  10.183  0.1422  0.0258 -0.3620
  267loPI   GL1 4261  12.593   3.637   9.926  0.0170 -0.1189 -0.1161
  267loPI   GL2 4262  12.812   3.333   9.968  0.2018  0.1667  0.0864
  267loPI   C1A 4263  12.590   3.403   9.549  0.0496 -0.0259 -0.0237
  267loPI   C2A 4264  12.589   3.348   9.156  0.0291  0.0858  0.0029
  267loPI   C3A 4265  12.712   3.303   8.695  0.0384  0.1838  0.0748
  267loPI   C4A 4266  12.859   3.312   8.264  0.1808  0.0316 -0.0125
  267loPI   C5A 4267  13.174   3.553   8.060 -0.1100  0.1554  0.0712
  267loPI   C6A 4268  13.368   3.872   7.857  0.0355  0.0271 -0.4391
  267loPI   C1B 4269  12.908   2.940   9.670 -0.1075  0.0271 -0.0779
  267loPI   C2B 4270  12.805   2.893   9.194  0.0372  0.0416 -0.0830
  267loPI   C3B 4271  12.444   2.866   8.758  0.1115 -0.1349 -0.1228
  267loPI   C4B 4272  12.482   2.980   8.333  0.0805  0.0911  0.0527
  268loPI    C1 4273   3.749  14.946  11.143  0.2950  0.0708  0.0697
  268loPI    C2 4274   3.622  15.098  11.490 -0.1047 -0.0262 -0.0288
  268loPI    C3 4275   3.828  14.756  11.486 -0.1940 -0.0826  0.1055
  268loPI   PO4 4276   3.826  15.142  11.006  0.1569 -0.2143 -0.2838
  268loPI   GL1 4277   3.861  15.053  10.635 -0.4630  0.1967  0.3215
  268loPI   GL2 4278   3.585  14.984  10.611 -0.1758 -0.1231  0.1427
  268loPI   C1A 4279   3.872  15.029  10.213 -0.1996 -0.1779 -0.0326
  268loPI   C2A 4280   3.806  14.993   9.766  0.0973 -0.2719 -0.4153
  268loPI   C3A 4281   3.841  15.058   9.392 -0.1293  0.1534 -0.0642
  268loPI   C4A 4282   3.906  15.024   8.919 -0.4855 -0.0927 -0.1954
  268loPI   C5A 4283   4.326  15.035   8.615  0.0295  0.1773 -0.0261
  268loPI   C6A 4284   4.616  15.000   8.273 -0.2688  0.0490 -0.0370
  268loPI   C1B 4285   3.341  15.058  10.323  0.1066  0.0634 -0.0684
  268loPI   C2B 4286   3.338  15.114   9.888 -0.1193 -0.1395 -0.1183
  268loPI   C3B 4287   3.344  15.096   9.469  0.3224  0.0639 -0.2057
  268loPI   C4B 4288   3.396  15.004   9.091 -0.1958 -0.0053  0.0192
  269loPI    C1 4289   3.609  12.329  10.979  0.1112 -0.0578  0.1115
  269loPI    C2 4290   3.275  12.421  11.179  0.2010 -0.0980  0.2818
  269loPI    C3 4291   3.632  12.526  11.326  0.2464  0.3285 -0.1111
  269loPI   PO4 4292   3.586  12.449  10.774 -0.2403  0.1549  0.1436
  269loPI   GL1 4293   3.678  12.745  10.436 -0.1238  0.1888 -0.1757
  269loPI   GL2 4294   4.034  12.694  10.377  0.1756 -0.1251 -0.2029
  269loPI   C1A 4295   3.585  12.834   9.965  0.1428 -0.1549 -0.2833
  269loPI   C2A 4296   3.644  12.777   9.596  0.0390 -0.0639  0.0316
  269loPI   C3A 4297   3.706  12.824   9.170  0.0739 -0.1566  0.1745
  269loPI   C4A 4298   3.733  12.802   8.686  0.1975 -0.0633  0.2483
  269loPI   C5A 4299   3.321  12.979   8.318  0.0237 -0.3071  0.1828
  269loPI   C6A 4300   2.999  13.058   8.031 -0.3410  0.0498 -0.2181
  269loPI   C1B 4301   4.082  12.708  10.041  0.0725 -0.1564  0.0533
  269loPI   C2B 4302   4.139  12.723   9.671  0.0520  0.0218  0.1692
  269loPI   C3B 4303   4.227  12.698   9.229 -0.1402 -0.2270  0.2195
  269loPI   C4B 4304   4.151  12.539   8.838 -0.4566  0.3819  0.1487
  270loPI    C1 4305   3.327  14.236  11.021  0.0746  0.1596  0.0806
  270loPI    C2 4306   3.082  14.345  11.318 -0.1968  0.1380 -0.1308
  270loPI    C3 4307   3.464  14.465  11.319 -0.2174  0.2100  0.1797
  270loPI   PO4 4308   3.134  14.175  10.761  0.0646 -0.2487 -0.2467
  270loPI   GL1 4309   3.170  14.210  10.357  0.0361 -0.2003  0.1272
  270loPI   GL2 4310   3.310  14.498  10.398 -0.0036  0.1652 -0.0851
  270loPI   C1A 4311   3.165  14.374   9.951  0.0769 -0.2186  0.1728
  270loPI   C2A 4312   3.223  14.217   9.420 -0.2055 -0.0814 -0.2176
  270loPI   C3A 4313   3.163  14.247   8.989 -0.1165  0.2800 -0.0216
  270loPI   C4A 4314   2.789  14.168   8.673 -0.2371  0.1847  0.3396
  270loPI   C5A 4315   2.389  14.334   8.522  0.1114 -0.0120 -0.3287
  270loPI   C6A 4316   1.908  14.402   8.392  0.1581 -0.1418 -0.0284
  270loPI   C1B 4317   3.545  14.676  10.024  0.1204  0.0477 -0.0667
  270loPI   C2B 4318   3.513  14.620   9.612  0.0176 -0.1107  0.0391
  270loPI   C3B 4319   3.527  14.564   9.240 -0.2075 -0.0351 -0.0231
  270loPI   C4B 4320   3.521  14.647   8.813  0.0106  0.0880  0.2137
  271loPI    C1 4321  16.782   1.511  10.639 -0.1789  0.0795 -0.2968
  271loPI    C2 4322  16.708   1.898  10.576  0.1259  0.1845 -0.0417
  271loPI    C3 4323  16.779   1.766  10.947 -0.0495 -0.1315 -0.1166
  271loPI   PO4 4324  16.990   1.481  10.533 -0.0826  0.1732 -0.0850
  271loPI   GL1 4325  17.174   1.296  10.177  0.1734  0.0800  0.0504
  271loPI   GL2 4326  17.059   1.033  10.042  0.0144  0.2709  0.4045
  271loPI   C1A 4327  17.393   1.521   9.862 -0.0733 -0.1541 -0.2505
  271loPI   C2A 4328  17.437   1.557   9.510 -0.1857  0.1521 -0.0095
  271loPI   C3A 4329  17.418   1.519   9.036  0.3273  0.1310  0.0054
  271loPI   C4A 4330  17.491   1.576   8.577  0.0923 -0.2732 -0.2682
  271loPI   C5A 4331  17.645   1.460   8.251  0.0578 -0.1570  0.1563
  271loPI   C6A 4332  17.508   1.262   7.871  0.2100  0.1118  0.0063
  271loPI   C1B 4333  17.113   1.181   9.582  0.2489  0.3502  0.0489
  271loPI   C2B 4334  17.100   1.163   9.158 -0.2883  0.2965 -0.1188
  271loPI   C3B 4335  17.016   1.193   8.765  0.0781 -0.1484 -0.4309
  271loPI   C4B 4336  17.157   1.239   8.339 -0.1235 -0.1351  0.1723
  272loPI    C1 4337  10.129   4.204  10.680  0.0528  0.0424 -0.0657
  272loPI    C2 4338  10.415   4.274  10.951  0.2093 -0.0219 -0.2129
  272loPI    C3 4339  10.122   4.014  11.032  0.1120  0.1493 -0.0060
  272loPI   PO4 4340  10.350   4.196  10.477  0.0512  0.0471  0.1557
  272loPI   GL1 4341  10.268   4.153  10.097  0.0634 -0.2881  0.2774
  272loPI   GL2 4342  10.449   4.208   9.953  0.4082  0.1266  0.3181
  272loPI   C1A 4343   9.938   4.304   9.665  0.0318  0.0324  0.1105
  272loPI   C2A 4344   9.966   4.205   9.240 -0.0036  0.3228 -0.0604
  272loPI   C3A 4345   9.939   4.079   8.827  0.0771  0.1048  0.2927
  272loPI   C4A 4346   9.712   3.948   8.523  0.5763  0.0503  0.2330
  272loPI   C5A 4347   9.700   3.643   8.197 -0.1916 -0.4340  0.2325
  272loPI   C6A 4348  10.060   3.318   8.242  0.2095  0.1872 -0.0763
  272loPI   C1B 4349  10.396   4.099   9.594 -0.1429  0.2137  0.3058
  272loPI   C2B 4350  10.391   4.063   9.088 -0.1777  0.4791  0.2412
  272loPI   C3B 4351  10.417   3.915   8.648  0.0325  0.1435 -0.0097
  272loPI   C4B 4352  10.137   3.790   8.420  0.1279 -0.1531  0.2083
  273loPI    C1 4353  16.839   1.020  10.608  0.1161 -0.1415  0.0513
  273loPI    C2 4354  16.894   0.818  10.948 -0.1210  0.0668  0.2171
  273loPI    C3 4355  16.615   1.104  10.928 -0.1675 -0.0005 -0.1786
  273loPI   PO4 4356  16.781   0.909  10.437 -0.0467  0.1458 -0.1689
  273loPI   GL1 4357  16.505   0.864  10.174  0.1347  0.2526  0.0197
  273loPI   GL2 4358  16.311   0.597  10.286  0.1074  0.0333  0.0305
  273loPI   C1A 4359  16.691   0.810   9.783  0.2395  0.0165  0.1138
  273loPI   C2A 4360  16.757   0.789   9.341 -0.0250  0.1232  0.1318
  273loPI   C3A 4361  16.635   0.858   8.921  0.3357 -0.0082 -0.0681
  273loPI   C4A 4362  16.663   0.576   8.561 -0.0870  0.0689  0.3489
  273loPI   C5A 4363  16.860   0.521   8.180 -0.0028  0.0375 -0.1665
  273loPI   C6A 4364  16.856   0.203   7.789 -0.2715 -0.2997 -0.0020
  273loPI   C1B 4365  16.380   0.432   9.854  0.1735 -0.0988 -0.0015
  273loPI   C2B 4366  16.361   0.348   9.384 -0.0976  0.1069 -0.1106
  273loPI   C3B 4367  16.282   0.394   8.941 -0.0269 -0.0748  0.1375
  273loPI   C4B 4368  16.127   0.540   8.540 -0.0317 -0.1251 -0.2541
  274loPI    C1 4369  16.218   3.859  10.455 -0.0991  0.1257  0.0624
  274loPI    C2 4370  16.030   3.581  10.672 -0.1601  0.0617 -0.0715
  274loPI    C3 4371  16.207   3.890  10.853  0.2246 -0.2552  0.1072
  274loPI   PO4 4372  16.329   3.630  10.258  0.0140 -0.2945  0.1043
  274loPI   GL1 4373  16.443   3.466   9.929 -0.0119 -0.1969  0.2227
  274loPI   GL2 4374  16.854   3.575   9.800  0.0468 -0.0074  0.1841
  274loPI   C1A 4375  16.182   3.462   9.648 -0.0315  0.2393  0.0891
  274loPI   C2A 4376  16.101   3.546   9.240 -0.0729  0.2022  0.0014
  274loPI   C3A 4377  16.037   3.640   8.782  0.0401 -0.0782 -0.2973
  274loPI   C4A 4378  16.219   3.615   8.413 -0.2745  0.0501 -0.0749
  274loPI   C5A 4379  16.448   3.338   7.980  0.3323  0.0735 -0.1948
  274loPI   C6A 4380  16.924   3.132   7.860  0.0567  0.0040 -0.1347
  274loPI   C1B 4381  16.705   3.619   9.342 -0.0651  0.1248  0.1620
  274loPI   C2B 4382  16.763   3.518   8.828 -0.0209 -0.1003  0.1902
  274loPI   C3B 4383  16.701   3.747   8.448 -0.0148  0.2852 -0.0525
  274loPI   C4B 4384  16.816   3.733   8.027 -0.1757 -0.1773  0.0635
  275loPI    C1 4385  12.631   1.869  10.971  0.0626 -0.1184  0.0971
  275loPI    C2 4386  12.323   1.749  11.195 -0.1772 -0.2038 -0.2689
  275loPI    C3 4387  12.680   1.811  11.363 -0.4152  0.0008  0.1814
  275loPI   PO4 4388  12.626   1.726  10.790 -0.0263 -0.2266  0.1764
  275loPI   GL1 4389  12.450   1.819  10.415  0.3862 -0.1037 -0.0484
  275loPI   GL2 4390  12.593   2.169  10.226 -0.0444 -0.3131  0.0479
  275loPI   C1A 4391  12.330   1.807  10.071 -0.0886 -0.0608  0.2043
  275loPI   C2A 4392  12.274   1.777   9.613 -0.0113  0.2480 -0.0516
  275loPI   C3A 4393  12.123   1.670   9.208 -0.1848  0.0646  0.2257
  275loPI   C4A 4394  12.002   1.555   8.855  0.2840  0.3097 -0.0255
  275loPI   C5A 4395  11.991   1.254   8.520 -0.2421  0.0928 -0.0730
  275loPI   C6A 4396  12.131   0.993   8.302 -0.1895  0.1360  0.1921
  275loPI   C1B 4397  12.713   2.067   9.780 -0.1392 -0.2435  0.0306
  275loPI   C2B 4398  12.684   2.020   9.334  0.0514  0.2006 -0.0779
  275loPI   C3B 4399  12.872   1.944   8.951 -0.1077 -0.1854  0.1310
  275loPI   C4B 4400  13.356   1.886   8.791  0.1918  0.4998 -0.0041
  276loPI    C1 4401  14.862   6.212  10.631 -0.1520  0.1100 -0.1173
  276loPI    C2 4402  14.872   5.834  10.762 -0.2545  0.1644  0.0513
  276loPI    C3 4403  14.906   6.136  11.022 -0.3675  0.2737 -0.0596
  276loPI   PO4 4404  14.721   6.231  10.488 -0.1210  0.0848  0.1605
  276loPI   GL1 4405  14.419   6.295  10.144  0.0816  0.1368 -0.2027
  276loPI   GL2 4406  14.669   6.127   9.956 -0.2857 -0.2949  0.1234
  276loPI   C1A 4407  14.281   6.439   9.788 -0.6136 -0.0673 -0.0499
  276loPI   C2A 4408  14.193   6.570   9.306 -0.0428  0.1026  0.0129
  276loPI   C3A 4409  14.147   6.680   8.895 -0.0168 -0.2022 -0.1055
  276loPI   C4A 4410  14.103   6.883   8.487 -0.2156  0.1209  0.1807
  276loPI   C5A 4411  13.974   6.940   8.030 -0.1668  0.1216 -0.2276
  276loPI   C6A 4412  13.698   6.853   7.618 -0.0248 -0.3000 -0.0824
  276loPI   C1B 4413  14.558   6.197   9.470  0.0235  0.2234 -0.1540
  276loPI   C2B 4414  14.531   6.238   9.055 -0.1108  0.2377 -0.0854
  276loPI   C3B 4415  14.553   6.445   8.621  0.0924  0.1623 -0.1332
  276loPI   C4B 4416  14.518   6.427   8.208 -0.2455  0.1476  0.1033
  277loPI    C1 4417   8.266   7.408  10.635 -0.1943  0.1616 -0.0354
  277loPI    C2 4418   8.444   7.641  10.908 -0.1971 -0.0041  0.1094
  277loPI    C3 4419   8.138   7.406  11.014 -0.1417 -0.1347 -0.0172
  277loPI   PO4 4420   8.237   7.559  10.438 -0.0323  0.1530  0.1063
  277loPI   GL1 4421   8.438   7.805  10.082 -0.2666  0.0454  0.0378
  277loPI   GL2 4422   8.507   7.496  10.024 -0.1358  0.0660 -0.4294
  277loPI   C1A 4423   8.354   7.913   9.654 -0.3573 -0.0372  0.0245
  277loPI   C2A 4424   8.284   7.955   9.275  0.0026 -0.0220 -0.0992
  277loPI   C3A 4425   8.242   7.896   8.808  0.1270  0.2799  0.1449
  277loPI   C4A 4426   8.113   7.884   8.357  0.2894  0.1222 -0.1959
  277loPI   C5A 4427   7.815   7.714   7.984 -0.2242  0.3976 -0.1228
  277loPI   C6A 4428   7.763   7.575   7.624 -0.5028 -0.2060  0.2246
  277loPI   C1B 4429   8.354   7.460   9.613  0.1569 -0.2674  0.0358
  277loPI   C2B 4430   8.323   7.416   9.194  0.0669 -0.2353 -0.3222
  277loPI   C3B 4431   8.300   7.371   8.707  0.0862 -0.1767 -0.0110
  277loPI   C4B 4432   8.030   7.377   8.325 -0.1716  0.3723  0.0327
  278loPI    C1 4433   1.798   7.255  10.571  0.2110  0.1491 -0.1375
  278loPI    C2 4434   1.429   7.275  10.725  0.2261 -0.0921 -0.0659
  278loPI    C3 4435   1.710   7.535  10.843  0.1144  0.0105 -0.0245
  278loPI   PO4 4436   1.776   7.280  10.276 -0.3195  0.2318 -0.0869
  278loPI   GL1 4437   1.754   7.008   9.947  0.0083  0.0711  0.0950
  278loPI   GL2 4438   1.988   6.892   9.899  0.2170  0.0611  0.2678
  278loPI   C1A 4439   1.552   6.713   9.760  0.0843 -0.1635  0.0591
  278loPI   C2A 4440   1.660   6.573   9.386 -0.1472 -0.0856  0.1140
  278loPI   C3A 4441   1.551   6.464   8.952 -0.1910  0.3512 -0.1265
  278loPI   C4A 4442   1.516   6.236   8.605 -0.2193 -0.2680 -0.0179
  278loPI   C5A 4443   1.411   6.246   8.176  0.0691 -0.4890  0.1577
  278loPI   C6A 4444   1.789   6.137   7.975 -0.0972 -0.0478 -0.2438
  278loPI   C1B 4445   2.060   6.871   9.507  0.0618  0.2992  0.0853
  278loPI   C2B 4446   2.045   6.681   9.071 -0.0097  0.0394 -0.1667
  278loPI   C3B 4447   1.956   6.473   8.723 -0.1526 -0.1470 -0.0056
  278loPI   C4B 4448   1.892   6.460   8.316 -0.0396 -0.0458 -0.0519
  279loPI    C1 4449   1.518  14.956  11.171  0.1087  0.1861 -0.0792
  279loPI    C2 4450   1.805  15.131  11.389 -0.0137  0.2600  0.0240
  279loPI    C3 4451   1.432  15.275  11.396 -0.1425 -0.0716  0.1997
  279loPI   PO4 4452   1.695  14.884  10.888  0.1005  0.2533 -0.1107
  279loPI   GL1 4453   1.740  14.838  10.575 -0.2024  0.0071  0.2343
  279loPI   GL2 4454   1.628  14.566  10.424 -0.1565 -0.2440 -0.0963
  279loPI   C1A 4455   2.062  14.666  10.220 -0.1830 -0.3165  0.2551
  279loPI   C2A 4456   2.180  14.523   9.801  0.0830  0.0671  0.2574
  279loPI   C3A 4457   2.139  14.565   9.347 -0.2626 -0.2610  0.0733
  279loPI   C4A 4458   2.101  14.593   8.851  0.0316 -0.0035 -0.1051
  279loPI   C5A 4459   2.149  14.820   8.439 -0.1087  0.0789 -0.1891
  279loPI   C6A 4460   2.298  14.897   7.992  0.1943  0.4184 -0.0009
  279loPI   C1B 4461   1.633  14.637   9.961  0.1339  0.0451  0.0945
  279loPI   C2B 4462   1.672  14.642   9.540  0.2397  0.0887 -0.0407
  279loPI   C3B 4463   1.684  14.622   9.131 -0.1261  0.0255  0.2167
  279loPI   C4B 4464   1.573  14.575   8.734 -0.0701  0.0495  0.1307
  280loPI    C1 4465  15.337   3.964  10.516 -0.0796 -0.1897 -0.2822
  280loPI    C2 4466  15.709   3.949  10.663 -0.1546  0.0750 -0.0563
  280loPI    C3 4467  15.462   3.637  10.710 -0.0049 -0.0501 -0.0924
  280loPI   PO4 4468  15.365   3.925  10.269  0.0110 -0.2002 -0.0533
  280loPI   GL1 4469  15.436   3.949   9.942 -0.0582 -0.5459  0.0753
  280loPI   GL2 4470  15.439   4.182   9.765 -0.0076 -0.0870  0.1712
  280loPI   C1A 4471  15.174   3.735   9.682  0.0119  0.0043  0.0223
  280loPI   C2A 4472  14.929   3.737   9.259  0.1373  0.2610 -0.0870
  280loPI   C3A 4473  15.010   3.844   8.872  0.0510  0.2176 -0.1496
  280loPI   C4A 4474  15.053   3.605   8.556  0.1260  0.1081  0.0056
  280loPI   C5A 4475  15.018   3.356   8.106 -0.0766 -0.0739  0.1110
  280loPI   C6A 4476  14.894   3.307   7.669 -0.2685  0.2243  0.1241
  280loPI   C1B 4477  15.371   4.173   9.397 -0.4419  0.0798  0.0034
  280loPI   C2B 4478  15.382   4.158   8.978 -0.0490 -0.0815  0.0066
  280loPI   C3B 4479  15.282   4.092   8.511  0.0069 -0.0119  0.1559
  280loPI   C4B 4480  15.296   3.769   8.193  0.1067 -0.1433  0.2306
  281loPI    C1 4481   5.608   8.874  10.801  0.0755  0.2253  0.1563
  281loPI    C2 4482   5.897   8.706  11.021  0.1570  0.0012 -0.1155
  281loPI    C3 4483   5.516   8.684  11.140  0.2011 -0.1128  0.0061
  281loPI   PO4 4484   5.601   9.090  10.668  0.1518 -0.0880  0.2616
  281loPI   GL1 4485   5.690   9.366  10.366 -0.2382 -0.0680  0.3575
  281loPI   GL2 4486   5.971   9.402  10.304 -0.0348 -0.0933 -0.0218
  281loPI   C1A 4487   5.576   9.436   9.960 -0.1477  0.0337 -0.0172
  281loPI   C2A 4488   5.703   9.532   9.582  0.1913 -0.0972 -0.2853
  281loPI   C3A 4489   5.662   9.634   9.132  0.1750  0.2142 -0.0510
  281loPI   C4A 4490   5.690   9.560   8.669  0.1094  0.0236 -0.0153
  281loPI   C5A 4491   5.953   9.562   8.313 -0.0091  0.0270 -0.0496
  281loPI   C6A 4492   6.359   9.836   8.286 -0.0443 -0.3777 -0.1823
  281loPI   C1B 4493   6.054   9.470   9.857 -0.1852  0.1139 -0.4494
  281loPI   C2B 4494   6.220   9.555   9.428  0.1922 -0.1830 -0.0969
  281loPI   C3B 4495   6.164   9.523   8.973  0.3379  0.1339  0.2544
  281loPI   C4B 4496   6.354   9.452   8.615 -0.0640 -0.0164 -0.1464
  282loPI    C1 4497  12.613   5.656  10.725 -0.0266  0.0228 -0.1228
  282loPI    C2 4498  12.904   5.914  10.818 -0.0079  0.0002 -0.1184
  282loPI    C3 4499  12.761   5.665  11.096  0.1194 -0.1386 -0.1757
  282loPI   PO4 4500  12.445   5.807  10.528 -0.2235 -0.0302 -0.1377
  282loPI   GL1 4501  12.551   5.943  10.084  0.0134 -0.1106 -0.0575
  282loPI   GL2 4502  12.876   5.930  10.297  0.0577  0.0325 -0.1324
  282loPI   C1A 4503  12.759   6.141   9.674 -0.0251 -0.1286  0.1574
  282loPI   C2A 4504  12.754   6.185   9.155 -0.0832  0.1500 -0.3205
  282loPI   C3A 4505  12.713   6.308   8.691  0.0081  0.3581  0.0625
  282loPI   C4A 4506  12.688   6.429   8.208 -0.2598 -0.0723 -0.2393
  282loPI   C5A 4507  12.560   6.293   7.822  0.0461 -0.0691  0.0538
  282loPI   C6A 4508  12.941   6.141   7.552 -0.4086 -0.1338  0.0905
  282loPI   C1B 4509  13.091   5.898   9.862 -0.5608  0.0054  0.0263
  282loPI   C2B 4510  13.065   5.800   9.481 -0.2106  0.1910 -0.0095
  282loPI   C3B 4511  13.124   5.805   9.017  0.1558  0.1667  0.0110
  282loPI   C4B 4512  13.068   5.917   8.633 -0.0944  0.1003 -0.1883
  283loPI    C1 4513   7.368   9.188  10.940 -0.3343 -0.2157  0.0839
  283loPI    C2 4514   7.724   9.284  11.094 -0.1854 -0.0665 -0.3379
  283loPI    C3 4515   7.430   9.157  11.334 -0.0041  0.2745  0.0791
  283loPI   PO4 4516   7.436   9.241  10.707 -0.2038 -0.4732  0.2213
  283loPI   GL1 4517   7.239   9.212  10.295 -0.2399 -0.3641  0.0629
  283loPI   GL2 4518   7.499   9.288  10.187 -0.0252 -0.2181  0.3697
  283loPI   C1A 4519   7.113   9.344   9.896 -0.0117  0.1761  0.2170
  283loPI   C2A 4520   7.252   9.426   9.427  0.2191  0.1294 -0.0936
  283loPI   C3A 4521   7.200   9.442   8.954 -0.0668 -0.0581 -0.0476
  283loPI   C4A 4522   7.254   9.482   8.583  0.1669  0.0820 -0.2078
  283loPI   C5A 4523   7.435   9.778   8.235 -0.0957 -0.0168 -0.4328
  283loPI   C6A 4524   7.908   9.996   8.367  0.0360  0.3025  0.3509
  283loPI   C1B 4525   7.578   9.163   9.839  0.0563  0.2749 -0.0033
  283loPI   C2B 4526   7.675   9.178   9.389 -0.0096  0.0860 -0.0896
  283loPI   C3B 4527   7.728   9.323   9.017 -0.1547 -0.0205 -0.3284
  283loPI   C4B 4528   7.761   9.506   8.634  0.0442  0.3814 -0.0668
  284loPI    C1 4529   0.703   8.760  10.859 -0.1509  0.0050  0.0082
  284loPI    C2 4530   1.036   8.982  10.859 -0.0896 -0.0839 -0.2473
  284loPI    C3 4531   1.053   8.597  10.964 -0.1209 -0.0757 -0.2121
  284loPI   PO4 4532   0.564   9.032  10.638  0.0151  0.1394 -0.1984
  284loPI   GL1 4533   0.584   9.251  10.240 -0.2410  0.0285 -0.0454
  284loPI   GL2 4534   0.196   9.168  10.335  0.0439 -0.0120 -0.1909
  284loPI   C1A 4535   0.583   9.479   9.879  0.1988  0.2431 -0.1117
  284loPI   C2A 4536   0.636   9.663   9.445  0.1063  0.2327  0.1219
  284loPI   C3A 4537   0.520   9.363   9.026 -0.0673  0.1097 -0.2789
  284loPI   C4A 4538   0.437   9.407   8.607 -0.1400  0.1694 -0.1151
  284loPI   C5A 4539   0.691   9.538   8.198 -0.1493  0.0533 -0.0165
  284loPI   C6A 4540   0.811   9.879   7.954 -0.0608 -0.1030  0.1820
  284loPI   C1B 4541   0.175   9.246   9.890  0.0004  0.1803 -0.2221
  284loPI   C2B 4542   0.259   9.303   9.487 -0.1469 -0.1468 -0.0240
  284loPI   C3B 4543   0.071   9.314   9.090  0.1979 -0.1485 -0.0890
  284loPI   C4B 4544  -0.078   9.521   8.713 -0.0485  0.3091 -0.2356
  285loPI    C1 4545  12.653   8.344  10.330  0.1481  0.0485  0.0697
  285loPI    C2 4546  12.868   8.074  10.533 -0.1200 -0.2952 -0.0938
  285loPI    C3 4547  12.514   8.195  10.675  0.0561  0.0729  0.0433
  285loPI   PO4 4548  12.742   8.328  10.133  0.1265  0.0313  0.1527
  285loPI   GL1 4549  12.649   8.327   9.709  0.4321  0.1388  0.3411
  285loPI   GL2 4550  12.652   7.970   9.821 -0.1609  0.0258  0.1822
  285loPI   C1A 4551  12.677   8.427   9.285  0.0178  0.0293 -0.3402
  285loPI   C2A 4552  12.643   8.445   8.857  0.1179 -0.0127  0.1295
  285loPI   C3A 4553  12.639   8.561   8.379  0.0470 -0.0977 -0.3368
  285loPI   C4A 4554  12.354   8.414   8.065 -0.0853  0.3181  0.2702
  285loPI   C5A 4555  11.966   8.280   8.091 -0.0071 -0.2689 -0.1406
  285loPI   C6A 4556  11.750   8.121   8.412  0.0070  0.3582 -0.0195
  285loPI   C1B 4557  12.710   7.918   9.297 -0.0502 -0.1657  0.0752
  285loPI   C2B 4558  12.739   7.873   8.942 -0.1047 -0.2526 -0.1836
  285loPI   C3B 4559  12.682   7.704   8.543  0.2450  0.2055 -0.1513
  285loPI   C4B 4560  12.673   7.911   8.081  0.2459  0.3910  0.1596
  286loPI    C1 4561  16.449  14.456  10.930 -0.0732  0.3768 -0.1040
  286loPI    C2 4562  16.428  14.317  11.304 -0.0887  0.2624 -0.1468
  286loPI    C3 4563  16.585  14.678  11.233  0.0698  0.2142 -0.0473
  286loPI   PO4 4564  16.568  14.236  10.789 -0.1952 -0.2512 -0.1414
  286loPI   GL1 4565  16.511  13.904  10.522  0.2591  0.2692  0.1890
  286loPI   GL2 4566  16.188  13.838  10.398  0.0102 -0.1873  0.0881
  286loPI   C1A 4567  16.633  13.857  10.156  0.0565  0.0263 -0.3826
  286loPI   C2A 4568  16.408  13.919   9.782 -0.1727  0.1046  0.1313
  286loPI   C3A 4569  16.195  13.936   9.395 -0.0785  0.0351 -0.0007
  286loPI   C4A 4570  16.160  13.921   9.044  0.2197 -0.3970  0.0638
  286loPI   C5A 4571  16.148  13.770   8.585 -0.2377  0.2928 -0.2195
  286loPI   C6A 4572  15.959  13.603   8.333  0.2101 -0.1172  0.3340
  286loPI   C1B 4573  15.837  13.729  10.149  0.2015 -0.1083  0.3742
  286loPI   C2B 4574  15.897  13.657   9.760 -0.0800  0.0444  0.5078
  286loPI   C3B 4575  15.857  13.531   9.316 -0.0529 -0.0898 -0.1652
  286loPI   C4B 4576  15.870  13.521   8.875  0.0218  0.0721  0.2119
  287loPI    C1 4577   5.514  13.328  11.427  0.0863  0.1190  0.0136
  287loPI    C2 4578   5.541  13.577  11.739  0.1343 -0.0761  0.1673
  287loPI    C3 4579   5.183  13.442  11.620  0.1069  0.0759  0.0744
  287loPI   PO4 4580   5.615  13.485  11.173 -0.2054  0.1671  0.1431
  287loPI   GL1 4581   5.668  13.404  10.768  0.2931 -0.2042 -0.0126
  287loPI   GL2 4582   5.788  13.157  10.530 -0.1056 -0.0205 -0.0742
  287loPI   C1A 4583   5.606  13.649  10.411 -0.0767 -0.1079  0.0493
  287loPI   C2A 4584   5.637  13.670   9.884  0.0881  0.1823 -0.0393
  287loPI   C3A 4585   5.638  13.796   9.434  0.1245  0.3462 -0.0298
  287loPI   C4A 4586   5.666  13.726   8.962 -0.0215 -0.0090  0.0157
  287loPI   C5A 4587   5.649  14.104   8.632 -0.1185  0.1677 -0.1368
  287loPI   C6A 4588   5.765  14.171   8.188  0.1805 -0.0178 -0.0583
  287loPI   C1B 4589   5.793  13.209  10.104  0.1295 -0.0457 -0.1368
  287loPI   C2B 4590   5.814  13.276   9.655  0.1074 -0.2242 -0.2390
  287loPI   C3B 4591   5.961  13.334   9.270 -0.0602 -0.1930  0.1167
  287loPI   C4B 4592   5.926  13.356   8.728 -0.3124  0.1380 -0.2178
  288loPI    C1 4593  17.028  17.317  11.074  0.1023  0.0040 -0.1468
  288loPI    C2 4594  17.121  17.223  11.452  0.1473  0.1472 -0.1214
  288loPI    C3 4595  17.186  17.594  11.317 -0.1422  0.1781 -0.1828
  288loPI   PO4 4596  17.048  17.282  10.852  0.0010 -0.0603 -0.3089
  288loPI   GL1 4597  17.172  17.520  10.539  0.0441  0.5394  0.1124
  288loPI   GL2 4598  17.133  17.772  10.400  0.0992  0.2680  0.0904
  288loPI   C1A 4599  17.424  17.403  10.202  0.1268 -0.3687 -0.2407
  288loPI   C2A 4600  17.501  17.394   9.853  0.0896  0.0207  0.1839
  288loPI   C3A 4601  17.403  17.353   9.488 -0.3693  0.3392 -0.2104
  288loPI   C4A 4602  17.446  17.249   9.047  0.4146 -0.0620  0.0600
  288loPI   C5A 4603  17.481  17.074   8.667  0.0916  0.3495 -0.1449
  288loPI   C6A 4604  17.512  16.708   8.415 -0.1257 -0.0043  0.2017
  288loPI   C1B 4605  17.341  17.872   9.906  0.1217  0.1241  0.0467
  288loPI   C2B 4606  17.333  17.882   9.427  0.2821  0.1058  0.0082
  288loPI   C3B 4607  17.344  17.830   9.068  0.0237 -0.2455  0.0032
  288loPI   C4B 4608  17.369  17.566   8.669 -0.3178 -0.0035  0.0923
  289loPI    C1 4609  10.577   6.826  10.631  0.0987  0.1753 -0.0202
  289loPI    C2 4610  10.875   6.685  10.857  0.0692  0.2489  0.0650
  289loPI    C3 4611  10.560   6.861  11.029 -0.1986 -0.1558  0.0018
  289loPI   PO4 4612  10.670   6.721  10.342  0.0452  0.1946  0.0036
  289loPI   GL1 4613  10.680   6.766   9.965  0.1611  0.0511 -0.2739
  289loPI   GL2 4614  10.899   7.001   9.904  0.0708 -0.1742  0.1811
  289loPI   C1A 4615  10.468   6.679   9.577 -0.0349 -0.3134 -0.1302
  289loPI   C2A 4616  10.561   6.711   9.114 -0.1330 -0.2881 -0.1661
  289loPI   C3A 4617  10.548   6.703   8.716 -0.0227  0.0857  0.0194
  289loPI   C4A 4618  10.516   6.801   8.302 -0.1041 -0.0276  0.0461
  289loPI   C5A 4619  10.624   7.080   7.985 -0.1818  0.1704 -0.1214
  289loPI   C6A 4620  11.034   7.092   7.927 -0.0726 -0.0295  0.2403
  289loPI   C1B 4621  10.837   7.008   9.430 -0.0804  0.1833 -0.1958
  289loPI   C2B 4622  10.910   7.113   8.921 -0.0007 -0.0839  0.1206
  289loPI   C3B 4623  10.952   6.949   8.534 -0.0492  0.0668  0.1380
  289loPI   C4B 4624  11.023   6.672   8.264  0.0848 -0.3306  0.1442
  290loPI    C1 4625  17.468   8.533  10.760 -0.0224 -0.1753  0.0291
  290loPI    C2 4626  17.085   8.626  10.827 -0.0024 -0.1154  0.0608
  290loPI    C3 4627  17.197   8.242  10.807 -0.0769 -0.1331 -0.0218
  290loPI   PO4 4628  17.541   8.776  10.581  0.3340  0.1254 -0.0259
  290loPI   GL1 4629  17.592   8.746  10.201 -0.2527  0.0121  0.1869
  290loPI   GL2 4630  17.388   9.017  10.161  0.1974  0.0560  0.0086
  290loPI   C1A 4631  17.720   8.762   9.770 -0.0225 -0.0279 -0.1213
  290loPI   C2A 4632  17.702   8.837   9.389  0.1641 -0.1156  0.0534
  290loPI   C3A 4633  17.625   8.860   9.016  0.0058  0.2215 -0.1162
  290loPI   C4A 4634  17.839   8.969   8.677 -0.0900  0.0864  0.0328
  290loPI   C5A 4635  17.964   8.846   8.284 -0.1019 -0.2377  0.1014
  290loPI   C6A 4636  17.783   9.010   7.835 -0.2054 -0.2939  0.0680
  290loPI   C1B 4637  17.262   8.946   9.727 -0.1862  0.2744 -0.2396
  290loPI   C2B 4638  17.231   8.935   9.266  0.0245  0.1156 -0.1791
  290loPI   C3B 4639  17.220   8.873   8.823 -0.0348 -0.0133  0.1903
  290loPI   C4B 4640  17.403   9.043   8.453  0.0501  0.1156  0.1338
  291loPI    C1 4641   4.389  11.030  11.012  0.0025  0.1182 -0.1383
  291loPI    C2 4642   4.619  11.357  11.027 -0.0198  0.1228  0.1569
  291loPI    C3 4643   4.546  11.148  11.360 -0.0361 -0.1632 -0.0227
  291loPI   PO4 4644   4.361  10.984  10.791  0.1097  0.0027  0.0601
  291loPI   GL1 4645   4.339  10.855  10.428 -0.1255  0.0683  0.0118
  291loPI   GL2 4646   4.110  10.998  10.274  0.2394 -0.0225  0.1768
  291loPI   C1A 4647   4.709  10.856  10.153  0.3263 -0.1689  0.2188
  291loPI   C2A 4648   4.805  10.830   9.783  0.1266 -0.0554 -0.0007
  291loPI   C3A 4649   4.799  10.767   9.361 -0.0703  0.1323  0.1177
  291loPI   C4A 4650   4.872  10.700   9.007 -0.0419  0.0364 -0.0385
  291loPI   C5A 4651   5.041  10.612   8.567  0.0094  0.1290 -0.0308
  291loPI   C6A 4652   5.416  10.617   8.347 -0.1692  0.1884  0.2376
  291loPI   C1B 4653   4.238  10.900   9.854 -0.0804 -0.3178 -0.3465
  291loPI   C2B 4654   4.324  10.893   9.472 -0.1594 -0.2351  0.2867
  291loPI   C3B 4655   4.345  10.822   9.019 -0.0217  0.0885 -0.1542
  291loPI   C4B 4656   4.601  10.949   8.707 -0.1863 -0.0462  0.0571
  292loPI    C1 4657  12.417  11.593  10.459 -0.1643 -0.0336 -0.0825
  292loPI    C2 4658  12.361  11.988  10.423  0.1626  0.0018 -0.2339
  292loPI    C3 4659  12.471  11.833  10.775  0.3053  0.0819 -0.2422
  292loPI   PO4 4660  12.246  11.460  10.359 -0.2210  0.2498  0.0229
  292loPI   GL1 4661  11.861  11.579  10.209 -0.0200 -0.2615 -0.0119
  292loPI   GL2 4662  11.614  11.493  10.017  0.0917 -0.1985  0.0143
  292loPI   C1A 4663  11.990  11.439   9.715  0.1150  0.2406  0.1867
  292loPI   C2A 4664  11.903  11.367   9.360  0.4233 -0.2032  0.0554
  292loPI   C3A 4665  11.984  11.502   8.956  0.0223  0.5136  0.2406
  292loPI   C4A 4666  12.101  11.486   8.605 -0.0676 -0.3297 -0.3791
  292loPI   C5A 4667  12.323  11.400   8.201  0.0961  0.0427  0.0280
  292loPI   C6A 4668  12.589  11.225   7.855  0.1964 -0.3216  0.1517
  292loPI   C1B 4669  11.456  11.293   9.627 -0.2629 -0.2120 -0.2200
  292loPI   C2B 4670  11.454  11.256   9.211  0.3436  0.1484  0.0513
  292loPI   C3B 4671  11.285  11.163   8.808  0.1242 -0.0704  0.0606
  292loPI   C4B 4672  11.077  11.301   8.449  0.0005  0.0795  0.1121
  293loPI    C1 4673   9.859  11.559  10.904  0.0725 -0.0580  0.0493
  293loPI    C2 4674   9.858  11.331  11.233 -0.1057 -0.1376 -0.0051
  293loPI    C3 4675  10.136  11.615  11.187 -0.0607 -0.1474  0.1990
  293loPI   PO4 4676   9.795  11.436  10.720 -0.2716  0.2073 -0.0096
  293loPI   GL1 4677   9.892  11.537  10.281  0.0519  0.0594 -0.0389
  293loPI   GL2 4678  10.104  11.650  10.075 -0.1395 -0.1977  0.0219
  293loPI   C1A 4679   9.608  11.631   9.964  0.3478  0.0465  0.1968
  293loPI   C2A 4680   9.533  11.603   9.495 -0.1560  0.2053 -0.0482
  293loPI   C3A 4681   9.389  11.671   9.039 -0.2740 -0.0829 -0.1622
  293loPI   C4A 4682   9.281  11.577   8.601 -0.1611  0.0266 -0.1057
  293loPI   C5A 4683   9.292  11.252   8.343 -0.1741 -0.2092 -0.3156
  293loPI   C6A 4684   8.921  10.971   8.217  0.0780  0.0577  0.2698
  293loPI   C1B 4685  10.002  11.576   9.598 -0.1369 -0.1655 -0.4792
  293loPI   C2B 4686   9.912  11.509   9.172 -0.1785  0.2231  0.1238
  293loPI   C3B 4687   9.829  11.492   8.736  0.1005 -0.2899 -0.0139
  293loPI   C4B 4688   9.800  11.288   8.352 -0.0003 -0.1803 -0.0435
  294loPI    C1 4689   5.083  11.941  10.986 -0.2796  0.1121 -0.2711
  294loPI    C2 4690   5.100  12.093  11.355  0.0191 -0.0320 -0.2229
  294loPI    C3 4691   4.810  11.835  11.259 -0.1996  0.1869 -0.1614
  294loPI   PO4 4692   5.091  12.135  10.828 -0.0797  0.1205 -0.2151
  294loPI   GL1 4693   4.975  12.102  10.428  0.2431  0.2242 -0.2316
  294loPI   GL2 4694   5.139  12.398  10.420 -0.0143 -0.0034 -0.0452
  294loPI   C1A 4695   5.006  11.715  10.174  0.1686  0.1198  0.2461
  294loPI   C2A 4696   5.031  11.650   9.815 -0.1774 -0.1259  0.2971
  294loPI   C3A 4697   5.185  11.660   9.429 -0.2818 -0.0560 -0.2779
  294loPI   C4A 4698   5.116  11.676   8.956  0.0112 -0.0640  0.2508
  294loPI   C5A 4699   5.472  11.586   8.709  0.3192  0.1343  0.2405
  294loPI   C6A 4700   5.592  11.792   8.325  0.1418  0.0267 -0.1622
  294loPI   C1B 4701   5.185  12.408  10.015  0.3144  0.0164  0.2584
  294loPI   C2B 4702   5.237  12.529   9.589 -0.1628 -0.1266  0.0690
  294loPI   C3B 4703   5.244  12.550   9.109 -0.0264  0.0213 -0.1350
  294loPI   C4B 4704   5.085  12.515   8.728 -0.0193  0.2456  0.1661
  295loPI    C1 4705  10.709  14.129  11.140  0.2114 -0.1818 -0.0404
  295loPI    C2 4706  10.840  14.082  11.515 -0.0988 -0.1223  0.0780
  295loPI    C3 4707  10.502  13.904  11.397  0.0895 -0.2857 -0.2275
  295loPI   PO4 4708  10.901  14.009  10.913 -0.3165 -0.0526  0.3645
  295loPI   GL1 4709  11.232  14.177  10.698 -0.1923 -0.0092  0.1293
  295loPI   GL2 4710  11.492  14.255  10.578 -0.1494  0.0172 -0.3134
  295loPI   C1A 4711  11.132  14.374  10.188 -0.0717 -0.1511 -0.4009
  295loPI   C2A 4712  11.233  14.428   9.774  0.1627 -0.1975  0.2509
  295loPI   C3A 4713  11.218  14.457   9.299  0.2429 -0.0557 -0.2383
  295loPI   C4A 4714  11.139  14.423   8.908 -0.1186  0.0594  0.2092
  295loPI   C5A 4715  10.981  14.159   8.549 -0.0363 -0.1584  0.2654
  295loPI   C6A 4716  10.907  14.269   8.149 -0.1179  0.2213  0.0287
  295loPI   C1B 4717  11.620  14.637  10.302  0.0692 -0.1150  0.1129
  295loPI   C2B 4718  11.564  14.806   9.920 -0.1018  0.0868 -0.3604
  295loPI   C3B 4719  11.581  14.766   9.469 -0.0733  0.1447 -0.0428
  295loPI   C4B 4720  11.550  14.903   9.037 -0.1857 -0.0037  0.0579
  296loPI    C1 4721  14.094  12.754  11.019  0.0696 -0.1854 -0.0272
  296loPI    C2 4722  14.096  13.042  10.742  0.0559 -0.2116 -0.0544
  296loPI    C3 4723  14.171  13.132  11.124  0.0663 -0.1742 -0.0653
  296loPI   PO4 4724  13.981  12.512  10.867  0.2807  0.1490 -0.0119
  296loPI   GL1 4725  14.021  12.644  10.374  0.1770  0.1499 -0.1711
  296loPI   GL2 4726  14.091  12.277  10.390 -0.0555  0.0238  0.0174
  296loPI   C1A 4727  14.294  12.770   9.961  0.0993  0.1788 -0.2316
  296loPI   C2A 4728  14.444  12.836   9.550 -0.0188 -0.0207 -0.0949
  296loPI   C3A 4729  14.698  12.897   9.151  0.1913 -0.2757 -0.1863
  296loPI   C4A 4730  14.743  12.743   8.704  0.0027 -0.0527 -0.1046
  296loPI   C5A 4731  14.807  12.814   8.309  0.3611 -0.0188  0.0620
  296loPI   C6A 4732  14.713  13.020   8.021 -0.0370 -0.0800 -0.1016
  296loPI   C1B 4733  13.955  12.415   9.960  0.3569 -0.1610  0.0897
  296loPI   C2B 4734  13.895  12.469   9.519 -0.0218 -0.1849 -0.0731
  296loPI   C3B 4735  14.122  12.392   9.205  0.1932  0.0612  0.3618
  296loPI   C4B 4736  14.279  12.487   8.836  0.0012  0.2529 -0.0638
  297loPI    C1 4737   9.699   5.651  10.337 -0.0158  0.1102 -0.0455
  297loPI    C2 4738   9.932   5.949  10.467  0.0494  0.0091  0.0705
  297loPI    C3 4739   9.837   5.647  10.712  0.0384 -0.0994 -0.0666
  297loPI   PO4 4740   9.633   5.700  10.113  0.0804 -0.1376 -0.0188
  297loPI   GL1 4741   9.832   5.912   9.883  0.0068 -0.1638 -0.3123
  297loPI   GL2 4742  10.043   5.891   9.714  0.0515 -0.1725 -0.1765
  297loPI   C1A 4743   9.576   5.993   9.490 -0.1899  0.1609  0.0933
  297loPI   C2A 4744   9.487   5.964   8.957 -0.1352  0.2641  0.0018
  297loPI   C3A 4745   9.470   6.022   8.514 -0.1548 -0.3234 -0.1139
  297loPI   C4A 4746   9.691   5.846   8.200  0.0311 -0.0820  0.0903
  297loPI   C5A 4747  10.036   5.788   7.898  0.0956  0.0181  0.2023
  297loPI   C6A 4748  10.365   5.433   7.934 -0.1502 -0.2968  0.3676
  297loPI   C1B 4749   9.971   5.940   9.224 -0.1395 -0.1465 -0.0272
  297loPI   C2B 4750   9.986   5.892   8.775  0.2771 -0.1627  0.0301
  297loPI   C3B 4751  10.105   6.043   8.337 -0.1893 -0.0583  0.0986
  297loPI   C4B 4752   9.996   6.251   7.958  0.2381  0.0188 -0.0399
  298loPI    C1 4753   5.785  14.799  11.058 -0.0173  0.3231 -0.1284
  298loPI    C2 4754   5.950  14.974  11.378 -0.0284 -0.0524  0.0880
  298loPI    C3 4755   5.588  14.805  11.406 -0.0453 -0.0560 -0.1341
  298loPI   PO4 4756   5.754  15.012  10.891 -0.0218  0.0133 -0.0590
  298loPI   GL1 4757   5.686  15.019  10.489 -0.0851 -0.0122 -0.1694
  298loPI   GL2 4758   5.379  15.138  10.528 -0.0688 -0.1182  0.0409
  298loPI   C1A 4759   5.767  14.630  10.185  0.0585 -0.2349  0.0371
  298loPI   C2A 4760   5.904  14.589   9.780  0.1023 -0.0163 -0.1847
  298loPI   C3A 4761   5.911  14.624   9.358  0.1520  0.2104 -0.1384
  298loPI   C4A 4762   6.062  14.778   8.988  0.2740 -0.1376 -0.0464
  298loPI   C5A 4763   6.174  14.815   8.524 -0.0634  0.0362  0.2749
  298loPI   C6A 4764   6.016  15.023   8.234 -0.0892 -0.0394 -0.0248
  298loPI   C1B 4765   5.205  15.269  10.138  0.0246 -0.1035 -0.1710
  298loPI   C2B 4766   5.200  15.298   9.636  0.0743 -0.0617  0.0122
  298loPI   C3B 4767   5.143  15.193   9.243 -0.0389 -0.0479  0.0561
  298loPI   C4B 4768   5.406  15.262   8.879  0.0582 -0.1753 -0.1476
  299loPI    C1 4769  15.826   1.330  10.722  0.2291  0.0411 -0.0017
  299loPI    C2 4770  15.814   1.699  10.874 -0.0740  0.0555 -0.0533
  299loPI    C3 4771  15.766   1.383  11.114  0.1562  0.0489 -0.0136
  299loPI   PO4 4772  15.820   1.351  10.452 -0.0001 -0.0066 -0.0420
  299loPI   GL1 4773  16.090   1.220  10.094 -0.0586  0.3081  0.2754
  299loPI   GL2 4774  16.003   1.541   9.983  0.0437 -0.1088  0.0064
  299loPI   C1A 4775  16.209   0.987   9.725  0.2086 -0.1428 -0.0361
  299loPI   C2A 4776  16.222   0.804   9.287  0.0712 -0.1952 -0.3621
  299loPI   C3A 4777  16.153   0.987   8.961  0.2105  0.2489 -0.0088
  299loPI   C4A 4778  16.166   1.046   8.516  0.1328  0.1312 -0.0436
  299loPI   C5A 4779  15.830   1.180   8.227 -0.0102 -0.0222  0.0278
  299loPI   C6A 4780  15.735   1.102   7.796  0.0717  0.1009  0.2321
  299loPI   C1B 4781  15.970   1.359   9.614  0.1793  0.1160  0.4573
  299loPI   C2B 4782  15.956   1.411   9.202  0.2327  0.2106  0.4298
  299loPI   C3B 4783  15.976   1.397   8.767  0.0438  0.0667  0.1332
  299loPI   C4B 4784  16.153   1.625   8.455 -0.0193 -0.3131 -0.0123
  300loPI    C1 4785   9.357   3.291  10.540  0.1688 -0.1623 -0.1193
  300loPI    C2 4786   9.279   3.490  10.877  0.0776 -0.1808 -0.1293
  300loPI    C3 4787   9.139   3.626  10.527  0.1715 -0.1620 -0.1597
  300loPI   PO4 4788   9.568   3.247  10.388 -0.2616  0.1252 -0.1960
  300loPI   GL1 4789   9.484   3.425   9.923  0.2497 -0.2020  0.1630
  300loPI   GL2 4790   9.170   3.445  10.028 -0.0188  0.2120 -0.0521
  300loPI   C1A 4791   9.445   3.324   9.528  0.0281 -0.0055  0.1132
  300loPI   C2A 4792   9.428   3.283   9.111  0.1301  0.0037  0.2111
  300loPI   C3A 4793   9.348   3.001   8.820  0.0731 -0.1007  0.1732
  300loPI   C4A 4794   9.222   2.825   8.393 -0.1572  0.0664  0.1366
  300loPI   C5A 4795   9.303   2.499   8.102 -0.0189  0.1340 -0.1072
  300loPI   C6A 4796   9.513   2.363   7.765  0.2508 -0.1873  0.2328
  300loPI   C1B 4797   8.886   3.353   9.739 -0.0846 -0.0266  0.2048
  300loPI   C2B 4798   8.826   3.236   9.388 -0.0540 -0.0912  0.0207
  300loPI   C3B 4799   8.947   3.195   8.973 -0.0757  0.1304 -0.0250
  300loPI   C4B 4800   9.045   3.292   8.510  0.0614 -0.1559  0.2448
  301loPI    C1 4801   4.557  14.235  11.343  0.0259  0.0813 -0.3009
  301loPI    C2 4802   4.728  14.519  11.566 -0.3937 -0.0211  0.1704
  301loPI    C3 4803   4.920  14.174  11.500 -0.1687  0.1015  0.1739
  301loPI   PO4 4804   4.515  14.336  11.134  0.1094  0.0597 -0.0583
  301loPI   GL1 4805   4.624  14.485  10.683 -0.1037  0.0463 -0.0751
  301loPI   GL2 4806   4.967  14.425  10.704  0.1462  0.0112  0.0023
  301loPI   C1A 4807   4.538  14.485  10.191  0.0253 -0.0986 -0.0611
  301loPI   C2A 4808   4.522  14.398   9.795  0.0307  0.1074 -0.1498
  301loPI   C3A 4809   4.511  14.480   9.292 -0.0458 -0.0857 -0.0285
  301loPI   C4A 4810   4.566  14.432   8.878 -0.2531 -0.0230 -0.1455
  301loPI   C5A 4811   4.480  14.507   8.559 -0.1657  0.1237  0.1255
  301loPI   C6A 4812   4.220  14.708   8.222 -0.3314  0.0825 -0.3038
  301loPI   C1B 4813   5.017  14.292  10.240  0.2075 -0.1112  0.1842
  301loPI   C2B 4814   5.023  14.405   9.792 -0.1232  0.1769  0.0212
  301loPI   C3B 4815   5.016  14.311   9.322 -0.1249 -0.0481 -0.1190
  301loPI   C4B 4816   5.073  14.363   8.894 -0.0137 -0.2040 -0.0077
  302loPI    C1 4817  13.333   5.108  10.746  0.0194 -0.1043  0.0497
  302loPI    C2 4818  13.075   5.402  10.827  0.0047 -0.0457 -0.2040
  302loPI    C3 4819  13.296   5.244  11.120 -0.0688  0.1404 -0.0463
  302loPI   PO4 4820  13.514   5.298  10.567  0.2751 -0.2611 -0.2327
  302loPI   GL1 4821  13.453   5.408  10.172 -0.1067  0.0071  0.1659
  302loPI   GL2 4822  13.203   5.293   9.937 -0.1027  0.1536 -0.0438
  302loPI   C1A 4823  13.754   5.416   9.855  0.0623  0.0912  0.0934
  302loPI   C2A 4824  13.895   5.525   9.449 -0.1981  0.0593  0.1790
  302loPI   C3A 4825  13.935   5.621   8.997 -0.1677  0.1514  0.1289
  302loPI   C4A 4826  13.932   5.660   8.664  0.0493  0.1965 -0.1842
  302loPI   C5A 4827  13.962   5.882   8.247  0.1767 -0.0612 -0.1051
  302loPI   C6A 4828  14.108   6.056   7.902 -0.1759 -0.0416 -0.2264
  302loPI   C1B 4829  13.403   5.376   9.530 -0.0449 -0.1499  0.3672
  302loPI   C2B 4830  13.417   5.382   9.213  0.0475  0.1531  0.0771
  302loPI   C3B 4831  13.451   5.494   8.807  0.1986 -0.0618 -0.1602
  302loPI   C4B 4832  13.389   5.613   8.349 -0.2418  0.0162 -0.1237
  303loPI    C1 4833   5.357   9.663  11.196 -0.0596 -0.1481 -0.1561
  303loPI    C2 4834   5.322   9.690  11.593 -0.0136  0.0853 -0.1662
  303loPI    C3 4835   5.684   9.664  11.426 -0.0295  0.0590 -0.1967
  303loPI   PO4 4836   5.204   9.916  11.052 -0.1721  0.2483 -0.2892
  303loPI   GL1 4837   5.353  10.023  10.629 -0.1022  0.0365 -0.3175
  303loPI   GL2 4838   5.412  10.338  10.557 -0.3694 -0.2533 -0.2966
  303loPI   C1A 4839   5.475  10.066  10.175  0.0394 -0.0164  0.0414
  303loPI   C2A 4840   5.537  10.035   9.785  0.3193 -0.0190 -0.4552
  303loPI   C3A 4841   5.514  10.097   9.356 -0.4190 -0.1130  0.1424
  303loPI   C4A 4842   5.550  10.073   8.857 -0.2496  0.0514 -0.1282
  303loPI   C5A 4843   5.710  10.244   8.498 -0.0349  0.0317  0.0267
  303loPI   C6A 4844   6.080  10.263   8.305  0.1420  0.1087  0.2190
  303loPI   C1B 4845   5.695  10.486  10.311 -0.1349 -0.2769  0.2018
  303loPI   C2B 4846   5.864  10.433   9.845 -0.0088  0.0588  0.1235
  303loPI   C3B 4847   5.938  10.468   9.436 -0.0493  0.0669  0.1403
  303loPI   C4B 4848   6.008  10.427   9.003  0.4212  0.0488  0.0663
  304loPI    C1 4849   1.822  13.085  11.107 -0.1597  0.0089 -0.0562
  304loPI    C2 4850   2.112  12.848  11.250 -0.0273  0.0825 -0.1991
  304loPI    C3 4851   1.893  13.071  11.501  0.0359  0.0225 -0.0898
  304loPI   PO4 4852   1.959  13.196  10.951 -0.2719 -0.1841 -0.2009
  304loPI   GL1 4853   2.217  12.974  10.732 -0.0587 -0.1149 -0.2265
  304loPI   GL2 4854   2.445  13.142  10.794  0.0614 -0.3042  0.0191
  304loPI   C1A 4855   2.090  13.039  10.267 -0.1608  0.0730  0.1693
  304loPI   C2A 4856   2.048  13.200   9.848  0.0104 -0.0192 -0.2039
  304loPI   C3A 4857   2.108  13.119   9.388  0.0161 -0.0783 -0.1956
  304loPI   C4A 4858   2.086  13.202   9.039  0.1025  0.0903  0.0260
  304loPI   C5A 4859   2.354  13.300   8.720  0.1327  0.2233 -0.1258
  304loPI   C6A 4860   2.552  13.338   8.277 -0.0862 -0.3165 -0.0380
  304loPI   C1B 4861   2.387  13.398  10.450 -0.1281 -0.2650  0.1531
  304loPI   C2B 4862   2.386  13.526  10.038 -0.0334 -0.2987 -0.0269
  304loPI   C3B 4863   2.488  13.576   9.592 -0.1288  0.2007 -0.0410
  304loPI   C4B 4864   2.469  13.516   9.225 -0.1066 -0.3790  0.1143
  305loPI    C1 4865   7.835   8.192  11.081  0.2073 -0.0523  0.0850
  305loPI    C2 4866   7.485   8.202  11.275  0.0198  0.1119 -0.2538
  305loPI    C3 4867   7.826   8.252  11.477 -0.1704  0.2795  0.0335
  305loPI   PO4 4868   7.859   8.381  10.800 -0.3219 -0.3513 -0.0277
  305loPI   GL1 4869   8.039   8.468  10.395 -0.0437  0.0606  0.0982
  305loPI   GL2 4870   7.659   8.329  10.338  0.0036  0.0496 -0.1403
  305loPI   C1A 4871   8.247   8.371   9.987  0.0885 -0.1353  0.0218
  305loPI   C2A 4872   8.279   8.364   9.552 -0.3955  0.2640 -0.3814
  305loPI   C3A 4873   8.253   8.451   9.187  0.0942  0.0055 -0.1381
  305loPI   C4A 4874   8.253   8.639   8.846 -0.0123 -0.0054  0.2024
  305loPI   C5A 4875   8.452   8.732   8.506 -0.1455 -0.2017  0.1477
  305loPI   C6A 4876   8.064   8.748   8.302  0.2102  0.0721 -0.2964
  305loPI   C1B 4877   7.717   8.257   9.873  0.3088 -0.0494 -0.0425
  305loPI   C2B 4878   7.854   8.225   9.385  0.0689 -0.2150 -0.1190
  305loPI   C3B 4879   7.811   8.312   8.950  0.2847 -0.2868  0.1191
  305loPI   C4B 4880   7.952   8.319   8.587 -0.0901  0.0891  0.3735
  306loPI    C1 4881   8.649   3.336  10.916  0.1747 -0.1384 -0.2044
  306loPI    C2 4882   8.764   3.071  11.193 -0.1693  0.0689  0.1479
  306loPI    C3 4883   8.906   3.444  11.203 -0.0885  0.0443 -0.0333
  306loPI   PO4 4884   8.686   3.312  10.723  0.2070 -0.0186 -0.0542
  306loPI   GL1 4885   8.482   2.996  10.335  0.0170  0.0741 -0.1098
  306loPI   GL2 4886   8.329   2.618  10.359  0.0840  0.1429  0.2848
  306loPI   C1A 4887   8.607   2.976   9.946 -0.1421 -0.2140 -0.0192
  306loPI   C2A 4888   8.512   2.879   9.539  0.0283 -0.1449  0.0323
  306loPI   C3A 4889   8.639   2.781   9.149 -0.1768 -0.0556 -0.0594
  306loPI   C4A 4890   8.765   2.807   8.801  0.0757  0.0811 -0.0313
  306loPI   C5A 4891   8.802   2.513   8.450 -0.2327 -0.1688  0.0623
  306loPI   C6A 4892   9.042   2.192   8.365 -0.0133 -0.1698 -0.1568
  306loPI   C1B 4893   8.333   2.499   9.878  0.2410 -0.3616 -0.1551
  306loPI   C2B 4894   8.183   2.478   9.406 -0.1037  0.5401 -0.1781
  306loPI   C3B 4895   8.031   2.292   8.978  0.1624 -0.0036  0.0789
  306loPI   C4B 4896   7.676   2.161   8.811  0.1010 -0.0467  0.0720
  307loPI    C1 4897   7.424   4.511  10.810 -0.3714 -0.2366 -0.0281
  307loPI    C2 4898   7.574   4.401  11.164  0.0100  0.1188 -0.0713
  307loPI    C3 4899   7.368   4.742  11.132  0.1883  0.2131 -0.2357
  307loPI   PO4 4900   7.242   4.342  10.722 -0.1248  0.1931 -0.1045
  307loPI   GL1 4901   6.980   4.229  10.353  0.0301  0.1089 -0.2969
  307loPI   GL2 4902   6.869   3.947  10.230  0.0732 -0.0390 -0.0087
  307loPI   C1A 4903   7.323   4.018  10.047  0.1460  0.0488  0.2098
  307loPI   C2A 4904   7.366   4.121   9.569 -0.0588  0.1925  0.0419
  307loPI   C3A 4905   7.299   4.005   9.119  0.5406  0.1803 -0.0343
  307loPI   C4A 4906   7.268   3.897   8.726  0.1592 -0.0407 -0.1719
  307loPI   C5A 4907   7.220   3.595   8.315  0.0674  0.4080 -0.2143
  307loPI   C6A 4908   7.124   3.465   7.917 -0.0052 -0.3312  0.1726
  307loPI   C1B 4909   6.916   3.900   9.788  0.2151  0.2413 -0.0356
  307loPI   C2B 4910   6.901   3.907   9.398 -0.2160 -0.1697  0.1511
  307loPI   C3B 4911   6.832   3.731   8.976  0.1161  0.0500 -0.1182
  307loPI   C4B 4912   6.952   3.414   8.708 -0.0231  0.0733  0.0166
  308loPI    C1 4913  15.028   9.177  10.608  0.1981  0.0796 -0.1089
  308loPI    C2 4914  14.717   9.182  10.860  0.0917 -0.0675 -0.2355
  308loPI    C3 4915  15.090   9.162  11.003  0.0432  0.0904 -0.0836
  308loPI   PO4 4916  14.949   9.342  10.430 -0.1093  0.0663 -0.1515
  308loPI   GL1 4917  15.103   9.451  10.124  0.0702  0.0460  0.0688
  308loPI   GL2 4918  15.358   9.641  10.009 -0.1483  0.2350 -0.1228
  308loPI   C1A 4919  15.160   9.337   9.656 -0.0018 -0.0066  0.2525
  308loPI   C2A 4920  15.152   9.366   9.136 -0.1284 -0.1916 -0.2904
  308loPI   C3A 4921  15.165   9.433   8.624 -0.2608 -0.1227  0.2517
  308loPI   C4A 4922  15.279   9.330   8.226 -0.3407  0.2343 -0.1364
  308loPI   C5A 4923  15.574   9.407   7.898 -0.1139 -0.0445  0.0686
  308loPI   C6A 4924  15.675   9.422   7.475  0.0810 -0.0964 -0.0254
  308loPI   C1B 4925  15.439   9.717   9.553  0.0585 -0.0548 -0.0276
  308loPI   C2B 4926  15.413   9.741   9.114  0.0834  0.0498 -0.0850
  308loPI   C3B 4927  15.486   9.847   8.613 -0.3231  0.0195  0.0898
  308loPI   C4B 4928  15.450   9.828   8.230 -0.1233 -0.0401  0.1134
  309loPI    C1 4929   7.795   1.180  11.048  0.1735  0.0757  0.0780
  309loPI    C2 4930   7.642   1.146  11.416  0.2269  0.0134  0.0946
  309loPI    C3 4931   7.920   1.423  11.340  0.0828  0.1491  0.0563
  309loPI   PO4 4932   7.755   0.932  10.982  0.2893  0.2022 -0.3391
  309loPI   GL1 4933   7.822   0.993  10.551  0.4400 -0.0362  0.1571
  309loPI   GL2 4934   7.448   1.109  10.606  0.1759  0.1328 -0.1030
  309loPI   C1A 4935   7.684   1.006  10.029 -0.1478 -0.0419  0.0788
  309loPI   C2A 4936   7.859   0.989   9.653  0.0355  0.1623 -0.1654
  309loPI   C3A 4937   7.952   0.722   9.371  0.1114  0.2883 -0.3371
  309loPI   C4A 4938   7.947   0.755   8.923  0.0371 -0.1127  0.0588
  309loPI   C5A 4939   8.302   0.759   8.594  0.0312  0.3783 -0.1076
  309loPI   C6A 4940   8.343   1.056   8.507  0.1302 -0.1104  0.0819
  309loPI   C1B 4941   7.236   1.034  10.247 -0.3545  0.1024 -0.0429
  309loPI   C2B 4942   7.199   0.921   9.776  0.0022  0.0647  0.0683
  309loPI   C3B 4943   7.392   0.872   9.483 -0.0367 -0.0232 -0.2202
  309loPI   C4B 4944   7.491   0.777   9.173 -0.1555  0.1188 -0.0010
  310loPI    C1 4945   9.242   8.890  11.292 -0.1131  0.2112 -0.2925
  310loPI    C2 4946   8.845   8.844  11.268 -0.1289  0.0218  0.2065
  310loPI    C3 4947   9.008   9.008  11.594  0.2162 -0.0564  0.0777
  310loPI   PO4 4948   9.250   8.962  10.922 -0.1936  0.0212 -0.4281
  310loPI   GL1 4949   9.328   9.031  10.476  0.1618  0.0384  0.5190
  310loPI   GL2 4950   9.046   9.010  10.296 -0.2477  0.0439 -0.0165
  310loPI   C1A 4951   9.576   9.026  10.039  0.2510 -0.1506 -0.0034
  310loPI   C2A 4952   9.543   9.017   9.642  0.2878 -0.0397  0.2868
  310loPI   C3A 4953   9.587   9.151   9.259 -0.0999 -0.0235  0.0439
  310loPI   C4A 4954   9.517   9.244   8.876  0.0521  0.0346  0.4664
  310loPI   C5A 4955   9.459   9.335   8.449  0.2943  0.5239 -0.2331
  310loPI   C6A 4956   9.531   9.513   8.052  0.2220  0.1790  0.1081
  310loPI   C1B 4957   9.044   9.129   9.809  0.2001 -0.4006 -0.2787
  310loPI   C2B 4958   9.046   9.251   9.477 -0.2102 -0.1990 -0.0715
  310loPI   C3B 4959   9.092   9.449   9.061 -0.2038  0.1151  0.1369
  310loPI   C4B 4960   9.294   9.673   8.763  0.1174  0.0454 -0.1804
  311loPI    C1 4961  15.703   3.219  10.536  0.0958 -0.1640 -0.0642
  311loPI    C2 4962  15.978   3.024  10.751  0.0033 -0.1463  0.0715
  311loPI    C3 4963  15.677   3.212  10.935 -0.0421 -0.0783 -0.0711
  311loPI   PO4 4964  15.633   3.114  10.314  0.2060 -0.2051  0.1317
  311loPI   GL1 4965  15.725   3.288   9.876  0.0664 -0.0775  0.2045
  311loPI   GL2 4966  15.345   3.268   9.839  0.1328 -0.1621 -0.2005
  311loPI   C1A 4967  15.768   3.245   9.448  0.0878 -0.5335  0.1049
  311loPI   C2A 4968  15.738   3.270   8.968  0.0416  0.2777 -0.1783
  311loPI   C3A 4969  15.928   3.148   8.634  0.1600 -0.1397  0.1547
  311loPI   C4A 4970  16.030   3.127   8.217 -0.0340  0.0741 -0.1575
  311loPI   C5A 4971  15.937   3.031   7.797 -0.3494  0.1789 -0.3007
  311loPI   C6A 4972  15.661   2.913   7.585 -0.0300  0.0218  0.1379
  311loPI   C1B 4973  15.250   3.318   9.440 -0.2754  0.2890 -0.1103
  311loPI   C2B 4974  15.201   3.372   8.975 -0.0306  0.1885 -0.0982
  311loPI   C3B 4975  15.341   3.216   8.553  0.0519 -0.0394 -0.1415
  311loPI   C4B 4976  15.362   2.982   8.122  0.3861  0.0530  0.2265
  312loPI    C1 4977   6.721  16.416  11.219 -0.1109  0.4071  0.0567
  312loPI    C2 4978   6.917  16.565  11.535  0.0297  0.1463  0.0955
  312loPI    C3 4979   6.659  16.264  11.584 -0.0183  0.1671 -0.0259
  312loPI   PO4 4980   6.940  16.490  10.986 -0.0936 -0.0919  0.0608
  312loPI   GL1 4981   7.017  16.554  10.654 -0.0094 -0.0359  0.1870
  312loPI   GL2 4982   7.384  16.463  10.715 -0.0668  0.0128  0.0779
  312loPI   C1A 4983   6.894  16.427  10.152  0.0695 -0.0787  0.1090
  312loPI   C2A 4984   6.822  16.360   9.776  0.0484  0.1727  0.2723
  312loPI   C3A 4985   6.717  16.422   9.254  0.0013 -0.2420 -0.1822
  312loPI   C4A 4986   6.814  16.292   8.830  0.0959  0.0486 -0.0332
  312loPI   C5A 4987   7.138  16.267   8.606 -0.1174 -0.0610 -0.0530
  312loPI   C6A 4988   7.475  16.201   8.286  0.1738  0.5217  0.0332
  312loPI   C1B 4989   7.288  16.213  10.364 -0.1351 -0.1947  0.1316
  312loPI   C2B 4990   7.331  16.237   9.943 -0.0668 -0.0480  0.0589
  312loPI   C3B 4991   7.231  16.233   9.537 -0.0728 -0.0535  0.0437
  312loPI   C4B 4992   7.273  16.227   9.133  0.0366 -0.1338  0.0591
  313loPI    C1 4993   3.273  14.901  11.086 -0.1770  0.0209  0.2532
  313loPI    C2 4994   3.211  15.225  10.859 -0.0637 -0.1802 -0.0714
  313loPI    C3 4995   3.135  15.238  11.252 -0.0192  0.2509 -0.0724
  313loPI   PO4 4996   3.140  14.719  10.916  0.1667  0.1851 -0.2768
  313loPI   GL1 4997   2.896  14.713  10.570  0.1885 -0.1898 -0.2589
  313loPI   GL2 4998   2.479  14.787  10.527  0.1250  0.0917  0.0687
  313loPI   C1A 4999   2.957  14.793  10.099  0.2861 -0.0627 -0.0662
  313loPI   C2A 5000   3.015  14.806   9.633 -0.0274 -0.1699  0.1000
  313loPI   C3A 5001   2.955  14.770   9.230 -0.0554 -0.2103 -0.0310
  313loPI   C4A 5002   3.036  14.752   8.810  0.1169  0.0784  0.3142
  313loPI   C5A 5003   3.094  14.525   8.499 -0.2020  0.1572 -0.0456
  313loPI   C6A 5004   3.346  14.115   8.360  0.1705  0.1540 -0.0269
  313loPI   C1B 5005   2.564  14.399  10.317 -0.0081 -0.3210  0.2143
  313loPI   C2B 5006   2.649  14.430   9.897  0.0185  0.1395 -0.0833
  313loPI   C3B 5007   2.717  14.411   9.461 -0.3365  0.0398 -0.0383
  313loPI   C4B 5008   2.586  14.386   9.065 -0.2221 -0.0051 -0.3346
  314loPI    C1 5009   5.167   0.563  11.185 -0.3430  0.0804  0.0383
  314loPI    C2 5010   5.103   0.212  11.365 -0.2141  0.0597  0.0444
  314loPI    C3 5011   5.290   0.506  11.561  0.1233 -0.0360 -0.1251
  314loPI   PO4 5012   4.937   0.514  11.010  0.1424  0.0643  0.0126
  314loPI   GL1 5013   4.792   0.243  10.601  0.0481  0.1595 -0.4289
  314loPI   GL2 5014   4.956   0.553  10.461  0.1897 -0.3211  0.1986
  314loPI   C1A 5015   4.946   0.125  10.235 -0.2709  0.1356  0.2702
  314loPI   C2A 5016   4.833   0.105   9.833  0.0347 -0.2487 -0.0270
  314loPI   C3A 5017   4.893  -0.003   9.411  0.3008 -0.1342 -0.0148
  314loPI   C4A 5018   4.990  -0.060   8.946  0.1046 -0.1418 -0.1308
  314loPI   C5A 5019   5.028  -0.105   8.595  0.1398 -0.3716  0.1049
  314loPI   C6A 5020   4.769  -0.052   8.260 -0.0845 -0.1821 -0.4119
  314loPI   C1B 5021   5.119   0.574  10.003 -0.1381  0.3281  0.3477
  314loPI   C2B 5022   5.142   0.446   9.525 -0.0232 -0.0396 -0.1409
  314loPI   C3B 5023   5.270   0.284   9.144 -0.0839 -0.4145 -0.2766
  314loPI   C4B 5024   5.532   0.170   8.808  0.0911 -0.0585  0.1519
  315loPI    C1 5025   4.922   4.572  10.474 -0.0523 -0.1142 -0.1463
  315loPI    C2 5026   4.763   4.866  10.694 -0.2076 -0.0723 -0.3119
  315loPI    C3 5027   4.861   4.518  10.866  0.0976  0.1178 -0.0885
  315loPI   PO4 5028   4.690   4.574  10.187 -0.1288 -0.0601  0.1032
  315loPI   GL1 5029   4.337   4.671   9.887 -0.0983  0.1026 -0.1327
  315loPI   GL2 5030   4.550   4.920   9.925 -0.2592  0.0544  0.0851
  315loPI   C1A 5031   4.529   4.625   9.530  0.0547 -0.0853  0.1322
  315loPI   C2A 5032   4.540   4.538   9.185  0.0183 -0.1309 -0.0449
  315loPI   C3A 5033   4.643   4.635   8.772  0.0394  0.2815 -0.0864
  315loPI   C4A 5034   4.617   4.726   8.346  0.0096  0.0119  0.0219
  315loPI   C5A 5035   4.279   4.659   7.986  0.2415  0.1901 -0.1519
  315loPI   C6A 5036   3.845   4.839   7.959 -0.2727  0.2632  0.0574
  315loPI   C1B 5037   4.843   5.068   9.623 -0.3048  0.2548  0.0429
  315loPI   C2B 5038   4.955   4.960   9.250  0.2712  0.0177 -0.1745
  315loPI   C3B 5039   5.019   4.991   8.810 -0.0527  0.0871  0.0882
  315loPI   C4B 5040   5.084   4.871   8.430  0.1114  0.2030  0.0386
  316loPI    C1 5041  17.492   7.031  10.346 -0.2187 -0.0721  0.1397
  316loPI    C2 5042  17.622   6.806  10.649  0.0536  0.0048  0.0828
  316loPI    C3 5043  17.528   7.189  10.712  0.2741  0.0676  0.0385
  316loPI   PO4 5044  17.653   7.047  10.165 -0.0737 -0.0069 -0.3057
  316loPI   GL1 5045  17.948   7.033   9.962 -0.0995  0.1527 -0.0804
  316loPI   GL2 5046  17.995   7.284   9.968  0.1336  0.0619 -0.2217
  316loPI   C1A 5047  17.967   7.019   9.553  0.0353  0.2175  0.1065
  316loPI   C2A 5048  18.052   7.175   9.264 -0.2110  0.1138 -0.0931
  316loPI   C3A 5049  18.145   7.317   8.908 -0.0465  0.0362 -0.2308
  316loPI   C4A 5050  18.274   7.420   8.515 -0.2145  0.1126  0.1702
  316loPI   C5A 5051  18.429   7.505   8.138 -0.0363  0.1903  0.0092
  316loPI   C6A 5052  18.621   7.330   7.865 -0.1135  0.2830  0.1301
  316loPI   C1B 5053  18.259   7.444   9.598 -0.2806  0.0158 -0.0078
  316loPI   C2B 5054  18.473   7.516   9.225 -0.1862 -0.0460 -0.0836
  316loPI   C3B 5055  18.595   7.656   8.826  0.0431  0.1210 -0.1229
  316loPI   C4B 5056  18.821   7.617   8.416  0.0882  0.1305 -0.0571
  317loPI    C1 5057   5.037   8.976  10.669  0.0127  0.1294 -0.1029
  317loPI    C2 5058   5.192   9.161  10.988 -0.3377  0.2127  0.0243
  317loPI    C3 5059   4.982   8.824  11.035 -0.2002  0.1015 -0.1452
  317loPI   PO4 5060   5.164   9.141  10.476 -0.3040  0.0983 -0.1406
  317loPI   GL1 5061   5.224   9.116  10.053  0.2274  0.0173  0.0829
  317loPI   GL2 5062   5.053   8.923  10.046  0.0658 -0.1176  0.0476
  317loPI   C1A 5063   5.336   9.178   9.648 -0.0012 -0.2965 -0.1916
  317loPI   C2A 5064   5.265   9.198   9.292 -0.1026  0.0946 -0.1502
  317loPI   C3A 5065   5.368   9.211   8.966 -0.1002 -0.0371  0.0563
  317loPI   C4A 5066   5.369   9.231   8.519  0.1349  0.1385  0.2489
  317loPI   C5A 5067   5.064   9.254   8.165  0.1199  0.1170 -0.2148
  317loPI   C6A 5068   4.673   9.163   8.155 -0.1841 -0.1702  0.1628
  317loPI   C1B 5069   4.938   8.859   9.610 -0.0396  0.2475 -0.1552
  317loPI   C2B 5070   4.962   8.824   9.178  0.1208 -0.0336 -0.1570
  317loPI   C3B 5071   5.025   8.920   8.816 -0.0327 -0.3299 -0.0689
  317loPI   C4B 5072   5.056   8.775   8.401 -0.4031 -0.1600  0.1827
  318loPI    C1 5073  11.166   5.918  10.088  0.1147 -0.2037 -0.0718
  318loPI    C2 5074  11.508   5.857  10.286  0.1116  0.0571  0.0182
  318loPI    C3 5075  11.174   5.668  10.400  0.1726 -0.0128  0.0817
  318loPI   PO4 5076  11.303   5.852   9.811 -0.1368 -0.1911 -0.0197
  318loPI   GL1 5077  11.311   6.015   9.404 -0.0059 -0.1699  0.0050
  318loPI   GL2 5078  11.408   6.281   9.562 -0.4643  0.1280  0.1427
  318loPI   C1A 5079  11.319   5.937   8.980  0.2003 -0.1248  0.0191
  318loPI   C2A 5080  11.470   5.806   8.565  0.2458 -0.4903 -0.0620
  318loPI   C3A 5081  11.670   5.992   8.279  0.0126  0.1809  0.3090
  318loPI   C4A 5082  12.008   6.102   8.062  0.1031  0.0268 -0.0232
  318loPI   C5A 5083  12.358   5.873   7.917  0.0423  0.5179  0.0218
  318loPI   C6A 5084  12.665   5.688   7.672  0.2470  0.1592  0.1201
  318loPI   C1B 5085  11.452   6.410   9.027  0.0146 -0.3990 -0.0424
  318loPI   C2B 5086  11.561   6.329   8.601  0.0114  0.3864  0.2259
  318loPI   C3B 5087  11.523   6.562   8.172 -0.1110  0.0478  0.1459
  318loPI   C4B 5088  11.527   6.893   7.882 -0.0712  0.2986 -0.0757
  319loPI    C1 5089   5.025   5.667  10.477  0.0240  0.0609 -0.0279
  319loPI    C2 5090   5.226   6.013  10.487 -0.0677  0.1131  0.0207
  319loPI    C3 5091   5.036   5.882  10.814 -0.1002  0.0565 -0.0207
  319loPI   PO4 5092   4.814   5.668  10.333  0.0152 -0.3485  0.0382
  319loPI   GL1 5093   4.661   5.703   9.851  0.1132  0.0490 -0.1595
  319loPI   GL2 5094   4.574   5.444   9.895  0.0322  0.1744 -0.1211
  319loPI   C1A 5095   4.660   5.891   9.460  0.1252 -0.0035 -0.0528
  319loPI   C2A 5096   4.706   5.882   9.008  0.0110  0.2140  0.0453
  319loPI   C3A 5097   4.714   5.713   8.608 -0.3389  0.1749  0.0430
  319loPI   C4A 5098   4.806   5.652   8.130  0.0713 -0.0457 -0.2148
  319loPI   C5A 5099   5.234   5.619   8.002  0.1924  0.3618  0.1387
  319loPI   C6A 5100   5.639   5.419   7.827  0.1566 -0.0047  0.1911
  319loPI   C1B 5101   4.613   5.408   9.399  0.0181 -0.3564  0.2098
  319loPI   C2B 5102   4.679   5.326   8.999 -0.2821 -0.1637 -0.2424
  319loPI   C3B 5103   4.637   5.243   8.465 -0.0293  0.3918  0.0333
  319loPI   C4B 5104   4.954   5.185   8.025  0.1336  0.1990  0.1170
  320loPI    C1 5105  10.398   5.837  10.311  0.1889  0.0399  0.0632
  320loPI    C2 5106  10.618   5.505  10.343 -0.1105 -0.1741 -0.0502
  320loPI    C3 5107  10.278   5.541  10.552 -0.0263  0.1077  0.0420
  320loPI   PO4 5108  10.348   5.900  10.141 -0.4095  0.1720  0.1381
  320loPI   GL1 5109  10.458   5.622   9.844 -0.0695  0.4025  0.2502
  320loPI   GL2 5110  10.742   5.803   9.804  0.0130  0.1190  0.1893
  320loPI   C1A 5111  10.370   5.635   9.414  0.0262  0.0198  0.3247
  320loPI   C2A 5112  10.354   5.587   8.957  0.0544  0.1485  0.1944
  320loPI   C3A 5113  10.430   5.739   8.691 -0.2671 -0.0710  0.1433
  320loPI   C4A 5114  10.517   5.771   8.295  0.1494  0.2159  0.1239
  320loPI   C5A 5115  10.669   5.983   7.941 -0.2279 -0.1644 -0.0882
  320loPI   C6A 5116  10.773   6.483   7.902 -0.3446 -0.0347 -0.1231
  320loPI   C1B 5117  10.831   5.835   9.407  0.4730 -0.1367 -0.0594
  320loPI   C2B 5118  10.840   5.740   9.064 -0.0922  0.0741  0.2546
  320loPI   C3B 5119  10.913   5.834   8.684  0.0182 -0.2459 -0.1073
  320loPI   C4B 5120  11.002   5.719   8.407  0.1296  0.0188 -0.1301
  321loPI    C1 5121   5.727   4.931  10.373  0.1461  0.0889 -0.0591
  321loPI    C2 5122   5.906   5.147  10.658  0.2691 -0.0480 -0.0317
  321loPI    C3 5123   5.818   4.763  10.724  0.0771 -0.0153 -0.0908
  321loPI   PO4 5124   5.883   4.996  10.146 -0.1315 -0.0255 -0.2540
  321loPI   GL1 5125   6.126   4.825   9.900  0.1491  0.0053 -0.0083
  321loPI   GL2 5126   6.362   4.760   9.767  0.2219  0.1547 -0.0047
  321loPI   C1A 5127   6.025   4.907   9.449 -0.1893 -0.0540  0.2686
  321loPI   C2A 5128   5.888   4.965   8.973 -0.0385  0.3720  0.0746
  321loPI   C3A 5129   5.924   5.082   8.583  0.2001  0.1553 -0.2809
  321loPI   C4A 5130   6.142   5.218   8.181  0.2406 -0.3626 -0.0142
  321loPI   C5A 5131   6.516   5.465   7.929  0.0663 -0.0401 -0.1131
  321loPI   C6A 5132   6.825   5.665   8.103 -0.0268  0.0029 -0.0339
  321loPI   C1B 5133   6.516   4.614   9.391 -0.0214  0.1561  0.2344
  321loPI   C2B 5134   6.529   4.601   8.932  0.2221 -0.0148  0.1242
  321loPI   C3B 5135   6.493   4.400   8.436  0.1810 -0.4702 -0.0173
  321loPI   C4B 5136   6.335   4.573   8.059  0.0971  0.0414 -0.1785
  322loPI    C1 5137  11.992   5.563  10.274  0.0552 -0.3215  0.1389
  322loPI    C2 5138  12.141   5.429  10.620 -0.0791 -0.2323  0.2325
  322loPI    C3 5139  11.936   5.772  10.611  0.0525 -0.1574  0.0377
  322loPI   PO4 5140  11.951   5.274  10.154 -0.1775  0.1654  0.0125
  322loPI   GL1 5141  11.883   5.013   9.773 -0.2513  0.3152  0.0776
  322loPI   GL2 5142  11.762   5.212   9.698 -0.0598 -0.0580  0.1573
  322loPI   C1A 5143  12.192   4.891   9.397 -0.3251 -0.0997  0.1769
  322loPI   C2A 5144  12.307   4.827   8.970  0.2383  0.2031 -0.3525
  322loPI   C3A 5145  12.227   4.691   8.553  0.0309 -0.2898 -0.0231
  322loPI   C4A 5146  12.336   4.507   8.200 -0.2166 -0.1069  0.2456
  322loPI   C5A 5147  12.745   4.401   8.077  0.0655  0.1024  0.0429
  322loPI   C6A 5148  13.064   4.110   8.161 -0.0270 -0.1007  0.0416
  322loPI   C1B 5149  11.767   5.192   9.222  0.1206 -0.0157 -0.0774
  322loPI   C2B 5150  11.743   5.136   8.832  0.1847 -0.0893  0.0626
  322loPI   C3B 5151  11.638   5.328   8.450 -0.0357  0.3441  0.0750
  322loPI   C4B 5152  11.843   5.569   8.030  0.0209 -0.2270  0.2131
  323loPI    C1 5153   8.179  12.912  11.026  0.1315 -0.2491  0.1183
  323loPI    C2 5154   8.050  13.230  11.232 -0.0993 -0.1930 -0.1068
  323loPI    C3 5155   8.279  12.955  11.411  0.0610  0.0718  0.1042
  323loPI   PO4 5156   7.991  12.919  10.752 -0.2708 -0.0678 -0.1909
  323loPI   GL1 5157   7.869  12.851  10.319  0.0757  0.0510 -0.0428
  323loPI   GL2 5158   7.601  12.940  10.409  0.0346  0.2453 -0.1116
  323loPI   C1A 5159   7.894  12.922   9.979 -0.0317 -0.1340 -0.1660
  323loPI   C2A 5160   7.866  12.931   9.496 -0.1283  0.1563  0.1254
  323loPI   C3A 5161   7.852  12.899   9.033 -0.0360 -0.2131 -0.2556
  323loPI   C4A 5162   7.851  12.768   8.616 -0.1116  0.3553  0.1576
  323loPI   C5A 5163   7.440  12.697   8.389  0.1354  0.0147 -0.0745
  323loPI   C6A 5164   7.056  12.753   8.156 -0.0903 -0.2193 -0.0777
  323loPI   C1B 5165   7.409  12.983   9.960 -0.2125 -0.2296  0.1764
  323loPI   C2B 5166   7.398  12.990   9.592 -0.1578 -0.1290 -0.0827
  323loPI   C3B 5167   7.394  13.032   9.194  0.2659 -0.0606 -0.0483
  323loPI   C4B 5168   7.424  13.083   8.792 -0.1296  0.0211  0.0276
  324loPI    C1 5169   4.662   0.988  11.041  0.1771 -0.0175 -0.1294
  324loPI    C2 5170   4.444   0.666  11.136 -0.1263  0.1359 -0.2875
  324loPI    C3 5171   4.606   0.892  11.425 -0.2324  0.0573 -0.1656
  324loPI   PO4 5172   4.666   0.929  10.727  0.0489  0.1070 -0.0042
  324loPI   GL1 5173   4.343   0.840  10.403 -0.0496 -0.4126 -0.1903
  324loPI   GL2 5174   4.095   1.116  10.428 -0.2037 -0.0088 -0.0714
  324loPI   C1A 5175   4.672   0.749  10.101  0.3537 -0.2510  0.0915
  324loPI   C2A 5176   4.724   0.622   9.695 -0.0163  0.3584  0.0703
  324loPI   C3A 5177   4.672   0.443   9.335  0.0672 -0.0780  0.0125
  324loPI   C4A 5178   4.769   0.420   8.888 -0.2138  0.1271 -0.1251
  324loPI   C5A 5179   5.138   0.428   8.659  0.1944  0.2567  0.0366
  324loPI   C6A 5180   5.300   0.740   8.328 -0.0626  0.3283  0.4317
  324loPI   C1B 5181   4.059   1.147   9.991  0.0959 -0.0243  0.0617
  324loPI   C2B 5182   3.973   1.176   9.476  0.0999 -0.1447  0.0527
  324loPI   C3B 5183   3.999   1.065   9.057 -0.2031  0.2799 -0.0184
  324loPI   C4B 5184   4.089   0.905   8.678 -0.0610 -0.0588  0.0538
  325loPI    C1 5185   4.309  13.172  11.290 -0.0039  0.0606 -0.1301
  325loPI    C2 5186   4.519  12.841  11.367  0.1964  0.2320  0.0732
  325loPI    C3 5187   4.207  12.938  11.597 -0.0620  0.0193 -0.1805
  325loPI   PO4 5188   4.218  13.171  11.029  0.2334 -0.4047 -0.0637
  325loPI   GL1 5189   4.367  13.062  10.633  0.0012  0.2747  0.0458
  325loPI   GL2 5190   4.078  13.172  10.589  0.2284 -0.0328  0.2541
  325loPI   C1A 5191   4.454  13.020  10.156  0.1038  0.0314 -0.0837
  325loPI   C2A 5192   4.421  13.170   9.857  0.0507  0.1652 -0.2236
  325loPI   C3A 5193   4.531  13.029   9.498  0.1509  0.1978 -0.3110
  325loPI   C4A 5194   4.490  13.143   9.196 -0.1508  0.0636  0.0866
  325loPI   C5A 5195   4.438  13.062   8.844 -0.1345  0.1486  0.1089
  325loPI   C6A 5196   4.210  12.894   8.559 -0.0350  0.1903 -0.2924
  325loPI   C1B 5197   3.901  13.222  10.172  0.0078 -0.2082 -0.1358
  325loPI   C2B 5198   3.909  13.167   9.779 -0.0806  0.0874 -0.0930
  325loPI   C3B 5199   3.998  13.150   9.422  0.0038  0.2680  0.0026
  325loPI   C4B 5200   3.992  13.140   9.000 -0.0920  0.4451  0.1386
  326loPI    C1 5201   3.596  13.921  11.357 -0.1231  0.0587 -0.3179
  326loPI    C2 5202   3.205  13.859  11.417 -0.0601  0.1135  0.1895
  326loPI    C3 5203   3.471  13.747  11.694  0.2947  0.0164 -0.1794
  326loPI   PO4 5204   3.654  13.826  11.087  0.0109  0.1984 -0.0438
  326loPI   GL1 5205   3.610  13.861  10.689 -0.2874  0.1149 -0.0380
  326loPI   GL2 5206   3.710  14.098  10.613 -0.1564 -0.2274 -0.0281
  326loPI   C1A 5207   3.779  13.733  10.276 -0.2369  0.1987  0.0589
  326loPI   C2A 5208   3.774  13.640   9.798 -0.1523 -0.2949 -0.1924
  326loPI   C3A 5209   3.816  13.592   9.351  0.0867  0.1307  0.0209
  326loPI   C4A 5210   3.827  13.702   8.929 -0.2122 -0.0461 -0.1564
  326loPI   C5A 5211   3.610  13.759   8.595 -0.2876 -0.1821  0.4588
  326loPI   C6A 5212   3.604  13.707   8.077  0.2144 -0.0860 -0.2027
  326loPI   C1B 5213   3.672  14.164  10.167 -0.1739  0.0450  0.1813
  326loPI   C2B 5214   3.661  14.147   9.762  0.0184  0.1083  0.0982
  326loPI   C3B 5215   3.690  14.073   9.351  0.1551  0.1457  0.3011
  326loPI   C4B 5216   3.733  14.176   8.928  0.4068  0.0189 -0.0334
  327loPI    C1 5217   2.974  12.169  10.886 -0.2947 -0.0875 -0.0440
  327loPI    C2 5218   3.277  11.913  10.834 -0.1839  0.0205  0.0633
  327loPI    C3 5219   2.917  11.778  10.945 -0.1342 -0.0920  0.0888
  327loPI   PO4 5220   3.021  12.364  10.721  0.1653  0.2462  0.0403
  327loPI   GL1 5221   3.219  12.367  10.421  0.3703  0.1262  0.0375
  327loPI   GL2 5222   3.283  12.035  10.240  0.0680  0.2995  0.0827
  327loPI   C1A 5223   3.220  12.470   9.963 -0.2045  0.4383 -0.1060
  327loPI   C2A 5224   3.247  12.459   9.502 -0.1059  0.0771  0.0258
  327loPI   C3A 5225   3.354  12.402   9.088 -0.1354  0.4124  0.1740
  327loPI   C4A 5226   3.159  12.410   8.725  0.0315  0.0979  0.0364
  327loPI   C5A 5227   3.129  12.770   8.755 -0.1528  0.1960  0.2273
  327loPI   C6A 5228   2.738  12.968   8.574 -0.0780 -0.0200 -0.3036
  327loPI   C1B 5229   3.372  12.027   9.802 -0.2378  0.3246 -0.1155
  327loPI   C2B 5230   3.401  11.949   9.318  0.1132  0.2111  0.0030
  327loPI   C3B 5231   3.486  11.834   8.906 -0.0077  0.1281 -0.1275
  327loPI   C4B 5232   3.857  11.745   8.684  0.2995  0.0893 -0.0587
  328loPI    C1 5233   9.599  14.184  11.095  0.1430  0.1056  0.0618
  328loPI    C2 5234   9.355  14.367  11.353 -0.0343  0.1266 -0.1183
  328loPI    C3 5235   9.611  14.088  11.483 -0.1717  0.0854  0.0689
  328loPI   PO4 5236   9.466  14.140  10.926  0.0905 -0.2222  0.0969
  328loPI   GL1 5237   9.182  14.046  10.569  0.1021  0.2127  0.0658
  328loPI   GL2 5238   8.896  14.171  10.440  0.0390  0.0482 -0.1743
  328loPI   C1A 5239   9.303  14.082  10.126 -0.0724 -0.1071  0.1880
  328loPI   C2A 5240   9.301  14.266   9.698 -0.1463  0.2753  0.0707
  328loPI   C3A 5241   9.280  14.411   9.254  0.2155  0.0629 -0.0014
  328loPI   C4A 5242   9.234  14.508   8.857 -0.0911  0.0525 -0.4248
  328loPI   C5A 5243   9.297  14.556   8.405 -0.0070 -0.2302  0.0299
  328loPI   C6A 5244   9.565  14.493   8.166 -0.0701 -0.1053 -0.0305
  328loPI   C1B 5245   8.907  14.414  10.025 -0.1637 -0.1593  0.0565
  328loPI   C2B 5246   8.833  14.410   9.641 -0.2283  0.1655  0.2529
  328loPI   C3B 5247   8.773  14.551   9.233  0.0045  0.1851 -0.0191
  328loPI   C4B 5248   8.745  14.818   8.801  0.1265  0.0666  0.1654
  329loPI    C1 5249  12.335   2.608  10.657 -0.0322  0.1325  0.0875
  329loPI    C2 5250  12.705   2.625  10.507 -0.0210  0.1635  0.1184
  329loPI    C3 5251  12.579   2.293  10.691 -0.0904  0.0656 -0.1017
  329loPI   PO4 5252  12.198   2.805  10.453 -0.0888  0.5369 -0.2128
  329loPI   GL1 5253  11.894   2.698  10.198 -0.0011  0.1637 -0.1964
  329loPI   GL2 5254  11.627   2.810  10.190 -0.2201 -0.0977  0.1810
  329loPI   C1A 5255  11.958   2.873   9.758 -0.0478 -0.4562 -0.0842
  329loPI   C2A 5256  12.034   3.142   9.468 -0.0051 -0.0269 -0.0235
  329loPI   C3A 5257  12.058   3.172   9.066 -0.1117 -0.1409  0.3640
  329loPI   C4A 5258  12.047   3.114   8.594  0.1491  0.1063 -0.0408
  329loPI   C5A 5259  11.821   3.082   8.298 -0.0813  0.2173 -0.2956
  329loPI   C6A 5260  11.805   2.970   7.945 -0.1330 -0.0166  0.2408
  329loPI   C1B 5261  11.374   2.774   9.798  0.1562 -0.3357  0.3053
  329loPI   C2B 5262  11.098   2.513   9.594 -0.2278 -0.0214  0.2112
  329loPI   C3B 5263  11.113   2.300   9.277  0.1243  0.2446  0.1282
  329loPI   C4B 5264  11.292   2.193   8.960  0.2586  0.1530 -0.0695
  330loPI    C1 5265   1.956   3.009  10.405 -0.0206 -0.1570 -0.2242
  330loPI    C2 5266   1.646   3.168  10.601  0.1741  0.0815 -0.1051
  330loPI    C3 5267   1.928   2.968  10.801  0.0758 -0.1751 -0.2191
  330loPI   PO4 5268   2.011   3.269  10.195  0.3996 -0.1570 -0.0803
  330loPI   GL1 5269   2.155   3.408   9.816  0.2442 -0.2458 -0.0702
  330loPI   GL2 5270   2.142   3.801   9.819  0.2033 -0.1528 -0.0313
  330loPI   C1A 5271   2.480   3.248   9.588 -0.3309  0.1702  0.0269
  330loPI   C2A 5272   2.628   3.298   9.228 -0.1890  0.2937  0.0666
  330loPI   C3A 5273   2.816   3.303   8.806  0.0405  0.0659 -0.2304
  330loPI   C4A 5274   3.011   3.040   8.587 -0.2636 -0.3120 -0.1961
  330loPI   C5A 5275   3.085   2.652   8.516  0.1993 -0.0192 -0.1172
  330loPI   C6A 5276   3.143   2.341   8.205 -0.1211  0.2089  0.3544
  330loPI   C1B 5277   2.322   3.702   9.453 -0.2866  0.2166  0.1618
  330loPI   C2B 5278   2.297   3.613   9.027 -0.0958  0.2364  0.2031
  330loPI   C3B 5279   2.286   3.540   8.628  0.1302  0.2899  0.1831
  330loPI   C4B 5280   2.302   3.340   8.179  0.2200 -0.2153  0.0743
  331loPI    C1 5281  14.225  16.175  11.276  0.0842 -0.1307  0.1118
  331loPI    C2 5282  14.597  16.075  11.170  0.1048  0.1342 -0.0760
  331loPI    C3 5283  14.519  16.446  11.298 -0.1068  0.0997 -0.1029
  331loPI   PO4 5284  14.118  16.114  11.095 -0.1594 -0.2847  0.1238
  331loPI   GL1 5285  14.065  16.086  10.757 -0.3014 -0.2279 -0.1456
  331loPI   GL2 5286  13.728  16.010  10.601 -0.1721  0.4819 -0.0112
  331loPI   C1A 5287  14.233  15.892  10.460  0.0457  0.2379 -0.2116
  331loPI   C2A 5288  14.255  15.766  10.029  0.1380 -0.0284 -0.3160
  331loPI   C3A 5289  14.280  15.707   9.557 -0.0185  0.3870 -0.0351
  331loPI   C4A 5290  14.102  15.723   9.157 -0.1952 -0.1126 -0.3752
  331loPI   C5A 5291  13.990  15.583   8.710  0.1579  0.1016  0.2545
  331loPI   C6A 5292  13.852  15.929   8.387 -0.2108 -0.0066 -0.1009
  331loPI   C1B 5293  13.719  15.887  10.166 -0.1667  0.0121 -0.2989
  331loPI   C2B 5294  13.835  15.879   9.700 -0.2716 -0.0554 -0.0871
  331loPI   C3B 5295  13.647  15.904   9.327 -0.0432  0.3200 -0.2822
  331loPI   C4B 5296  13.684  15.982   8.891  0.1247 -0.1290 -0.2688
  332loPI    C1 5297  11.069   1.804  11.223 -0.1357  0.0510  0.0827
  332loPI    C2 5298  11.191   1.628  11.561 -0.1853  0.1492  0.1523
  332loPI    C3 5299  11.435   1.878  11.366 -0.0445 -0.1376 -0.0479
  332loPI   PO4 5300  10.900   1.545  11.146  0.0012 -0.1662  0.1919
  332loPI   GL1 5301  10.927   1.202  10.924  0.1735 -0.1384  0.1964
  332loPI   GL2 5302  11.184   1.049  10.810 -0.0514 -0.0897  0.2353
  332loPI   C1A 5303  10.956   1.329  10.474 -0.5935  0.0576 -0.1815
  332loPI   C2A 5304  11.066   1.527  10.085  0.3735  0.0398 -0.1428
  332loPI   C3A 5305  11.046   1.369   9.670  0.0576 -0.0574  0.2405
  332loPI   C4A 5306  11.146   1.407   9.290  0.2780 -0.1809  0.1878
  332loPI   C5A 5307  11.150   1.363   8.845  0.0531  0.0575 -0.0335
  332loPI   C6A 5308  11.161   1.203   8.388  0.2428  0.1175  0.1292
  332loPI   C1B 5309  11.334   0.911  10.452  0.1013  0.1251 -0.0749
  332loPI   C2B 5310  11.214   0.998  10.040 -0.2486  0.1329 -0.0147
  332loPI   C3B 5311  11.233   0.919   9.630  0.2248  0.3979  0.1376
  332loPI   C4B 5312  11.340   0.916   9.184  0.0263  0.0565  0.2956
  333loPI    C1 5313  13.665   8.240  10.338 -0.0085 -0.0105  0.1596
  333loPI    C2 5314  13.436   8.004  10.567 -0.0911  0.0073  0.0958
  333loPI    C3 5315  13.794   8.124  10.698 -0.1606  0.0615  0.2385
  333loPI   PO4 5316  13.554   8.224  10.049  0.0683  0.0466 -0.1611
  333loPI   GL1 5317  13.370   8.542   9.847 -0.0262  0.2514 -0.0504
  333loPI   GL2 5318  13.142   8.356   9.742 -0.0208  0.1145  0.2850
  333loPI   C1A 5319  13.524   8.533   9.421 -0.2432 -0.0753  0.1473
  333loPI   C2A 5320  13.486   8.595   9.117  0.1386  0.1051  0.0095
  333loPI   C3A 5321  13.522   8.613   8.745 -0.0683 -0.3342  0.1366
  333loPI   C4A 5322  13.505   8.588   8.315 -0.1945  0.4186  0.0425
  333loPI   C5A 5323  13.465   8.950   8.105  0.1807  0.0787 -0.0313
  333loPI   C6A 5324  13.310   9.383   8.254  0.2172 -0.2592  0.1447
  333loPI   C1B 5325  13.171   8.189   9.347 -0.0957  0.2533 -0.0915
  333loPI   C2B 5326  13.150   8.264   8.916  0.2105 -0.0504  0.2112
  333loPI   C3B 5327  12.925   8.155   8.529  0.2095  0.3620 -0.1559
  333loPI   C4B 5328  13.075   8.190   8.116  0.3031 -0.1283 -0.2068
  334loPI    C1 5329  10.484   8.767  10.590  0.0010  0.0106 -0.2986
  334loPI    C2 5330  10.146   8.706  10.795  0.2917 -0.1488  0.1504
  334loPI    C3 5331  10.228   8.484  10.472 -0.0436 -0.0859  0.0182
  334loPI   PO4 5332  10.404   9.054  10.506 -0.1489 -0.2492 -0.2957
  334loPI   GL1 5333  10.319   9.282  10.160 -0.0209 -0.0509  0.4373
  334loPI   GL2 5334  10.249   9.593  10.139  0.3614 -0.0072 -0.0154
  334loPI   C1A 5335  10.636   9.518   9.849  0.1326  0.0899 -0.0206
  334loPI   C2A 5336  10.676   9.767   9.508  0.0022  0.3280  0.3902
  334loPI   C3A 5337  10.650  10.047   9.194 -0.2368  0.2219  0.0349
  334loPI   C4A 5338  10.629  10.380   8.852 -0.6551  0.1322  0.2272
  334loPI   C5A 5339  10.608  10.470   8.347  0.2014 -0.0454 -0.1387
  334loPI   C6A 5340  10.316  10.557   8.025 -0.2800  0.0971 -0.3410
  334loPI   C1B 5341  10.183   9.741   9.688  0.1679  0.0573  0.0121
  334loPI   C2B 5342  10.096   9.829   9.197 -0.2733  0.2929  0.0285
  334loPI   C3B 5343  10.149  10.021   8.727  0.1488 -0.2637 -0.1058
  334loPI   C4B 5344   9.878  10.000   8.324 -0.0223 -0.2269  0.2800
  335loPI    C1 5345   3.056  17.310  10.877  0.1978  0.0412  0.1603
  335loPI    C2 5346   2.923  17.217  10.511  0.1170 -0.1263  0.2308
  335loPI    C3 5347   3.193  16.983  10.691  0.0008 -0.1608  0.3626
  335loPI   PO4 5348   3.127  17.553  10.835 -0.0907 -0.0310 -0.0521
  335loPI   GL1 5349   3.113  17.807  10.563 -0.0215 -0.0562 -0.0542
  335loPI   GL2 5350   3.071  18.159  10.554 -0.0680 -0.0866  0.2762
  335loPI   C1A 5351   3.401  17.768  10.181  0.1533  0.1302 -0.0724
  335loPI   C2A 5352   3.468  17.657   9.678 -0.0641 -0.2520  0.2246
  335loPI   C3A 5353   3.611  17.487   9.404 -0.1267  0.0389  0.1167
  335loPI   C4A 5354   3.645  17.387   8.933  0.0014 -0.0015  0.3647
  335loPI   C5A 5355   3.465  17.548   8.613  0.0157  0.0468  0.1243
  335loPI   C6A 5356   3.294  17.447   8.220  0.1353 -0.1316  0.2915
  335loPI   C1B 5357   2.994  18.022  10.107 -0.0727 -0.0262 -0.1401
  335loPI   C2B 5358   2.949  17.766   9.863  0.1474  0.2363  0.0832
  335loPI   C3B 5359   3.054  17.664   9.381 -0.3769  0.0341 -0.0311
  335loPI   C4B 5360   3.163  17.596   9.026 -0.0184 -0.1602 -0.2718
  336loPI    C1 5361   0.764   4.930  10.607  0.0292 -0.2938 -0.0301
  336loPI    C2 5362   1.079   4.687  10.652  0.0270 -0.2535  0.2204
  336loPI    C3 5363   0.911   4.858  10.972 -0.0334  0.0017  0.0560
  336loPI   PO4 5364   0.953   5.016  10.299 -0.0699  0.3076 -0.0339
  336loPI   GL1 5365   0.935   5.108   9.897  0.0215  0.4201  0.1107
  336loPI   GL2 5366   0.980   4.837   9.771  0.1476  0.0288 -0.1616
  336loPI   C1A 5367   0.791   5.185   9.470 -0.1801 -0.0915 -0.0227
  336loPI   C2A 5368   0.612   5.184   8.958  0.0476 -0.0163 -0.2799
  336loPI   C3A 5369   0.549   5.220   8.533 -0.0860  0.5023 -0.3842
  336loPI   C4A 5370   0.306   5.194   8.215 -0.1410 -0.0788 -0.1684
  336loPI   C5A 5371   0.344   5.281   7.763  0.1044  0.0775  0.0980
  336loPI   C6A 5372   0.271   5.233   7.232 -0.0647 -0.0180  0.1149
  336loPI   C1B 5373   0.945   4.707   9.353  0.0042 -0.0953 -0.1203
  336loPI   C2B 5374   0.686   4.614   9.008  0.0722  0.0164  0.3044
  336loPI   C3B 5375   0.600   4.748   8.650 -0.0146  0.3687  0.0042
  336loPI   C4B 5376   0.548   4.792   8.186 -0.0366 -0.1568  0.3301
  337loPI    C1 5377   6.320  12.379  11.241  0.4773 -0.0952  0.1608
  337loPI    C2 5378   6.222  12.723  11.422 -0.1324 -0.0746 -0.1812
  337loPI    C3 5379   6.294  12.395  11.640  0.2005  0.2010  0.1354
  337loPI   PO4 5380   6.392  12.432  11.000 -0.1125  0.0013 -0.0347
  337loPI   GL1 5381   6.117  12.716  10.756 -0.1936  0.1053  0.3693
  337loPI   GL2 5382   6.281  12.999  10.681 -0.0698  0.2394  0.0104
  337loPI   C1A 5383   5.998  12.764  10.306  0.1441 -0.0566 -0.2292
  337loPI   C2A 5384   5.956  12.832   9.846  0.2556 -0.0790 -0.0431
  337loPI   C3A 5385   6.020  12.841   9.385 -0.1135 -0.0801 -0.0055
  337loPI   C4A 5386   6.165  12.899   8.925 -0.1385  0.1500 -0.0120
  337loPI   C5A 5387   6.313  13.022   8.606 -0.2201  0.3590 -0.0486
  337loPI   C6A 5388   6.551  13.052   8.272  0.2627  0.1887  0.3108
  337loPI   C1B 5389   6.361  13.128  10.236  0.1998 -0.4811 -0.0603
  337loPI   C2B 5390   6.251  13.190   9.794  0.3185 -0.1473  0.0531
  337loPI   C3B 5391   6.413  13.134   9.420  0.1925  0.2111 -0.0180
  337loPI   C4B 5392   6.422  13.347   8.964 -0.1226 -0.0918 -0.1062
  338loPI    C1 5393   3.086   6.304  10.493 -0.1859 -0.1558 -0.1365
  338loPI    C2 5394   3.347   6.128  10.741 -0.2086 -0.2319 -0.1665
  338loPI    C3 5395   3.006   6.279  10.884  0.0994  0.3686 -0.0361
  338loPI   PO4 5396   3.095   6.150  10.287  0.3620  0.3808  0.1309
  338loPI   GL1 5397   3.274   6.136   9.866  0.3609 -0.1987  0.1942
  338loPI   GL2 5398   3.443   5.984   9.647  0.0215 -0.0443 -0.0193
  338loPI   C1A 5399   3.473   6.553   9.754  0.2214 -0.2053  0.0189
  338loPI   C2A 5400   3.523   6.581   9.299  0.0910  0.0956 -0.1716
  338loPI   C3A 5401   3.532   6.415   8.925 -0.0954 -0.1509  0.0082
  338loPI   C4A 5402   3.349   6.489   8.582 -0.0450 -0.3964  0.0244
  338loPI   C5A 5403   3.237   6.536   8.132 -0.1000  0.3028 -0.2439
  338loPI   C6A 5404   3.307   6.847   7.927 -0.0773  0.0692 -0.3566
  338loPI   C1B 5405   3.475   6.043   9.240 -0.0183 -0.0883  0.1116
  338loPI   C2B 5406   3.326   6.018   8.756  0.0293  0.1265 -0.1850
  338loPI   C3B 5407   3.220   6.093   8.356  0.1738 -0.0125 -0.0426
  338loPI   C4B 5408   3.443   6.105   7.923  0.1203  0.0531 -0.0689
  339POPI    C1 5409  14.905  10.208  10.613  0.0784  0.0259 -0.0408
  339POPI    C2 5410  14.947  10.600  10.679  0.0337  0.0443 -0.1193
  339POPI    C3 5411  14.986  10.341  10.981 -0.0402  0.1169 -0.0467
  339POPI   PO4 5412  14.598  10.176  10.477  0.2202  0.1881  0.0585
  339POPI   GL1 5413  14.513  10.163  10.095 -0.3011  0.0107  0.3604
  339POPI   GL2 5414  14.235  10.359   9.967 -0.1138  0.0972 -0.0121
  339POPI   C1A 5415  14.524  10.123   9.618 -0.2361 -0.0582  0.0429
  339POPI   D2A 5416  14.623  10.157   9.202 -0.0570  0.0909  0.1206
  339POPI   C3A 5417  14.487  10.072   8.801  0.0871  0.0742  0.4549
  339POPI   C4A 5418  14.505  10.218   8.361 -0.2326 -0.0732  0.1787
  339POPI   C1B 5419  14.297  10.505   9.572  0.1659 -0.1210  0.2799
  339POPI   C2B 5420  14.335  10.537   9.084  0.1493  0.2894 -0.0790
  339POPI   C3B 5421  14.396  10.605   8.668 -0.1343  0.1003  0.4358
  339POPI   C4B 5422  14.409  10.768   8.243 -0.1841  0.0721 -0.0002
  340POPI    C1 5423   0.990   0.342  10.761 -0.1915 -0.0104  0.3578
  340POPI    C2 5424   1.290   0.607  10.761 -0.0898 -0.1218  0.0657
  340POPI    C3 5425   0.974   0.663  10.999 -0.0127  0.1965  0.0974
  340POPI   PO4 5426   0.912   0.329  10.531  0.3937  0.0039  0.0861
  340POPI   GL1 5427   0.899   0.520  10.130  0.2774  0.1892  0.0569
  340POPI   GL2 5428   0.804   0.788  10.081 -0.0574  0.0156  0.3883
  340POPI   C1A 5429   0.553   0.284   9.913  0.1408 -0.1943 -0.1415
  340POPI   D2A 5430   0.528   0.316   9.429  0.0748  0.0498  0.1391
  340POPI   C3A 5431   0.673   0.309   8.988  0.2227 -0.0043 -0.2311
  340POPI   C4A 5432   0.634   0.406   8.591  0.1525  0.0038  0.3771
  340POPI   C1B 5433   0.909   0.656   9.686  0.0383 -0.0561 -0.2757
  340POPI   C2B 5434   0.901   0.661   9.283  0.2235  0.2533  0.0654
  340POPI   C3B 5435   0.983   0.625   8.845  0.3096  0.0393  0.1146
  340POPI   C4B 5436   1.170   0.492   8.444 -0.0768 -0.0521 -0.0847
  341POPI    C1 5437   2.748   4.020  10.617 -0.0290 -0.0478 -0.0646
  341POPI    C2 5438   2.565   4.176  10.937 -0.0149 -0.1954  0.0164
  341POPI    C3 5439   2.819   3.870  10.981  0.0946 -0.1253 -0.1201
  341POPI   PO4 5440   2.532   4.133  10.362 -0.1761  0.0904 -0.3201
  341POPI   GL1 5441   2.297   4.272   9.917  0.3391  0.0845  0.0605
  341POPI   GL2 5442   2.614   4.142   9.877  0.0980  0.0834 -0.2878
  341POPI   C1A 5443   2.117   4.215   9.529  0.1483  0.0945  0.0029
  341POPI   D2A 5444   1.791   4.427   9.364  0.3788  0.2125 -0.2146
  341POPI   C3A 5445   1.802   4.327   8.944 -0.0573 -0.1388  0.1514
  341POPI   C4A 5446   1.894   4.247   8.488 -0.2329  0.0034  0.0444
  341POPI   C1B 5447   2.626   4.240   9.443 -0.1024 -0.0608  0.1461
  341POPI   C2B 5448   2.461   4.158   9.069  0.0431  0.2108 -0.1806
  341POPI   C3B 5449   2.318   4.054   8.674 -0.0985 -0.5097  0.1574
  341POPI   C4B 5450   2.456   3.863   8.236  0.2025 -0.0582 -0.1246
  342POPI    C1 5451  11.893   0.601  11.194  0.3002 -0.0213 -0.0958
  342POPI    C2 5452  11.880   0.243  11.372  0.0675  0.0227 -0.0211
  342POPI    C3 5453  11.580   0.503  11.423  0.3111  0.2931  0.0580
  342POPI   PO4 5454  12.146   0.563  11.006 -0.1317 -0.0721 -0.0091
  342POPI   GL1 5455  12.214   0.529  10.656 -0.1421  0.2365 -0.2691
  342POPI   GL2 5456  12.030   0.728  10.499 -0.2954  0.0079 -0.1155
  342POPI   C1A 5457  12.118   0.270  10.395 -0.0149 -0.2607  0.1770
  342POPI   D2A 5458  12.173  -0.136  10.272 -0.0304 -0.0634  0.0170
  342POPI   C3A 5459  12.205  -0.152   9.790  0.0312  0.1362  0.1327
  342POPI   C4A 5460  12.108  -0.203   9.373 -0.2790 -0.1857  0.0068
  342POPI   C1B 5461  11.737   0.503  10.273 -0.0174 -0.2353  0.1790
  342POPI   C2B 5462  11.951   0.392   9.858 -0.2776  0.1292  0.1370
  342POPI   C3B 5463  11.979   0.314   9.395  0.1576  0.1029  0.2038
  342POPI   C4B 5464  12.058   0.094   8.947 -0.0270  0.1543 -0.0841
  343POPI    C1 5465  12.937  10.021  10.573 -0.1806 -0.0509  0.0809
  343POPI    C2 5466  12.896  10.366  10.772 -0.0218 -0.0349  0.0874
  343POPI    C3 5467  13.212  10.132  10.842 -0.0030 -0.0651 -0.0926
  343POPI   PO4 5468  12.814  10.101  10.334 -0.2123  0.1286  0.1143
  343POPI   GL1 5469  12.639  10.176   9.959 -0.1925 -0.2049  0.1521
  343POPI   GL2 5470  12.998  10.444   9.960 -0.1326  0.0262  0.0580
  343POPI   C1A 5471  12.477  10.161   9.536  0.1019  0.1789  0.1849
  343POPI   D2A 5472  12.604  10.160   9.147 -0.1786 -0.1613 -0.0030
  343POPI   C3A 5473  12.458  10.204   8.800 -0.1108  0.2519  0.1402
  343POPI   C4A 5474  12.345   9.989   8.403 -0.1124 -0.1340  0.0793
  343POPI   C1B 5475  12.921  10.498   9.557 -0.0002  0.3314  0.1347
  343POPI   C2B 5476  13.013  10.622   9.144  0.2415 -0.3309 -0.1808
  343POPI   C3B 5477  13.043  10.460   8.716 -0.1711  0.1484  0.1525
  343POPI   C4B 5478  13.097  10.759   8.442  0.1666 -0.1242 -0.1086
  344POPI    C1 5479   7.247  14.529  11.039 -0.2661  0.3921  0.2009
  344POPI    C2 5480   7.274  14.324  11.381 -0.0377  0.0343 -0.0233
  344POPI    C3 5481   7.578  14.555  11.263 -0.0559  0.0409 -0.0571
  344POPI   PO4 5482   7.045  14.260  10.887  0.2243 -0.0272 -0.2441
  344POPI   GL1 5483   6.777  14.187  10.528 -0.1535 -0.1006 -0.0875
  344POPI   GL2 5484   6.419  14.238  10.504 -0.1024  0.0179 -0.0832
  344POPI   C1A 5485   6.765  14.352  10.146  0.0467 -0.0604 -0.0400
  344POPI   D2A 5486   6.883  14.380   9.709 -0.0481 -0.1803 -0.0379
  344POPI   C3A 5487   6.901  14.453   9.302 -0.0094  0.1710 -0.0325
  344POPI   C4A 5488   7.058  14.465   8.822  0.0825 -0.1037 -0.1131
  344POPI   C1B 5489   6.489  13.921  10.210  0.0186 -0.1240 -0.1662
  344POPI   C2B 5490   6.539  13.996   9.801  0.0123  0.0310 -0.1669
  344POPI   C3B 5491   6.542  14.093   9.365 -0.1171 -0.1976  0.2624
  344POPI   C4B 5492   6.622  14.051   8.910  0.1959 -0.0374 -0.0417
  345POPI    C1 5493   5.055  15.784  11.166 -0.0584  0.0068 -0.0061
  345POPI    C2 5494   5.142  16.138  11.329  0.2428 -0.1204  0.1151
  345POPI    C3 5495   5.105  15.814  11.561 -0.0168 -0.1734  0.0032
  345POPI   PO4 5496   5.196  15.873  10.862 -0.1468  0.3467  0.0074
  345POPI   GL1 5497   5.274  15.746  10.450 -0.2496 -0.0911 -0.0300
  345POPI   GL2 5498   5.567  15.936  10.528 -0.0962  0.0479  0.2094
  345POPI   C1A 5499   5.413  15.791  10.037  0.0928  0.1097  0.1948
  345POPI   D2A 5500   5.625  15.550   9.721 -0.1205 -0.2491  0.2387
  345POPI   C3A 5501   5.539  15.506   9.313  0.1619  0.2732  0.0779
  345POPI   C4A 5502   5.559  15.720   9.007  0.1294 -0.2216 -0.0286
  345POPI   C1B 5503   5.359  16.252  10.168 -0.0422  0.2508 -0.1757
  345POPI   C2B 5504   5.397  16.315   9.779 -0.1394  0.4365 -0.1884
  345POPI   C3B 5505   5.348  16.032   9.484  0.2151 -0.0900  0.0273
  345POPI   C4B 5506   5.377  16.213   9.117  0.1128 -0.1565  0.0952
  346POPI    C1 5507  13.591  16.948  11.543 -0.0473  0.3124  0.2376
  346POPI    C2 5508  13.413  16.648  11.739 -0.0163 -0.0370 -0.2511
  346POPI    C3 5509  13.783  16.761  11.840 -0.0999 -0.0315  0.0597
  346POPI   PO4 5510  13.591  16.880  11.213 -0.0258  0.0852 -0.1758
  346POPI   GL1 5511  13.495  16.911  10.815  0.3850  0.0556 -0.0635
  346POPI   GL2 5512  13.802  16.957  10.696  0.1800  0.5540  0.2055
  346POPI   C1A 5513  13.337  16.795  10.358  0.1407 -0.1048 -0.3069
  346POPI   D2A 5514  13.453  16.945   9.973  0.0091 -0.0386 -0.0883
  346POPI   C3A 5515  13.397  16.756   9.677  0.2146  0.2188 -0.1588
  346POPI   C4A 5516  13.373  16.755   9.313 -0.0828 -0.0513 -0.3123
  346POPI   C1B 5517  13.813  16.888  10.282  0.2363 -0.1045 -0.1850
  346POPI   C2B 5518  13.902  16.704   9.924  0.1934  0.1668 -0.2553
  346POPI   C3B 5519  13.919  16.711   9.518 -0.1463  0.0939  0.2787
  346POPI   C4B 5520  13.794  16.856   9.072  0.1002  0.2515 -0.1467
  347POPI    C1 5521   2.770   9.313  10.967  0.1032 -0.1400 -0.1323
  347POPI    C2 5522   3.149   9.239  11.072  0.1593  0.1121 -0.1515
  347POPI    C3 5523   2.955   9.552  11.229  0.0259  0.1027 -0.2950
  347POPI   PO4 5524   2.802   9.194  10.704 -0.0325 -0.0745 -0.3463
  347POPI   GL1 5525   2.827   9.379  10.333 -0.0018  0.2822  0.1324
  347POPI   GL2 5526   2.801   9.777  10.332 -0.1593  0.1732  0.1419
  347POPI   C1A 5527   3.007   9.299   9.897  0.0553 -0.2756  0.0276
  347POPI   D2A 5528   3.292   9.026   9.758  0.0683 -0.2414 -0.0642
  347POPI   C3A 5529   3.327   9.147   9.223 -0.1002  0.2469  0.1091
  347POPI   C4A 5530   3.580   9.172   8.977 -0.1269 -0.2287 -0.1735
  347POPI   C1B 5531   2.748   9.718   9.886  0.1527  0.2236 -0.1799
  347POPI   C2B 5532   2.781   9.743   9.437 -0.0271  0.3430 -0.0861
  347POPI   C3B 5533   2.862   9.423   9.149 -0.0565  0.0485 -0.2164
  347POPI   C4B 5534   2.907   9.242   8.742 -0.1693 -0.2131 -0.2953
  348POPI    C1 5535  17.269  10.029  11.008  0.0094 -0.0716 -0.0193
  348POPI    C2 5536  17.606  10.008  11.222 -0.0027  0.1917  0.0288
  348POPI    C3 5537  17.309  10.248  11.341 -0.3771 -0.3466  0.2165
  348POPI   PO4 5538  17.368  10.050  10.712  0.1586  0.0571 -0.0393
  348POPI   GL1 5539  17.108   9.999  10.299  0.1762  0.1129  0.0156
  348POPI   GL2 5540  17.478  10.002  10.207 -0.1180 -0.0668  0.0343
  348POPI   C1A 5541  17.146  10.385  10.030  0.1906 -0.0266  0.2917
  348POPI   D2A 5542  17.007  10.399   9.644 -0.2444 -0.3680  0.2299
  348POPI   C3A 5543  17.097  10.480   9.209 -0.0654  0.0196 -0.1157
  348POPI   C4A 5544  17.218  10.360   8.839 -0.0424  0.0157 -0.0231
  348POPI   C1B 5545  17.319   9.995   9.775  0.0439  0.0830 -0.1364
  348POPI   C2B 5546  17.396  10.210   9.444 -0.1314 -0.0407  0.0368
  348POPI   C3B 5547  17.711  10.235   9.195  0.2106 -0.2012 -0.0342
  348POPI   C4B 5548  17.829  10.297   8.774 -0.1989 -0.0405 -0.0564
  349POPI    C1 5549  13.063   2.197  10.980 -0.0092  0.2115  0.0123
  349POPI    C2 5550  13.310   2.274  11.284 -0.0367 -0.0989  0.1163
  349POPI    C3 5551  12.917   2.244  11.349 -0.0449 -0.1440  0.0465
  349POPI   PO4 5552  13.107   2.431  10.776 -0.0255 -0.1497 -0.0928
  349POPI   GL1 5553  13.265   2.443  10.325  0.1857 -0.1674  0.0494
  349POPI   GL2 5554  13.069   2.442  10.166  0.2541 -0.0744 -0.0234
  349POPI   C1A 5555  13.564   2.329   9.964 -0.0479 -0.0922 -0.0475
  349POPI   D2A 5556  13.720   2.264   9.589 -0.0648 -0.0714 -0.1285
  349POPI   C3A 5557  13.601   2.195   9.235  0.0959 -0.3380 -0.0891
  349POPI   C4A 5558  13.640   2.295   8.886  0.2255  0.1778  0.1520
  349POPI   C1B 5559  13.080   2.425   9.777  0.1353 -0.1977 -0.1510
  349POPI   C2B 5560  13.114   2.305   9.354 -0.0207  0.0200 -0.1596
  349POPI   C3B 5561  13.166   2.390   8.935 -0.1649  0.0530  0.3461
  349POPI   C4B 5562  13.187   2.392   8.533 -0.0739 -0.0892 -0.3728
  350POPI    C1 5563   9.127  10.331  10.911 -0.1283 -0.0882  0.0566
  350POPI    C2 5564   9.301  10.612  10.685 -0.0752 -0.0403  0.1562
  350POPI    C3 5565   9.014  10.713  10.944 -0.1346 -0.0949  0.1122
  350POPI   PO4 5566   8.965  10.157  10.719  0.1221  0.0163  0.2040
  350POPI   GL1 5567   9.004   9.890  10.474 -0.0421 -0.2044 -0.2767
  350POPI   GL2 5568   8.755   9.654  10.398 -0.0313 -0.0740 -0.1114
  350POPI   C1A 5569   9.066  10.005  10.033  0.2102  0.0568 -0.0314
  350POPI   D2A 5570   9.346  10.139   9.785 -0.3996 -0.0050  0.2780
  350POPI   C3A 5571   9.305  10.214   9.423 -0.0223 -0.0864  0.1030
  350POPI   C4A 5572   9.247  10.044   9.040  0.2605 -0.1692 -0.3359
  350POPI   C1B 5573   8.789   9.591  10.003  0.1941  0.0072  0.0971
  350POPI   C2B 5574   8.955   9.774   9.611 -0.1224  0.0425 -0.1470
  350POPI   C3B 5575   8.881   9.854   9.256  0.2095  0.0056 -0.1813
  350POPI   C4B 5576   8.771   9.894   8.806 -0.3237 -0.1814  0.0297
  351POPI    C1 5577  16.538  13.430  11.173 -0.2747  0.1175 -0.0095
  351POPI    C2 5578  16.631  13.780  11.341 -0.1124  0.0310  0.0837
  351POPI    C3 5579  16.435  13.503  11.552  0.0814 -0.0734  0.1292
  351POPI   PO4 5580  16.412  13.439  10.932  0.0961 -0.2417 -0.0380
  351POPI   GL1 5581  16.689  13.428  10.558 -0.0258  0.0393 -0.1077
  351POPI   GL2 5582  16.949  13.478  10.384  0.0330  0.0334 -0.3534
  351POPI   C1A 5583  16.549  13.202  10.252 -0.1465  0.1218  0.0071
  351POPI   D2A 5584  16.319  13.370   9.934 -0.0305  0.1783  0.0357
  351POPI   C3A 5585  16.399  13.447   9.563 -0.1397  0.0243  0.1418
  351POPI   C4A 5586  16.622  13.764   9.285 -0.1191  0.0712 -0.0852
  351POPI   C1B 5587  16.971  13.342   9.991 -0.0361 -0.0028  0.2630
  351POPI   C2B 5588  16.865  13.301   9.512 -0.2162  0.1239  0.1371
  351POPI   C3B 5589  16.855  13.285   9.037 -0.1690 -0.1437  0.3560
  351POPI   C4B 5590  17.107  13.155   8.784  0.0270  0.0712 -0.1712
  352POPI    C1 5591   1.132   5.816  10.595  0.0718  0.1354  0.0651
  352POPI    C2 5592   0.961   6.145  10.747 -0.2427 -0.0218  0.0594
  352POPI    C3 5593   0.809   5.784  10.828 -0.1348 -0.1403 -0.2508
  352POPI   PO4 5594   1.380   5.933  10.360 -0.1459 -0.2242  0.0307
  352POPI   GL1 5595   1.449   6.212   9.975  0.0008 -0.0296 -0.3764
  352POPI   GL2 5596   1.581   5.962   9.849  0.0954  0.0057  0.0158
  352POPI   C1A 5597   1.352   6.231   9.522 -0.1292  0.2968  0.1735
  352POPI   D2A 5598   1.264   5.995   9.097 -0.0363 -0.1023 -0.1926
  352POPI   C3A 5599   1.082   6.041   8.762 -0.0849 -0.0292 -0.0657
  352POPI   C4A 5600   1.036   5.973   8.363 -0.2889 -0.2056  0.0263
  352POPI   C1B 5601   1.457   5.678   9.548  0.0371 -0.1209 -0.0027
  352POPI   C2B 5602   1.464   5.466   9.101 -0.0565  0.0037 -0.1001
  352POPI   C3B 5603   1.446   5.662   8.762 -0.3001 -0.2543 -0.2002
  352POPI   C4B 5604   1.573   5.778   8.302  0.0352  0.0957  0.0911
  353POPI    C1 5605   8.032   5.608  10.419  0.1084 -0.1783  0.1637
  353POPI    C2 5606   8.321   5.654  10.692 -0.0414 -0.1623  0.3217
  353POPI    C3 5607   8.050   5.362  10.734 -0.1237 -0.0982  0.2416
  353POPI   PO4 5608   8.089   5.903  10.300 -0.1514  0.3174 -0.1006
  353POPI   GL1 5609   7.997   6.117  10.059 -0.2320 -0.0047 -0.0963
  353POPI   GL2 5610   8.236   6.150   9.840 -0.0754 -0.1364  0.1750
  353POPI   C1A 5611   7.572   6.321   9.937 -0.1187 -0.3618  0.0745
  353POPI   D2A 5612   7.334   6.445   9.819  0.1099 -0.0056  0.1139
  353POPI   C3A 5613   7.327   6.385   9.411 -0.0459 -0.1593 -0.1475
  353POPI   C4A 5614   7.410   6.347   9.087 -0.0529 -0.0122  0.0516
  353POPI   C1B 5615   8.244   6.047   9.423  0.3315 -0.1304  0.1517
  353POPI   C2B 5616   8.262   5.935   9.030  0.3797 -0.2457 -0.1714
  353POPI   C3B 5617   8.445   5.872   8.610 -0.2059  0.0902  0.1440
  353POPI   C4B 5618   8.619   5.902   8.195  0.1381  0.3100  0.0965
  354POPI    C1 5619  10.608   8.291  10.834  0.0928 -0.0360 -0.0545
  354POPI    C2 5620  10.800   8.230  11.180 -0.0387  0.0355  0.0322
  354POPI    C3 5621  10.439   8.403  11.180  0.0211  0.1632 -0.1526
  354POPI   PO4 5622  10.792   8.293  10.659 -0.1028  0.1519 -0.0388
  354POPI   GL1 5623  10.855   8.242  10.209  0.0930 -0.0484  0.1127
  354POPI   GL2 5624  10.487   8.225  10.179 -0.0027 -0.0962  0.1983
  354POPI   C1A 5625  10.804   8.422   9.861  0.1061 -0.0861 -0.1257
  354POPI   D2A 5626  10.809   8.421   9.505 -0.2985 -0.0385 -0.3780
  354POPI   C3A 5627  10.779   8.671   9.096 -0.0491 -0.1557 -0.1694
  354POPI   C4A 5628  10.559   8.787   8.715 -0.2732 -0.1373 -0.0553
  354POPI   C1B 5629  10.178   8.389   9.877  0.0681  0.2133  0.0630
  354POPI   C2B 5630  10.174   8.382   9.530 -0.1801  0.0952  0.2147
  354POPI   C3B 5631  10.353   8.232   9.065 -0.0619 -0.1284  0.0317
  354POPI   C4B 5632  10.371   8.202   8.699  0.2959  0.2684 -0.1794
  355POPI    C1 5633   3.321   1.170  10.840 -0.0039 -0.1996  0.1721
  355POPI    C2 5634   3.663   1.075  10.656 -0.0029  0.1597 -0.0197
  355POPI    C3 5635   3.668   1.192  11.038  0.0480 -0.1463  0.0761
  355POPI   PO4 5636   3.160   0.985  10.749  0.2947 -0.3360  0.0123
  355POPI   GL1 5637   3.073   1.082  10.310  0.0765 -0.0788  0.0851
  355POPI   GL2 5638   2.842   1.118  10.266 -0.1841 -0.1384  0.1279
  355POPI   C1A 5639   3.140   0.913   9.834  0.1480 -0.0473 -0.0183
  355POPI   D2A 5640   3.180   0.821   9.444 -0.2108 -0.2004 -0.2152
  355POPI   C3A 5641   3.208   0.781   9.036 -0.0247  0.5152  0.0754
  355POPI   C4A 5642   2.955   0.803   8.764 -0.0518  0.0488  0.0540
  355POPI   C1B 5643   2.679   0.812  10.068 -0.0803 -0.0881 -0.0689
  355POPI   C2B 5644   2.761   0.583   9.688 -0.0661  0.2405 -0.1704
  355POPI   C3B 5645   2.861   0.374   9.246  0.2604  0.3359 -0.2010
  355POPI   C4B 5646   2.837   0.250   8.793  0.1894 -0.0713  0.0981
  356POPI    C1 5647   3.821   5.846  10.186 -0.1222 -0.0486 -0.0084
  356POPI    C2 5648   3.563   5.764  10.481  0.0357 -0.1840  0.0943
  356POPI    C3 5649   3.923   5.916  10.567  0.0484 -0.1392 -0.0365
  356POPI   PO4 5650   3.669   5.703   9.958  0.1456  0.0451 -0.2108
  356POPI   GL1 5651   3.727   5.371   9.681 -0.0587  0.1094  0.0316
  356POPI   GL2 5652   3.367   5.492   9.603  0.2266  0.2363 -0.0325
  356POPI   C1A 5653   3.833   5.165   9.298  0.0923 -0.1958 -0.1561
  356POPI   D2A 5654   3.794   5.099   8.874 -0.0024  0.1338  0.2007
  356POPI   C3A 5655   3.781   5.332   8.518  0.0784 -0.0341 -0.0734
  356POPI   C4A 5656   3.922   5.323   8.079 -0.1540 -0.1651  0.1229
  356POPI   C1B 5657   3.548   5.576   9.257  0.1251 -0.0767 -0.0023
  356POPI   C2B 5658   3.557   5.619   8.905 -0.0218 -0.3855 -0.0653
  356POPI   C3B 5659   3.368   5.547   8.509  0.1448 -0.0365 -0.2488
  356POPI   C4B 5660   3.034   5.630   8.248  0.1309 -0.0984  0.0370
  357POPI    C1 5661  13.697   0.798  10.756 -0.1943  0.1216  0.2165
  357POPI    C2 5662  13.615   0.873  11.140 -0.1361 -0.2357  0.3020
  357POPI    C3 5663  13.963   0.703  11.039 -0.1258 -0.0894  0.0838
  357POPI   PO4 5664  13.483   0.623  10.706  0.1400 -0.1506 -0.0344
  357POPI   GL1 5665  13.543   0.248  10.358  0.0851  0.0361 -0.0983
  357POPI   GL2 5666  13.379   0.489  10.223 -0.1614 -0.0490 -0.2495
  357POPI   C1A 5667  13.596   0.089   9.974  0.2084  0.1288  0.2237
  357POPI   D2A 5668  13.540   0.001   9.631  0.0914  0.1759  0.1350
  357POPI   C3A 5669  13.378   0.331   9.387  0.0400 -0.0468  0.1065
  357POPI   C4A 5670  13.289   0.498   9.017 -0.1367 -0.0830 -0.1766
  357POPI   C1B 5671  13.091   0.243   9.945 -0.1612 -0.0504 -0.1298
  357POPI   C2B 5672  13.010   0.024   9.562  0.2251  0.0657 -0.0585
  357POPI   C3B 5673  13.020   0.021   9.155 -0.2801  0.0260  0.1344
  357POPI   C4B 5674  13.052   0.077   8.699  0.0617  0.2137 -0.0754
  358POPI    C1 5675   2.779   8.187  10.549 -0.0111 -0.1615  0.1597
  358POPI    C2 5676   2.577   8.419  10.805  0.1041  0.1662 -0.0400
  358POPI    C3 5677   2.976   8.434  10.794  0.1250 -0.1940  0.0837
  358POPI   PO4 5678   2.727   8.234  10.327 -0.1869 -0.2428 -0.1674
  358POPI   GL1 5679   2.586   8.577  10.023 -0.0735 -0.1909  0.0409
  358POPI   GL2 5680   2.396   8.295   9.971  0.0869  0.0537 -0.0612
  358POPI   C1A 5681   2.844   8.787   9.729  0.0785 -0.0652 -0.1103
  358POPI   D2A 5682   2.917   8.966   9.369 -0.1614  0.1639 -0.3207
  358POPI   C3A 5683   2.619   8.914   9.025  0.0134 -0.2075 -0.1842
  358POPI   C4A 5684   2.460   8.971   8.607 -0.0192 -0.3656 -0.3182
  358POPI   C1B 5685   2.366   8.557   9.577 -0.1903  0.0666  0.0468
  358POPI   C2B 5686   2.276   8.622   9.147 -0.1416 -0.0310 -0.1555
  358POPI   C3B 5687   2.284   8.549   8.663  0.1576 -0.0072  0.0756
  358POPI   C4B 5688   2.156   8.662   8.268  0.0033 -0.0179 -0.0293
  359POPI    C1 5689   9.906  16.558  11.617 -0.0108 -0.1363  0.0461
  359POPI    C2 5690   9.550  16.377  11.637  0.0252 -0.1951  0.1590
  359POPI    C3 5691   9.730  16.501  11.971 -0.0745  0.1989  0.0714
  359POPI   PO4 5692   9.918  16.494  11.274 -0.4654  0.1297 -0.0998
  359POPI   GL1 5693   9.708  16.742  10.946  0.2051 -0.2111  0.1614
  359POPI   GL2 5694   9.630  16.527  10.663  0.0290  0.0357 -0.0539
  359POPI   C1A 5695   9.962  16.982  10.649 -0.0311  0.3271 -0.2607
  359POPI   D2A 5696   9.807  17.054  10.277 -0.0781 -0.0973  0.0458
  359POPI   C3A 5697   9.887  17.087   9.846  0.2695 -0.2098 -0.0978
  359POPI   C4A 5698   9.869  17.128   9.398 -0.0645 -0.2692 -0.2842
  359POPI   C1B 5699   9.609  16.595  10.232  0.0730 -0.3318  0.0763
  359POPI   C2B 5700   9.536  16.730   9.788  0.4115  0.1060  0.1614
  359POPI   C3B 5701   9.590  16.662   9.372 -0.1432 -0.2761 -0.0754
  359POPI   C4B 5702   9.319  16.618   9.003  0.1333  0.1024 -0.1563
  360POPI    C1 5703  11.224   3.482  10.750  0.0788 -0.2636  0.0626
  360POPI    C2 5704  11.520   3.740  10.674 -0.1699 -0.0075 -0.0525
  360POPI    C3 5705  11.393   3.687  11.049 -0.0713 -0.0150 -0.0199
  360POPI   PO4 5706  11.064   3.547  10.486 -0.1400  0.0695 -0.0141
  360POPI   GL1 5707  10.937   3.539  10.042  0.2017  0.1358  0.2269
  360POPI   GL2 5708  10.905   3.864   9.915  0.0721 -0.0127 -0.1442
  360POPI   C1A 5709  11.067   3.227   9.641  0.1303 -0.0100 -0.1490
  360POPI   D2A 5710  10.992   3.382   9.242 -0.1348  0.3006 -0.1836
  360POPI   C3A 5711  11.122   3.217   8.799 -0.2725 -0.0124  0.1120
  360POPI   C4A 5712  11.360   2.987   8.475  0.3008 -0.1650 -0.3540
  360POPI   C1B 5713  10.766   3.717   9.580  0.1010  0.2412  0.1978
  360POPI   C2B 5714  10.671   3.715   9.236 -0.1158 -0.1348  0.1186
  360POPI   C3B 5715  10.741   3.533   8.878 -0.0784 -0.2939  0.0856
  360POPI   C4B 5716  10.899   3.791   8.601  0.1315 -0.1181  0.3456
  361POPI    C1 5717   4.536  16.571  11.260 -0.1646 -0.0086  0.0376
  361POPI    C2 5718   4.810  16.845  11.359 -0.1100  0.0076 -0.1545
  361POPI    C3 5719   4.732  16.542  11.608 -0.0749  0.1231 -0.0012
  361POPI   PO4 5720   4.573  16.587  10.966 -0.1121 -0.1213  0.1824
  361POPI   GL1 5721   4.775  16.829  10.600  0.0578  0.1288 -0.2186
  361POPI   GL2 5722   4.520  16.588  10.473 -0.0256 -0.5662  0.2278
  361POPI   C1A 5723   4.732  16.955  10.194 -0.0626 -0.2018  0.1508
  361POPI   D2A 5724   4.671  16.910   9.836 -0.3411  0.4561  0.3190
  361POPI   C3A 5725   4.682  16.775   9.442 -0.0918  0.2291  0.1777
  361POPI   C4A 5726   4.724  16.743   8.968 -0.3935  0.0298 -0.1027
  361POPI   C1B 5727   4.390  16.522  10.047 -0.0326 -0.2157  0.1761
  361POPI   C2B 5728   4.289  16.452   9.630  0.0309 -0.1694  0.0463
  361POPI   C3B 5729   4.396  16.300   9.233  0.1634  0.5954 -0.1150
  361POPI   C4B 5730   4.437  16.337   8.768  0.2957  0.0741  0.0722
  362POPI    C1 5731   9.622  17.287  11.493  0.0357 -0.0327 -0.0463
  362POPI    C2 5732   9.913  17.114  11.279  0.0483 -0.1323  0.0508
  362POPI    C3 5733   9.624  16.891  11.443 -0.2175 -0.0118 -0.2432
  362POPI   PO4 5734   9.530  17.452  11.318  0.1751 -0.0992 -0.1019
  362POPI   GL1 5735   9.505  17.425  10.859  0.1127  0.0230 -0.1118
  362POPI   GL2 5736   9.488  17.779  10.864 -0.1735  0.0311  0.0308
  362POPI   C1A 5737   9.424  17.126  10.535  0.1957  0.1751 -0.2309
  362POPI   D2A 5738   9.345  17.170  10.057  0.1818 -0.1709  0.4545
  362POPI   C3A 5739   9.361  17.212   9.596  0.0960  0.2725 -0.0549
  362POPI   C4A 5740   9.397  17.111   9.204  0.0373 -0.3128  0.0837
  362POPI   C1B 5741   9.622  17.589  10.390 -0.1610  0.1656 -0.1418
  362POPI   C2B 5742   9.773  17.588   9.978  0.3228 -0.5589 -0.2534
  362POPI   C3B 5743   9.745  17.677   9.569  0.2052  0.2263  0.0905
  362POPI   C4B 5744   9.652  17.534   9.217  0.0990  0.1052  0.1797
  363POPI    C1 5745  14.413   8.049  10.413  0.0231 -0.0345  0.0600
  363POPI    C2 5746  14.319   7.979  10.795 -0.0911  0.2303  0.0827
  363POPI    C3 5747  14.502   8.320  10.694  0.0291  0.1170 -0.0865
  363POPI   PO4 5748  14.202   7.973  10.323 -0.1460  0.0530 -0.1003
  363POPI   GL1 5749  14.157   7.621  10.058  0.0985  0.1952 -0.0332
  363POPI   GL2 5750  14.399   7.681   9.958 -0.0438 -0.0291 -0.0969
  363POPI   C1A 5751  13.942   7.642   9.686 -0.1243 -0.0614  0.1175
  363POPI   D2A 5752  14.022   7.512   9.229  0.1147 -0.1987  0.0395
  363POPI   C3A 5753  14.052   7.601   8.837 -0.1541  0.1628 -0.1654
  363POPI   C4A 5754  14.035   7.880   8.527 -0.0811 -0.3006  0.4151
  363POPI   C1B 5755  14.542   7.726   9.585  0.4287  0.0607 -0.1380
  363POPI   C2B 5756  14.531   7.706   9.087 -0.2921  0.0264  0.0205
  363POPI   C3B 5757  14.607   7.735   8.688  0.1452 -0.0861  0.0512
  363POPI   C4B 5758  14.531   7.823   8.202 -0.0714  0.2458  0.0738
  364POPI    C1 5759   2.071  17.155  10.954  0.1994  0.0250 -0.2738
  364POPI    C2 5760   2.305  16.854  11.074  0.0768  0.0369  0.0031
  364POPI    C3 5761   2.283  17.188  11.292 -0.1495  0.0608 -0.0544
  364POPI   PO4 5762   2.133  17.259  10.712 -0.2644  0.4566  0.2152
  364POPI   GL1 5763   1.954  17.332  10.371  0.1625 -0.3282 -0.3288
  364POPI   GL2 5764   1.771  17.446  10.300  0.0893  0.1901 -0.1571
  364POPI   C1A 5765   2.141  17.364  10.013 -0.4647 -0.0077  0.3856
  364POPI   D2A 5766   2.191  17.424   9.533 -0.0575 -0.0351 -0.0513
  364POPI   C3A 5767   1.959  17.298   9.074 -0.2871 -0.0589  0.0925
  364POPI   C4A 5768   2.290  17.195   8.771 -0.1238  0.1644 -0.1350
  364POPI   C1B 5769   1.682  17.535  10.010  0.1098 -0.1502 -0.1434
  364POPI   C2B 5770   1.598  17.580   9.588 -0.0396  0.1065 -0.0795
  364POPI   C3B 5771   1.534  17.505   9.199  0.0712 -0.2759  0.0572
  364POPI   C4B 5772   1.523  17.591   8.793 -0.1900  0.2387  0.0633
  365POPI    C1 5773   5.181  11.178  11.183 -0.1595 -0.0546  0.0432
  365POPI    C2 5774   4.979  11.414  11.436 -0.0300  0.0001  0.0966
  365POPI    C3 5775   5.065  11.037  11.539  0.0928  0.0470  0.1680
  365POPI   PO4 5776   5.105  11.312  10.968 -0.0953 -0.0211  0.0410
  365POPI   GL1 5777   5.317  11.599  10.670 -0.1054 -0.1166  0.2861
  365POPI   GL2 5778   5.540  11.909  10.687 -0.0182 -0.1812  0.2143
  365POPI   C1A 5779   5.536  11.514  10.230 -0.1405 -0.0060 -0.2994
  365POPI   D2A 5780   5.574  11.427   9.833  0.2181 -0.1371 -0.3691
  365POPI   C3A 5781   5.580  11.364   9.487  0.0509  0.1982 -0.1828
  365POPI   C4A 5782   5.621  11.546   9.154  0.1401  0.4025 -0.0226
  365POPI   C1B 5783   5.457  12.012  10.198  0.0003 -0.0289  0.2129
  365POPI   C2B 5784   5.399  12.058   9.766  0.0780  0.0121  0.0813
  365POPI   C3B 5785   5.419  12.098   9.371  0.0500 -0.3781  0.1133
  365POPI   C4B 5786   5.374  12.089   8.858 -0.3201  0.1701 -0.0113
  366POPI    C1 5787  12.370   4.956  10.548  0.2160 -0.0948 -0.2115
  366POPI    C2 5788  12.570   4.675  10.750  0.1363 -0.1441 -0.2006
  366POPI    C3 5789  12.178   4.724  10.812  0.1729  0.0500 -0.1142
  366POPI   PO4 5790  12.360   4.883  10.257  0.2602 -0.1721  0.2726
  366POPI   GL1 5791  12.397   5.052   9.824 -0.1395 -0.0286  0.0511
  366POPI   GL2 5792  12.350   5.265   9.718  0.2600  0.0363  0.0919
  366POPI   C1A 5793  12.646   4.861   9.595  0.1645  0.2589  0.0979
  366POPI   D2A 5794  12.768   4.777   9.180 -0.3518 -0.0329  0.0072
  366POPI   C3A 5795  12.721   4.915   8.715  0.0322 -0.0401  0.3498
  366POPI   C4A 5796  12.588   4.963   8.272 -0.3898  0.2408  0.0590
  366POPI   C1B 5797  12.218   5.459   9.403  0.0622 -0.0968  0.3190
  366POPI   C2B 5798  12.237   5.395   8.943 -0.2512  0.0048 -0.1848
  366POPI   C3B 5799  12.333   5.196   8.608  0.1754  0.0591 -0.2957
  366POPI   C4B 5800  12.030   5.105   8.246  0.3177  0.1857  0.0237
  367POPI    C1 5801   6.087   0.665  11.225 -0.1169 -0.0082 -0.0405
  367POPI    C2 5802   5.992   0.895  11.538 -0.0972  0.2212 -0.2008
  367POPI    C3 5803   6.296   0.636  11.565 -0.1024  0.2320 -0.0278
  367POPI   PO4 5804   6.102   0.871  11.011 -0.0764 -0.0901 -0.0884
  367POPI   GL1 5805   5.991   0.843  10.558  0.2648  0.0558  0.0715
  367POPI   GL2 5806   5.724   0.921  10.666 -0.1395  0.2488  0.1977
  367POPI   C1A 5807   6.090   0.775  10.031  0.2076  0.0430 -0.1466
  367POPI   D2A 5808   6.097   0.674   9.598 -0.0743 -0.2911 -0.1325
  367POPI   C3A 5809   6.024   0.796   9.165 -0.0871 -0.1388 -0.1634
  367POPI   C4A 5810   5.923   1.122   8.930 -0.1503  0.1114  0.1485
  367POPI   C1B 5811   5.538   0.814  10.294  0.2590  0.0182  0.0333
  367POPI   C2B 5812   5.532   0.739   9.812  0.0491 -0.2774 -0.1628
  367POPI   C3B 5813   5.560   0.774   9.316  0.0545 -0.2874 -0.1255
  367POPI   C4B 5814   5.534   0.635   8.900 -0.2347  0.2346 -0.2145
  368POPI    C1 5815   5.432   5.429  10.729 -0.0351  0.1807  0.1163
  368POPI    C2 5816   5.565   5.156  10.990  0.0029  0.1826  0.0990
  368POPI    C3 5817   5.337   5.460  11.116 -0.1921  0.0414  0.0903
  368POPI   PO4 5818   5.442   5.307  10.510  0.0228 -0.2097  0.3024
  368POPI   GL1 5819   5.279   4.965  10.122  0.0260 -0.0432 -0.0716
  368POPI   GL2 5820   5.059   4.851   9.969 -0.3538  0.1337  0.4122
  368POPI   C1A 5821   5.396   4.999   9.578 -0.0366 -0.2285 -0.2822
  368POPI   D2A 5822   5.415   5.017   9.140  0.0501  0.1762 -0.2498
  368POPI   C3A 5823   5.463   5.084   8.745 -0.0071  0.3236 -0.1574
  368POPI   C4A 5824   5.529   5.185   8.275  0.0046  0.0502  0.2248
  368POPI   C1B 5825   5.025   4.530   9.489 -0.1483 -0.2349 -0.2768
  368POPI   C2B 5826   5.033   4.495   9.037 -0.0844 -0.1814 -0.2939
  368POPI   C3B 5827   5.023   4.395   8.603  0.0643 -0.0719 -0.1471
  368POPI   C4B 5828   4.974   4.429   8.154  0.2127 -0.0161  0.2221
  369POPI    C1 5829   2.902   7.224  10.599 -0.0352  0.0828 -0.1482
  369POPI    C2 5830   2.506   7.173  10.598 -0.0445  0.1550 -0.2134
  369POPI    C3 5831   2.667   7.477  10.801 -0.0116  0.0443 -0.0719
  369POPI   PO4 5832   2.976   7.259  10.332  0.0143  0.0784  0.0411
  369POPI   GL1 5833   2.826   7.585   9.969  0.0710 -0.1029  0.1855
  369POPI   GL2 5834   2.769   7.896   9.923 -0.0387 -0.1154  0.0620
  369POPI   C1A 5835   2.484   7.398   9.748  0.1827 -0.1435  0.0267
  369POPI   D2A 5836   2.202   7.341   9.493 -0.1263 -0.0348 -0.1606
  369POPI   C3A 5837   2.258   7.147   9.048  0.2743 -0.1443  0.1206
  369POPI   C4A 5838   1.971   7.097   8.735  0.1164  0.0649 -0.0309
  369POPI   C1B 5839   2.710   7.738   9.486 -0.1743  0.0892 -0.1301
  369POPI   C2B 5840   2.618   7.457   9.222  0.1331  0.0121 -0.1451
  369POPI   C3B 5841   2.629   7.459   8.873  0.1540  0.2084  0.2416
  369POPI   C4B 5842   2.407   7.336   8.535  0.2319 -0.0796 -0.0623
  370POPI    C1 5843   6.298   3.468  10.789  0.0384  0.1273 -0.1295
  370POPI    C2 5844   6.634   3.304  10.930 -0.0773 -0.1359 -0.1536
  370POPI    C3 5845   6.535   3.678  11.034  0.0440 -0.1812  0.1356
  370POPI   PO4 5846   6.259   3.354  10.468  0.0393  0.0790 -0.0248
  370POPI   GL1 5847   6.131   2.916  10.314 -0.1062 -0.3398  0.1030
  370POPI   GL2 5848   6.343   2.703  10.140  0.0684  0.0774 -0.1505
  370POPI   C1A 5849   6.105   3.157   9.860  0.1446  0.1786  0.1377
  370POPI   D2A 5850   6.265   3.093   9.462 -0.0946  0.3831  0.1894
  370POPI   C3A 5851   6.295   2.986   8.951 -0.3088 -0.0906  0.2872
  370POPI   C4A 5852   6.343   2.956   8.524  0.0232  0.1224  0.2862
  370POPI   C1B 5853   6.523   2.706   9.752  0.0728  0.0320  0.1615
  370POPI   C2B 5854   6.553   2.635   9.239 -0.1646 -0.0773 -0.0782
  370POPI   C3B 5855   6.413   2.489   8.871 -0.2289 -0.4077 -0.1456
  370POPI   C4B 5856   6.320   2.369   8.390  0.0520  0.2292  0.2015
  371POPI    C1 5857   0.808   2.660  10.722  0.2877 -0.0010  0.0552
  371POPI    C2 5858   0.841   2.268  10.794 -0.0376 -0.1220 -0.4051
  371POPI    C3 5859   0.635   2.501  11.045  0.1182 -0.2503 -0.1539
  371POPI   PO4 5860   0.675   2.676  10.457 -0.0866 -0.1846 -0.1188
  371POPI   GL1 5861   0.783   2.649   9.968  0.0086  0.0274 -0.0680
  371POPI   GL2 5862   1.099   2.429   9.859 -0.0134 -0.1346  0.1219
  371POPI   C1A 5863   0.403   2.708   9.648 -0.1544  0.1487  0.6569
  371POPI   D2A 5864   0.367   2.569   9.284  0.1665  0.0973  0.2095
  371POPI   C3A 5865   0.333   2.686   8.808 -0.1145  0.0085  0.3597
  371POPI   C4A 5866   0.342   2.855   8.418 -0.0732  0.0646  0.1147
  371POPI   C1B 5867   0.944   2.196   9.602 -0.0393 -0.0439 -0.1878
  371POPI   C2B 5868   0.945   2.115   9.182  0.0333  0.0866 -0.1774
  371POPI   C3B 5869   0.899   1.984   8.711 -0.3156 -0.1486  0.0596
  371POPI   C4B 5870   1.005   1.896   8.248 -0.1253  0.1527 -0.2136
  372POPI    C1 5871  13.539  12.736  10.845 -0.1889  0.0716 -0.2231
  372POPI    C2 5872  13.537  13.136  10.863  0.1341  0.0653  0.0412
  372POPI    C3 5873  13.629  12.921  11.188 -0.1480 -0.2290 -0.0678
  372POPI   PO4 5874  13.290  12.745  10.664 -0.1125  0.1637 -0.2692
  372POPI   GL1 5875  13.299  12.586  10.261 -0.3132 -0.2091 -0.0608
  372POPI   GL2 5876  13.023  12.647  10.132 -0.1483 -0.3821 -0.3315
  372POPI   C1A 5877  13.469  12.563   9.820 -0.1071 -0.2493 -0.3030
  372POPI   D2A 5878  13.403  12.569   9.368  0.2521  0.1328  0.0002
  372POPI   C3A 5879  13.722  12.585   9.033  0.1765  0.0292  0.2922
  372POPI   C4A 5880  13.871  12.604   8.662  0.2845 -0.0032 -0.0966
  372POPI   C1B 5881  12.999  12.678   9.679  0.1228 -0.0162 -0.0008
  372POPI   C2B 5882  12.893  12.797   9.238 -0.0380  0.0873 -0.1567
  372POPI   C3B 5883  12.774  12.608   8.736  0.0825 -0.0145 -0.3381
  372POPI   C4B 5884  12.596  12.691   8.339 -0.4150 -0.0584  0.1008
  373POPI    C1 5885   7.391  10.781  11.222 -0.0188 -0.2331  0.0899
  373POPI    C2 5886   7.377  10.648  11.599  0.1250 -0.1237  0.1347
  373POPI    C3 5887   7.463  11.032  11.525 -0.0749 -0.1037 -0.0027
  373POPI   PO4 5888   7.514  10.524  11.075  0.0010 -0.2247  0.1836
  373POPI   GL1 5889   7.590  10.591  10.634 -0.1012  0.0178 -0.0300
  373POPI   GL2 5890   7.314  10.646  10.591  0.0963  0.3349 -0.0326
  373POPI   C1A 5891   7.449  10.245  10.284  0.0604 -0.3556  0.1072
  373POPI   D2A 5892   7.471  10.134   9.945  0.3065  0.3800 -0.0783
  373POPI   C3A 5893   7.355  10.160   9.575  0.2044 -0.0680 -0.2174
  373POPI   C4A 5894   7.403  10.240   9.153  0.3327  0.1180 -0.2488
  373POPI   C1B 5895   7.230  10.622  10.161 -0.0864 -0.1460  0.0835
  373POPI   C2B 5896   7.204  10.636   9.699 -0.0290 -0.2000  0.2193
  373POPI   C3B 5897   7.143  10.708   9.336  0.2308  0.1513 -0.2923
  373POPI   C4B 5898   7.197  10.677   8.882  0.1279  0.2622  0.0984
  374POPI    C1 5899  11.909   4.128  10.633 -0.1720  0.0579  0.0024
  374POPI    C2 5900  11.829   4.400  10.915 -0.1030  0.0594  0.0207
  374POPI    C3 5901  11.838   4.011  11.010  0.2638  0.0831  0.0969
  374POPI   PO4 5902  11.802   4.225  10.363  0.0651  0.1339  0.1353
  374POPI   GL1 5903  11.983   4.211   9.963  0.2926  0.1767  0.1737
  374POPI   GL2 5904  12.168   4.075  10.006  0.0085 -0.2522  0.0964
  374POPI   C1A 5905  11.760   4.051   9.626 -0.0780  0.1544 -0.0928
  374POPI   D2A 5906  11.807   4.101   9.188  0.1107 -0.1695  0.2981
  374POPI   C3A 5907  12.031   4.079   8.759 -0.2975 -0.0699  0.1149
  374POPI   C4A 5908  12.223   4.042   8.347  0.0090  0.0435  0.0849
  374POPI   C1B 5909  12.222   3.899   9.582  0.1355  0.0989 -0.0073
  374POPI   C2B 5910  12.214   3.785   9.155  0.0713  0.0123 -0.0385
  374POPI   C3B 5911  12.300   3.541   8.806  0.1178 -0.3865 -0.1560
  374POPI   C4B 5912  12.377   3.457   8.292  0.0217 -0.0995  0.1822
  375POPI    C1 5913   2.655  15.622  11.187  0.1659 -0.1941  0.0692
  375POPI    C2 5914   2.768  15.948  11.391  0.0288 -0.0336 -0.1073
  375POPI    C3 5915   2.411  15.938  11.212 -0.0186 -0.3294 -0.0029
  375POPI   PO4 5916   2.884  15.639  10.997 -0.4877  0.0781 -0.0489
  375POPI   GL1 5917   2.882  15.683  10.529  0.0326  0.0612 -0.2095
  375POPI   GL2 5918   2.634  15.871  10.394 -0.0937  0.2579  0.1565
  375POPI   C1A 5919   3.150  15.782  10.228 -0.1160  0.2220 -0.1075
  375POPI   D2A 5920   3.170  15.912   9.775  0.0276  0.1604  0.1029
  375POPI   C3A 5921   3.250  15.726   9.358 -0.0253 -0.0804 -0.1766
  375POPI   C4A 5922   3.203  15.610   9.000  0.0583  0.2209 -0.1105
  375POPI   C1B 5923   2.727  15.820   9.955 -0.2097  0.0817  0.2564
  375POPI   C2B 5924   2.793  15.875   9.458 -0.0496 -0.0450 -0.3199
  375POPI   C3B 5925   2.753  15.787   9.077  0.1490 -0.2909 -0.0159
  375POPI   C4B 5926   2.824  15.717   8.567  0.1989  0.3420  0.1199
  376POPI    C1 5927   3.340  11.418  10.730 -0.3790 -0.4486  0.2026
  376POPI    C2 5928   3.581  11.259  11.007 -0.0687  0.0933  0.2581
  376POPI    C3 5929   3.255  11.463  11.118 -0.0016  0.2206  0.2240
  376POPI   PO4 5930   3.561  11.533  10.603  0.3046 -0.1701  0.2713
  376POPI   GL1 5931   3.739  11.750  10.094  0.0747  0.0500  0.1677
  376POPI   GL2 5932   3.918  11.476  10.189  0.0553  0.0063 -0.2493
  376POPI   C1A 5933   3.787  11.756   9.659  0.1991 -0.0736  0.3172
  376POPI   D2A 5934   3.851  11.722   9.199 -0.3249  0.2146  0.2233
  376POPI   C3A 5935   4.196  11.877   9.029 -0.2968  0.0376  0.1907
  376POPI   C4A 5936   4.435  12.228   9.150  0.1735  0.1336 -0.0620
  376POPI   C1B 5937   4.036  11.364   9.808  0.0719 -0.2224 -0.2358
  376POPI   C2B 5938   4.056  11.302   9.434 -0.2288  0.0440  0.0105
  376POPI   C3B 5939   4.239  11.306   9.145 -0.2567 -0.1823  0.2897
  376POPI   C4B 5940   4.152  11.338   8.758  0.0755  0.0666  0.1406
  377POPI    C1 5941   9.629  15.556  11.371  0.3279  0.0289 -0.1181
  377POPI    C2 5942   9.433  15.889  11.476 -0.0000 -0.2102  0.0476
  377POPI    C3 5943   9.491  15.598  11.744 -0.0113 -0.4289 -0.1836
  377POPI   PO4 5944   9.509  15.419  11.239  0.1412  0.1916 -0.3017
  377POPI   GL1 5945   9.187  15.443  10.973  0.0815 -0.0634 -0.1485
  377POPI   GL2 5946   9.387  15.156  10.812 -0.2617  0.2044 -0.4129
  377POPI   C1A 5947   9.359  15.617  10.600  0.1271  0.3881  0.0158
  377POPI   D2A 5948   9.409  15.747  10.152 -0.1397  0.1565  0.1585
  377POPI   C3A 5949   9.391  15.839   9.729  0.0890 -0.1726  0.0960
  377POPI   C4A 5950   9.336  15.806   9.241  0.0280  0.1338 -0.1470
  377POPI   C1B 5951   9.187  15.257  10.374 -0.0857 -0.1959  0.0984
  377POPI   C2B 5952   9.181  15.388   9.869  0.0434 -0.0176  0.1998
  377POPI   C3B 5953   9.041  15.509   9.479 -0.0728  0.3288 -0.1004
  377POPI   C4B 5954   8.932  15.488   9.069 -0.0675  0.0028  0.2599
  378POPI    C1 5955  13.868  11.786  10.798  0.1309  0.2201  0.1239
  378POPI    C2 5956  13.699  12.060  11.036  0.0571  0.3026 -0.0224
  378POPI    C3 5957  13.690  11.674  11.139  0.0004  0.3345  0.0947
  378POPI   PO4 5958  13.768  11.851  10.520 -0.0201 -0.0967 -0.1814
  378POPI   GL1 5959  13.953  11.714  10.144 -0.0564  0.0102 -0.0160
  378POPI   GL2 5960  13.703  11.571  10.007  0.1000 -0.1426  0.0014
  378POPI   C1A 5961  14.143  11.970   9.931  0.2240 -0.2275 -0.0136
  378POPI   D2A 5962  14.077  12.013   9.522  0.1453  0.1029 -0.0541
  378POPI   C3A 5963  14.422  11.958   9.204 -0.2891 -0.2034 -0.0681
  378POPI   C4A 5964  14.492  12.002   8.689  0.0629  0.1019  0.0147
  378POPI   C1B 5965  13.789  11.591   9.626 -0.0681  0.2713 -0.0696
  378POPI   C2B 5966  13.973  11.669   9.220  0.1063 -0.2181  0.3290
  378POPI   C3B 5967  14.028  12.003   8.916 -0.1049  0.0684 -0.1270
  378POPI   C4B 5968  14.020  12.148   8.435  0.3611  0.1902  0.1555
  379POPI    C1 5969   2.301  16.349  10.887  0.0069  0.2638  0.2219
  379POPI    C2 5970   2.147  16.376  11.255  0.0150  0.2875  0.2234
  379POPI    C3 5971   2.540  16.423  11.199  0.0695 -0.0944  0.2630
  379POPI   PO4 5972   2.303  16.072  10.707 -0.1532 -0.1222  0.2617
  379POPI   GL1 5973   2.060  16.028  10.360 -0.1016 -0.0968 -0.2894
  379POPI   GL2 5974   1.996  16.397  10.292  0.2861  0.0081 -0.0136
  379POPI   C1A 5975   2.230  15.940   9.979  0.1367 -0.1855  0.2438
  379POPI   D2A 5976   2.319  15.783   9.571  0.1927 -0.1515 -0.1118
  379POPI   C3A 5977   2.201  15.848   9.166  0.1013 -0.3436  0.1015
  379POPI   C4A 5978   2.041  15.680   8.790  0.0604  0.0824 -0.1302
  379POPI   C1B 5979   2.028  16.579   9.878 -0.0095 -0.0989  0.0599
  379POPI   C2B 5980   2.006  16.613   9.459 -0.0750  0.1524  0.0091
  379POPI   C3B 5981   1.962  16.777   9.105  0.2205 -0.0719  0.0569
  379POPI   C4B 5982   2.027  16.742   8.714 -0.2803 -0.2425 -0.0787
  380POPI    C1 5983   3.378   1.927  11.064  0.0821 -0.1320 -0.2713
  380POPI    C2 5984   3.693   1.726  11.207 -0.2266 -0.3266  0.1563
  380POPI    C3 5985   3.507   1.996  11.436 -0.3108 -0.1384 -0.1290
  380POPI   PO4 5986   3.440   1.926  10.743  0.0028  0.2514  0.1348
  380POPI   GL1 5987   3.443   1.733  10.346 -0.0809  0.1422 -0.2887
  380POPI   GL2 5988   3.433   1.429  10.358 -0.2030  0.2016 -0.0969
  380POPI   C1A 5989   3.306   1.794   9.950  0.0024 -0.3721  0.3311
  380POPI   D2A 5990   3.427   1.904   9.581  0.0464  0.1837 -0.3899
  380POPI   C3A 5991   3.596   1.694   9.328 -0.2225  0.1912  0.1274
  380POPI   C4A 5992   3.790   1.549   8.971 -0.1586 -0.4937 -0.1459
  380POPI   C1B 5993   3.571   1.042  10.177 -0.0889  0.0093  0.1822
  380POPI   C2B 5994   3.644   0.777   9.718  0.2779 -0.0362 -0.4222
  380POPI   C3B 5995   3.711   0.747   9.295  0.0419  0.3859  0.2898
  380POPI   C4B 5996   3.759   0.613   8.864  0.0134 -0.0823 -0.1846
  381POPI    C1 5997   6.780   2.386  10.988  0.0626  0.0742  0.0098
  381POPI    C2 5998   7.110   2.234  11.157  0.1094  0.0466 -0.1057
  381POPI    C3 5999   6.890   2.503  11.355  0.1668  0.0187 -0.0032
  381POPI   PO4 6000   6.900   2.417  10.706  0.2496  0.1188 -0.0740
  381POPI   GL1 6001   6.818   2.299  10.311 -0.1676  0.2821 -0.1051
  381POPI   GL2 6002   6.813   2.553  10.192  0.0502  0.0630  0.0497
  381POPI   C1A 6003   6.646   2.182   9.970  0.5264 -0.1264  0.0222
  381POPI   D2A 6004   6.706   2.283   9.587  0.1678  0.2096 -0.1263
  381POPI   C3A 6005   6.739   2.060   9.126  0.0209 -0.3661  0.0701
  381POPI   C4A 6006   6.699   2.144   8.642 -0.0184 -0.1072  0.2211
  381POPI   C1B 6007   7.024   2.653   9.808  0.2633 -0.0369  0.1390
  381POPI   C2B 6008   7.121   2.562   9.354  0.1245 -0.0450  0.4515
  381POPI   C3B 6009   7.079   2.428   8.981  0.1476 -0.1976  0.1145
  381POPI   C4B 6010   7.296   2.495   8.634  0.1062 -0.0535  0.1814
  382POPI    C1 6011   8.797   1.229  11.105 -0.1483 -0.2590 -0.0068
  382POPI    C2 6012   9.149   1.077  11.217  0.0116  0.0713 -0.0490
  382POPI    C3 6013   8.840   1.075  11.472  0.1901  0.2413  0.1726
  382POPI   PO4 6014   8.755   1.235  10.875  0.0823 -0.0333 -0.0987
  382POPI   GL1 6015   8.665   1.108  10.517 -0.1682 -0.1944  0.0644
  382POPI   GL2 6016   8.394   1.261  10.483 -0.0321  0.0941  0.0807
  382POPI   C1A 6017   8.691   1.071   9.966  0.1952  0.1519  0.2247
  382POPI   D2A 6018   8.819   0.981   9.463 -0.2689 -0.0693  0.0589
  382POPI   C3A 6019   9.052   1.146   9.102  0.1962 -0.1719 -0.1074
  382POPI   C4A 6020   9.098   1.458   8.883  0.2604  0.0384 -0.1244
  382POPI   C1B 6021   8.234   1.012  10.149  0.0431  0.4657 -0.1423
  382POPI   C2B 6022   8.261   0.756   9.798 -0.0621 -0.0907 -0.0178
  382POPI   C3B 6023   8.494   0.542   9.457 -0.0858  0.2398  0.3138
  382POPI   C4B 6024   8.431   0.449   9.101 -0.0049 -0.2420  0.1574
  383POPI    C1 6025  14.512   6.725  10.570  0.0182  0.1930  0.1011
  383POPI    C2 6026  14.838   6.719  10.802 -0.0473 -0.0210  0.1897
  383POPI    C3 6027  14.536   6.467  10.874 -0.0673 -0.0931 -0.1302
  383POPI   PO4 6028  14.616   6.808  10.349  0.0727  0.0792  0.1432
  383POPI   GL1 6029  14.593   6.813   9.999 -0.0589 -0.1784 -0.3036
  383POPI   GL2 6030  14.537   7.126   9.911 -0.0365 -0.0278 -0.1847
  383POPI   C1A 6031  14.700   6.822   9.545 -0.0005 -0.0886 -0.0383
  383POPI   D2A 6032  14.668   6.689   9.051 -0.0924  0.1121 -0.2349
  383POPI   C3A 6033  14.737   6.889   8.751 -0.1756 -0.1311 -0.0088
  383POPI   C4A 6034  14.662   6.885   8.287 -0.0386 -0.1067  0.1708
  383POPI   C1B 6035  14.413   7.250   9.556 -0.0819 -0.1775  0.1260
  383POPI   C2B 6036  14.354   7.138   9.099 -0.1148 -0.3150 -0.1642
  383POPI   C3B 6037  14.389   7.250   8.726 -0.2676  0.0523  0.0834
  383POPI   C4B 6038  14.161   7.447   8.390  0.2312  0.1727  0.1514
  384POPI    C1 6039   4.366   5.381  10.397  0.2558 -0.0136 -0.0055
  384POPI    C2 6040   4.342   5.624  10.714 -0.1062 -0.2549  0.1597
  384POPI    C3 6041   4.438   5.239  10.764  0.0385 -0.2481 -0.0509
  384POPI   PO4 6042   4.117   5.401  10.278  0.1369 -0.2543  0.1599
  384POPI   GL1 6043   4.050   5.122   9.959  0.1199  0.0281 -0.4190
  384POPI   GL2 6044   3.861   4.899   9.986  0.1928 -0.3120 -0.0523
  384POPI   C1A 6045   4.203   5.090   9.610 -0.1463  0.0742 -0.0277
  384POPI   D2A 6046   4.422   5.028   9.264  0.1330  0.3184  0.1114
  384POPI   C3A 6047   4.338   5.001   8.828 -0.1264  0.0189  0.2711
  384POPI   C4A 6048   4.098   4.920   8.408  0.1002  0.0468 -0.0774
  384POPI   C1B 6049   3.930   4.731   9.513 -0.2691 -0.1385  0.1444
  384POPI   C2B 6050   4.034   4.719   9.135  0.1658  0.2488  0.1804
  384POPI   C3B 6051   3.814   4.591   8.757 -0.3339  0.2744 -0.1534
  384POPI   C4B 6052   3.662   4.591   8.338 -0.2175  0.2582 -0.0665
  385POPI    C1 6053   1.142   3.518  10.250 -0.0881 -0.1580 -0.0471
  385POPI    C2 6054   1.313   3.576  10.607 -0.0177 -0.0841 -0.0925
  385POPI    C3 6055   0.924   3.656  10.555 -0.0419 -0.1513 -0.0171
  385POPI   PO4 6056   1.350   3.235  10.179 -0.1321 -0.2241 -0.1713
  385POPI   GL1 6057   1.463   2.891  10.012 -0.0074 -0.2013 -0.0458
  385POPI   GL2 6058   1.652   2.650  10.065  0.0708  0.0054  0.1751
  385POPI   C1A 6059   1.178   2.878   9.686  0.0071  0.0021 -0.0764
  385POPI   D2A 6060   1.238   2.573   9.296  0.3212  0.1664  0.0458
  385POPI   C3A 6061   0.817   2.575   9.003  0.1120 -0.1550  0.0144
  385POPI   C4A 6062   0.870   2.693   8.504  0.2528 -0.0359 -0.2271
  385POPI   C1B 6063   1.653   2.682   9.559  0.1284  0.0613 -0.2222
  385POPI   C2B 6064   1.684   2.751   9.157  0.2106  0.1061 -0.2328
  385POPI   C3B 6065   1.632   3.000   8.717  0.3941 -0.0641 -0.2937
  385POPI   C4B 6066   1.951   3.142   8.451 -0.1187 -0.0510 -0.2913
  386POPI    C1 6067  11.410  14.480  11.029 -0.0863  0.0631 -0.1305
  386POPI    C2 6068  11.417  14.476  11.429  0.2952 -0.2054 -0.1343
  386POPI    C3 6069  11.222  14.190  11.231 -0.0521  0.0318 -0.1436
  386POPI   PO4 6070  11.316  14.714  10.980 -0.0104  0.0848 -0.0910
  386POPI   GL1 6071  11.346  15.019  10.642 -0.0325  0.0468  0.4919
  386POPI   GL2 6072  11.191  15.326  10.637 -0.4150 -0.0647 -0.0103
  386POPI   C1A 6073  11.489  15.174  10.255 -0.2554  0.1278  0.2713
  386POPI   D2A 6074  11.331  15.466   9.942  0.0743 -0.2739 -0.3362
  386POPI   C3A 6075  11.414  15.545   9.477 -0.1856  0.1756  0.1874
  386POPI   C4A 6076  11.426  15.406   9.037 -0.1064 -0.0058  0.0423
  386POPI   C1B 6077  10.894  15.368  10.155 -0.0538  0.0360  0.1151
  386POPI   C2B 6078  10.852  15.434   9.659 -0.0498 -0.2552 -0.2750
  386POPI   C3B 6079  10.950  15.539   9.262  0.0594  0.0373 -0.0524
  386POPI   C4B 6080  10.928  15.381   8.921 -0.0651  0.0402  0.0972
  387POPI    C1 6081   8.040  17.268  11.503 -0.1819 -0.1342 -0.0306
  387POPI    C2 6082   7.705  17.296  11.721  0.0553  0.1041  0.3134
  387POPI    C3 6083   8.001  17.560  11.774  0.2031  0.0429 -0.1600
  387POPI   PO4 6084   7.939  17.282  11.244  0.0312  0.0105 -0.2919
  387POPI   GL1 6085   8.152  17.304  10.836 -0.0596 -0.3406 -0.1666
  387POPI   GL2 6086   8.244  17.055  10.723 -0.0153  0.0093 -0.2185
  387POPI   C1A 6087   8.158  17.707  10.541 -0.0049 -0.2966  0.3114
  387POPI   D2A 6088   8.563  17.830  10.286  0.1896  0.0203  0.1417
  387POPI   C3A 6089   8.726  17.777   9.850 -0.3440  0.2796 -0.0010
  387POPI   C4A 6090   8.654  17.779   9.394 -0.0582  0.7652  0.3362
  387POPI   C1B 6091   8.441  17.293  10.421  0.3047 -0.4381  0.2113
  387POPI   C2B 6092   8.334  17.429  10.035 -0.2586  0.2605  0.0207
  387POPI   C3B 6093   8.356  17.438   9.627 -0.0466  0.2315 -0.0070
  387POPI   C4B 6094   8.235  17.375   9.196 -0.0455 -0.1101  0.0426
  388POPI    C1 6095   0.150   3.778  10.327  0.0010 -0.0145  0.0217
  388POPI    C2 6096   0.089   4.094  10.565 -0.0066 -0.2914  0.3959
  388POPI    C3 6097   0.438   3.899  10.576 -0.0111 -0.3141  0.1852
  388POPI   PO4 6098   0.071   3.808  10.122 -0.1294 -0.1531  0.1318
  388POPI   GL1 6099   0.295   3.652   9.820 -0.3164  0.2493 -0.2948
  388POPI   GL2 6100   0.474   3.374   9.822  0.0714  0.2140 -0.1241
  388POPI   C1A 6101   0.383   3.539   9.343  0.0436 -0.1002  0.3950
  388POPI   D2A 6102   0.394   3.490   8.927  0.2068  0.1645  0.0545
  388POPI   C3A 6103   0.121   3.328   8.699 -0.0478 -0.2827  0.4027
  388POPI   C4A 6104  -0.063   3.513   8.371  0.2712  0.0335 -0.0792
  388POPI   C1B 6105   0.746   3.118   9.623 -0.0164 -0.0074 -0.2466
  388POPI   C2B 6106   0.739   2.953   9.300 -0.0399  0.1368  0.0885
  388POPI   C3B 6107   0.628   3.060   8.899  0.3707 -0.1332  0.1872
  388POPI   C4B 6108   0.640   3.243   8.547 -0.0989  0.2270  0.3230
  389POPI    C1 6109   8.924  12.854  10.936  0.0317  0.0400 -0.1522
  389POPI    C2 6110   8.654  13.081  11.126  0.1039  0.0080 -0.0102
  389POPI    C3 6111   8.884  12.827  11.333  0.0931 -0.1227 -0.1564
  389POPI   PO4 6112   8.997  13.051  10.718  0.1320  0.4511  0.0204
  389POPI   GL1 6113   8.813  13.164  10.385  0.2616  0.0840  0.0963
  389POPI   GL2 6114   8.469  12.991  10.383  0.0326  0.0340 -0.1560
  389POPI   C1A 6115   8.788  13.305   9.997 -0.1575  0.0656  0.1229
  389POPI   D2A 6116   8.900  13.444   9.625  0.2575  0.1302  0.0754
  389POPI   C3A 6117   9.142  13.520   9.226  0.1165 -0.2150 -0.0867
  389POPI   C4A 6118   9.259  13.579   8.790  0.1326  0.0587 -0.2144
  389POPI   C1B 6119   8.350  13.121   9.991  0.0028 -0.1691 -0.0302
  389POPI   C2B 6120   8.330  13.187   9.550  0.0314  0.0817 -0.1104
  389POPI   C3B 6121   8.246  13.207   9.180 -0.1392  0.0212  0.0422
  389POPI   C4B 6122   8.068  13.255   8.779  0.3561  0.0001 -0.0920
  390POPI    C1 6123  12.267   7.441  10.730 -0.2079  0.3301  0.0337
  390POPI    C2 6124  12.568   7.701  10.681  0.0812  0.0250  0.1510
  390POPI    C3 6125  12.630   7.356  10.875 -0.2893 -0.1479 -0.0261
  390POPI   PO4 6126  12.116   7.544  10.523 -0.0795  0.2263 -0.1927
  390POPI   GL1 6127  12.195   7.397  10.060 -0.1504 -0.1008  0.4885
  390POPI   GL2 6128  12.310   7.093   9.967 -0.2008 -0.1326  0.1465
  390POPI   C1A 6129  12.192   7.589   9.671 -0.0022  0.1066  0.1227
  390POPI   D2A 6130  11.872   7.799   9.501  0.2496 -0.1750  0.0602
  390POPI   C3A 6131  11.738   7.766   9.172 -0.2206  0.0541  0.2867
  390POPI   C4A 6132  11.842   7.748   8.814  0.1106  0.0248 -0.0343
  390POPI   C1B 6133  12.379   7.062   9.584 -0.1667  0.2153 -0.0965
  390POPI   C2B 6134  12.509   7.014   9.129  0.0375 -0.3297 -0.1002
  390POPI   C3B 6135  12.577   7.204   8.706  0.2201 -0.0709  0.1136
  390POPI   C4B 6136  12.319   7.341   8.386 -0.0683  0.1370  0.4535
  391POPI    C1 6137   9.828   6.778  10.344 -0.0234 -0.1163 -0.0930
  391POPI    C2 6138   9.844   6.445  10.564 -0.0825 -0.0191  0.0601
  391POPI    C3 6139  10.120   6.730  10.614 -0.0504 -0.0308 -0.0481
  391POPI   PO4 6140   9.660   6.885  10.390  0.3198 -0.2880  0.2046
  391POPI   GL1 6141   9.555   7.255  10.174  0.2670  0.0292 -0.2051
  391POPI   GL2 6142   9.818   7.274  10.043  0.2397  0.0952  0.1941
  391POPI   C1A 6143   9.423   7.195   9.760  0.0613 -0.1018  0.1479
  391POPI   D2A 6144   9.213   7.241   9.452  0.1516  0.0920  0.0483
  391POPI   C3A 6145   9.305   7.408   9.024 -0.1349  0.2300 -0.0481
  391POPI   C4A 6146   9.398   7.621   8.725 -0.0819 -0.0177 -0.1413
  391POPI   C1B 6147   9.961   7.260   9.626  0.0007 -0.0258 -0.0519
  391POPI   C2B 6148   9.850   7.416   9.158  0.0471  0.0262 -0.0974
  391POPI   C3B 6149   9.948   7.596   8.765  0.1168 -0.0510  0.3498
  391POPI   C4B 6150  10.210   7.573   8.463  0.1964  0.1851 -0.2713
  392POPI    C1 6151   8.992   5.953  10.516 -0.2628 -0.1303 -0.1062
  392POPI    C2 6152   8.835   5.587  10.486 -0.1561 -0.1790 -0.0751
  392POPI    C3 6153   8.848   5.771  10.841 -0.0217 -0.2298 -0.0532
  392POPI   PO4 6154   9.149   5.898  10.247  0.3081 -0.0443 -0.1537
  392POPI   GL1 6155   9.224   5.863   9.811  0.0723  0.3591 -0.0683
  392POPI   GL2 6156   9.355   5.625   9.663 -0.2013 -0.2221  0.0728
  392POPI   C1A 6157   9.234   6.280   9.628 -0.0639 -0.1882  0.0789
  392POPI   D2A 6158   9.316   6.394   9.188  0.0998 -0.0891  0.1082
  392POPI   C3A 6159   9.292   6.521   8.849 -0.1246 -0.3904 -0.0515
  392POPI   C4A 6160   9.456   6.602   8.561  0.2436 -0.0554  0.2359
  392POPI   C1B 6161   9.164   5.684   9.337  0.0554 -0.1279  0.2998
  392POPI   C2B 6162   9.213   5.536   8.876 -0.3559  0.1288  0.0984
  392POPI   C3B 6163   9.298   5.399   8.440 -0.0066  0.0318 -0.0032
  392POPI   C4B 6164   8.967   5.162   8.271 -0.0809  0.1816 -0.2211
  393POPI    C1 6165  14.346   9.866  10.757  0.1519  0.0646 -0.1315
  393POPI    C2 6166  14.454   9.708  11.109 -0.3062  0.2137  0.0850
  393POPI    C3 6167  14.554  10.085  11.019 -0.0746  0.1327 -0.0057
  393POPI   PO4 6168  14.464   9.624  10.561 -0.1602  0.0209 -0.0575
  393POPI   GL1 6169  14.683   9.734  10.323 -0.2301 -0.2841  0.1579
  393POPI   GL2 6170  14.436   9.650  10.063  0.0346  0.0739 -0.0049
  393POPI   C1A 6171  14.850   9.844   9.908 -0.0326  0.1763 -0.1735
  393POPI   D2A 6172  14.973   9.759   9.410  0.1359 -0.1511 -0.3234
  393POPI   C3A 6173  15.030   9.930   8.918  0.2802 -0.2565  0.2347
  393POPI   C4A 6174  15.001   9.893   8.517 -0.3196 -0.2075 -0.1961
  393POPI   C1B 6175  14.479   9.583   9.618  0.0489  0.0908 -0.0331
  393POPI   C2B 6176  14.454   9.657   9.226 -0.0403 -0.1681  0.3699
  393POPI   C3B 6177  14.647   9.576   8.823 -0.0430 -0.4294 -0.2278
  393POPI   C4B 6178  14.747   9.483   8.342  0.0438 -0.0032 -0.0894
  394POPI    C1 6179   3.606  10.790  10.943 -0.1532  0.1544 -0.1278
  394POPI    C2 6180   3.364  10.480  10.866 -0.0142  0.0683 -0.2243
  394POPI    C3 6181   3.472  10.561  11.243 -0.1109  0.0453 -0.1913
  394POPI   PO4 6182   3.856  10.780  10.796  0.0034  0.1724 -0.0564
  394POPI   GL1 6183   3.903  10.639  10.522 -0.0250  0.3056  0.1862
  394POPI   GL2 6184   3.632  10.506  10.429  0.1536 -0.1858 -0.3065
  394POPI   C1A 6185   4.024  10.521  10.107 -0.1138 -0.0419 -0.4040
  394POPI   D2A 6186   3.896  10.535   9.745 -0.0131 -0.0532 -0.0928
  394POPI   C3A 6187   4.030  10.474   9.418  0.1393  0.2038 -0.1570
  394POPI   C4A 6188   4.041  10.446   8.945  0.0264 -0.1578  0.0713
  394POPI   C1B 6189   3.439  10.504  10.044  0.2181 -0.0037  0.3359
  394POPI   C2B 6190   3.430  10.486   9.569 -0.1645  0.0356  0.2164
  394POPI   C3B 6191   3.499  10.499   9.145 -0.0796 -0.2808  0.2579
  394POPI   C4B 6192   3.578  10.455   8.666 -0.0190 -0.1010 -0.0307
  395POPI    C1 6193  14.680  13.345  10.959 -0.0202  0.1301  0.1617
  395POPI    C2 6194  14.956  13.600  10.822  0.0547  0.0914  0.2396
  395POPI    C3 6195  14.718  13.706  11.126 -0.1259  0.1855  0.0671
  395POPI   PO4 6196  14.545  13.218  10.772  0.2072  0.2978 -0.3424
  395POPI   GL1 6197  14.121  13.289  10.343 -0.2347 -0.1150  0.1585
  395POPI   GL2 6198  14.257  13.494  10.468 -0.1092 -0.1654 -0.2381
  395POPI   C1A 6199  14.311  13.253   9.936  0.1044 -0.1350 -0.3809
  395POPI   D2A 6200  14.210  13.330   9.545  0.0997  0.3033 -0.0957
  395POPI   C3A 6201  14.431  13.375   9.247 -0.4264  0.0499 -0.3082
  395POPI   C4A 6202  14.498  13.227   8.800 -0.1804  0.2409 -0.0278
  395POPI   C1B 6203  14.382  13.760  10.106 -0.1395 -0.0274  0.3567
  395POPI   C2B 6204  14.500  13.769   9.726 -0.1192  0.2312  0.0736
  395POPI   C3B 6205  14.376  13.848   9.417  0.0293 -0.0140 -0.3474
  395POPI   C4B 6206  14.229  13.834   8.987 -0.0978 -0.1578  0.2858
  396POPI    C1 6207   6.923   5.143  10.291 -0.2936 -0.0581  0.0276
  396POPI    C2 6208   6.670   5.450  10.338 -0.3214 -0.0929  0.1083
  396POPI    C3 6209   6.762   5.218  10.650 -0.1203 -0.0265  0.0997
  396POPI   PO4 6210   7.068   5.212  10.190 -0.2325 -0.2714  0.1420
  396POPI   GL1 6211   7.185   5.335   9.801  0.2537  0.0182  0.1203
  396POPI   GL2 6212   7.331   5.076   9.654  0.1163 -0.1217  0.2703
  396POPI   C1A 6213   6.973   5.381   9.363 -0.2232  0.0797 -0.1725
  396POPI   D2A 6214   6.995   5.360   9.048 -0.0368  0.1954  0.4114
  396POPI   C3A 6215   6.869   5.165   8.656 -0.0914  0.2942  0.1135
  396POPI   C4A 6216   6.993   5.195   8.259  0.1287  0.1281  0.2007
  396POPI   C1B 6217   7.352   5.046   9.228 -0.1528  0.2558 -0.3255
  396POPI   C2B 6218   7.355   5.109   8.808 -0.4188 -0.0331 -0.0915
  396POPI   C3B 6219   7.370   4.878   8.515  0.3342 -0.0417  0.1523
  396POPI   C4B 6220   7.362   4.619   8.147  0.2678  0.0564  0.0674
  397POPI    C1 6221   7.963   2.864  10.767 -0.0845  0.1023 -0.1507
  397POPI    C2 6222   8.173   3.074  11.035  0.1435 -0.1688 -0.1121
  397POPI    C3 6223   7.792   2.978  11.111  0.1271 -0.0218 -0.0022
  397POPI   PO4 6224   8.013   3.020  10.546  0.1496  0.0004 -0.0376
  397POPI   GL1 6225   8.051   2.939  10.100  0.1831 -0.1808 -0.1743
  397POPI   GL2 6226   7.735   2.870  10.150 -0.1344  0.0860  0.1856
  397POPI   C1A 6227   8.044   2.976   9.736 -0.1722  0.2018  0.0465
  397POPI   D2A 6228   7.917   2.854   9.370  0.3524 -0.0539  0.1688
  397POPI   C3A 6229   8.171   2.860   9.042  0.0059 -0.3331 -0.1227
  397POPI   C4A 6230   8.304   2.772   8.560  0.1799 -0.1257 -0.0998
  397POPI   C1B 6231   7.745   2.567   9.826  0.0753  0.1168 -0.3172
  397POPI   C2B 6232   7.654   2.456   9.378 -0.1030  0.1713  0.2404
  397POPI   C3B 6233   7.598   2.580   9.092 -0.2183 -0.1545  0.2504
  397POPI   C4B 6234   7.797   2.667   8.700 -0.4875  0.0541 -0.0595
  398POPI    C1 6235   9.973   1.406  11.409  0.0950 -0.1369 -0.1872
  398POPI    C2 6236  10.130   1.130  11.652  0.0386 -0.0230 -0.0197
  398POPI    C3 6237   9.795   1.322  11.758  0.2415  0.3239  0.0061
  398POPI   PO4 6238  10.051   1.349  11.193  0.1324  0.4708  0.1945
  398POPI   GL1 6239  10.202   1.079  10.806  0.0438 -0.1694 -0.1434
  398POPI   GL2 6240  10.364   1.352  10.655  0.1057 -0.0738 -0.1373
  398POPI   C1A 6241  10.057   1.012  10.417 -0.0719 -0.1067 -0.0497
  398POPI   D2A 6242   9.822   0.791  10.143  0.1769  0.1539 -0.1713
  398POPI   C3A 6243   9.873   0.807   9.673  0.1135  0.0299 -0.0663
  398POPI   C4A 6244   9.811   0.518   9.408 -0.0868  0.0606  0.1541
  398POPI   C1B 6245  10.529   1.076  10.303 -0.0231 -0.1079 -0.0831
  398POPI   C2B 6246  10.756   1.023   9.870 -0.0261  0.0519 -0.1730
  398POPI   C3B 6247  10.785   0.973   9.407  0.0452 -0.0071 -0.1033
  398POPI   C4B 6248  10.881   0.899   8.996  0.3025 -0.1835  0.0254
  399POPI    C1 6249  12.213  10.952  10.638  0.1204 -0.0246  0.0308
  399POPI    C2 6250  12.347  10.863  11.004  0.0236 -0.0299  0.0652
  399POPI    C3 6251  12.465  11.200  10.824  0.2005 -0.1075  0.0339
  399POPI   PO4 6252  12.279  10.809  10.418 -0.0552 -0.4376  0.2587
  399POPI   GL1 6253  12.231  10.822  10.040  0.3394  0.1377  0.0560
  399POPI   GL2 6254  12.336  11.168   9.953  0.0767 -0.5035 -0.1761
  399POPI   C1A 6255  12.460  10.594   9.807  0.1212 -0.1842  0.0387
  399POPI   D2A 6256  12.548  10.655   9.343 -0.0297  0.0083 -0.2267
  399POPI   C3A 6257  12.609  10.685   8.867 -0.1239 -0.0823  0.0618
  399POPI   C4A 6258  12.535  10.530   8.461  0.0039  0.0060  0.1576
  399POPI   C1B 6259  12.294  11.055   9.544  0.0981 -0.0377 -0.0251
  399POPI   C2B 6260  12.270  11.045   9.134 -0.2457 -0.0614 -0.3664
  399POPI   C3B 6261  12.478  11.126   8.669 -0.0549  0.1756  0.4309
  399POPI   C4B 6262  12.769  11.147   8.393 -0.2644 -0.0949 -0.1289
  400POPI    C1 6263  13.055  13.162  11.039  0.1367  0.3474  0.3103
  400POPI    C2 6264  12.809  12.966  11.286 -0.1871  0.0850 -0.2036
  400POPI    C3 6265  13.135  12.784  11.145 -0.1599  0.1315 -0.2009
  400POPI   PO4 6266  12.916  13.251  10.792 -0.0037  0.0856 -0.1979
  400POPI   GL1 6267  12.995  13.398  10.289 -0.1529 -0.0357 -0.0573
  400POPI   GL2 6268  13.196  13.143  10.379 -0.1576  0.0064 -0.0356
  400POPI   C1A 6269  12.882  13.550   9.913 -0.3462 -0.0867 -0.0531
  400POPI   D2A 6270  12.946  13.596   9.430  0.0573 -0.1292 -0.1037
  400POPI   C3A 6271  13.018  13.323   9.034 -0.0019 -0.2838 -0.1661
  400POPI   C4A 6272  12.861  13.071   8.570  0.0390  0.0537 -0.0894
  400POPI   C1B 6273  13.146  13.083   9.986  0.0537 -0.0814  0.1673
  400POPI   C2B 6274  13.088  13.165   9.557 -0.0431 -0.0242 -0.0216
  400POPI   C3B 6275  13.468  12.999   9.234  0.4081 -0.1527 -0.0226
  400POPI   C4B 6276  13.641  13.084   8.766 -0.2491  0.2353 -0.0422
  401POPI    C1 6277   0.142   3.274  10.856 -0.0910  0.0887 -0.0135
  401POPI    C2 6278   0.369   2.949  10.801 -0.0634  0.1418 -0.2210
  401POPI    C3 6279   0.047   2.931  11.038  0.0648  0.0235 -0.0536
  401POPI   PO4 6280   0.111   3.339  10.583 -0.2810  0.4450 -0.1030
  401POPI   GL1 6281  -0.046   3.336  10.170 -0.1661  0.2889 -0.0872
  401POPI   GL2 6282  -0.300   3.480   9.899  0.0689 -0.3432  0.3711
  401POPI   C1A 6283   0.041   3.052   9.786  0.0732  0.0160  0.3916
  401POPI   D2A 6284   0.156   3.016   9.359  0.1526 -0.0683  0.2396
  401POPI   C3A 6285  -0.097   2.911   9.048 -0.1697 -0.0206  0.0053
  401POPI   C4A 6286  -0.130   2.894   8.518  0.2894  0.0070 -0.4557
  401POPI   C1B 6287  -0.127   3.387   9.492 -0.0669 -0.0737  0.2024
  401POPI   C2B 6288  -0.164   3.390   9.077  0.4085  0.0085 -0.0372
  401POPI   C3B 6289  -0.412   3.324   8.719  0.0436  0.1347 -0.2145
  401POPI   C4B 6290  -0.693   3.388   8.359  0.0160 -0.0216  0.0415
  402POPI    C1 6291  10.602  13.200  11.000  0.0016  0.1950 -0.1276
  402POPI    C2 6292  10.299  13.004  11.172  0.0172 -0.0176 -0.3369
  402POPI    C3 6293  10.668  12.979  11.326 -0.0774  0.2872 -0.0485
  402POPI   PO4 6294  10.483  13.215  10.707 -0.0139  0.0208  0.0130
  402POPI   GL1 6295  10.557  13.511  10.386 -0.2404 -0.2619  0.0830
  402POPI   GL2 6296  10.323  13.595  10.211  0.1697  0.3115  0.1819
  402POPI   C1A 6297  10.706  13.349  10.016 -0.0973  0.1687 -0.1248
  402POPI   D2A 6298  10.665  13.293   9.582 -0.0775  0.0640 -0.1461
  402POPI   C3A 6299  10.565  13.630   9.280  0.2065  0.0775 -0.1315
  402POPI   C4A 6300  10.440  13.855   8.826 -0.0919  0.2581  0.0380
  402POPI   C1B 6301  10.311  13.711   9.753 -0.1460  0.1702 -0.1055
  402POPI   C2B 6302  10.096  13.810   9.336  0.2409  0.2957  0.1031
  402POPI   C3B 6303   9.964  13.942   8.891  0.1191  0.0975  0.1549
  402POPI   C4B 6304   9.715  13.748   8.592  0.0976  0.0604 -0.1485
  403POPI    C1 6305  17.135   5.405  10.182  0.1465  0.1331 -0.0890
  403POPI    C2 6306  17.386   5.418  10.493  0.1265  0.0274 -0.0682
  403POPI    C3 6307  17.206   5.752  10.368  0.0783  0.0576  0.0798
  403POPI   PO4 6308  17.182   5.215  10.060 -0.0633 -0.0559 -0.0104
  403POPI   GL1 6309  17.466   5.271   9.717 -0.0403 -0.1206 -0.2073
  403POPI   GL2 6310  17.585   4.975   9.772 -0.1805 -0.0980  0.1721
  403POPI   C1A 6311  17.193   5.283   9.321  0.1500 -0.2271 -0.2983
  403POPI   D2A 6312  16.994   5.139   8.921  0.0262  0.0448  0.1491
  403POPI   C3A 6313  17.161   5.430   8.535 -0.2251  0.0251  0.2406
  403POPI   C4A 6314  16.819   5.521   8.233  0.0477  0.1055 -0.2854
  403POPI   C1B 6315  17.538   4.835   9.335  0.0027 -0.3061 -0.0536
  403POPI   C2B 6316  17.434   4.873   8.901 -0.1493 -0.1469 -0.1328
  403POPI   C3B 6317  17.363   4.968   8.510 -0.2793 -0.1193 -0.3242
  403POPI   C4B 6318  16.990   5.083   8.164  0.2107 -0.0269  0.2153
  404POPI    C1 6319   6.993   8.794  10.630  0.4529 -0.1891  0.1761
  404POPI    C2 6320   6.824   8.547  10.896 -0.0541  0.0552  0.0933
  404POPI    C3 6321   6.983   8.894  11.017  0.1396 -0.0459  0.1338
  404POPI   PO4 6322   7.127   8.650  10.467 -0.1878  0.4393 -0.1164
  404POPI   GL1 6323   7.227   8.436  10.062  0.1268 -0.0719  0.0180
  404POPI   GL2 6324   7.461   8.724  10.060 -0.1421  0.1920 -0.0635
  404POPI   C1A 6325   7.236   8.415   9.634 -0.1276  0.2513  0.0755
  404POPI   D2A 6326   7.195   8.345   9.210 -0.2465 -0.1307  0.4136
  404POPI   C3A 6327   7.380   8.470   8.773 -0.2141  0.1918 -0.0582
  404POPI   C4A 6328   7.577   8.573   8.435  0.2145 -0.1431 -0.2104
  404POPI   C1B 6329   7.669   8.697   9.576 -0.2715  0.2259 -0.1171
  404POPI   C2B 6330   7.745   8.788   9.122 -0.2839 -0.1022  0.0862
  404POPI   C3B 6331   7.790   8.893   8.774  0.2630 -0.3107 -0.1344
  404POPI   C4B 6332   7.638   9.130   8.317  0.2213 -0.2320 -0.2725
  405POPI    C1 6333  10.046   7.804  10.785  0.0616 -0.0302 -0.1950
  405POPI    C2 6334  10.124   8.192  10.843 -0.0150 -0.0233 -0.1362
  405POPI    C3 6335  10.344   7.914  11.028 -0.1849 -0.0030  0.1007
  405POPI   PO4 6336   9.758   7.780  10.653  0.0342 -0.0484 -0.0711
  405POPI   GL1 6337   9.558   7.952  10.298 -0.2611  0.0324 -0.2403
  405POPI   GL2 6338   9.911   8.110  10.254  0.0412  0.2196 -0.0558
  405POPI   C1A 6339   9.474   7.639   9.930 -0.0773  0.0480  0.2203
  405POPI   D2A 6340   9.552   7.613   9.488 -0.0564  0.1457 -0.0280
  405POPI   C3A 6341   9.391   7.912   9.139  0.0364 -0.1492 -0.0419
  405POPI   C4A 6342   9.062   7.974   8.831  0.1829  0.1340 -0.0472
  405POPI   C1B 6343   9.699   8.082   9.841 -0.1607  0.0254 -0.0665
  405POPI   C2B 6344   9.749   8.059   9.480 -0.1137  0.1544  0.1183
  405POPI   C3B 6345   9.887   8.024   9.001  0.2304  0.2413  0.1655
  405POPI   C4B 6346   9.904   8.351   8.672 -0.0713  0.0364  0.0490
  406POPI    C1 6347   0.824   4.180  10.632 -0.1574 -0.2093  0.0647
  406POPI    C2 6348   0.528   4.446  10.669 -0.0251 -0.0368 -0.0983
  406POPI    C3 6349   0.768   4.369  10.980 -0.0232  0.0835 -0.0693
  406POPI   PO4 6350   0.841   4.269  10.354 -0.0671 -0.0231 -0.2348
  406POPI   GL1 6351   0.795   4.276   9.879  0.0756 -0.2497 -0.0207
  406POPI   GL2 6352   0.978   4.342   9.714  0.1528  0.0098  0.3524
  406POPI   C1A 6353   0.514   4.116   9.562 -0.0392  0.0646  0.0494
  406POPI   D2A 6354   0.522   3.985   9.150 -0.3451 -0.0960  0.0286
  406POPI   C3A 6355   0.531   3.904   8.757  0.2078 -0.1315  0.2006
  406POPI   C4A 6356   0.389   3.678   8.431  0.0525 -0.0943  0.3473
  406POPI   C1B 6357   0.935   4.155   9.243 -0.0769 -0.0944 -0.0229
  406POPI   C2B 6358   1.006   4.202   8.829 -0.0197  0.1565 -0.0589
  406POPI   C3B 6359   1.097   4.478   8.499  0.4347  0.0270  0.3684
  406POPI   C4B 6360   1.060   4.434   8.087  0.3774 -0.0024 -0.1810
  407POPI    C1 6361   7.575   0.358  11.113  0.1352 -0.1193  0.0789
  407POPI    C2 6362   7.629   0.662  11.367 -0.0057 -0.0019 -0.0303
  407POPI    C3 6363   7.939   0.431  11.264  0.0451 -0.0761  0.2790
  407POPI   PO4 6364   7.400   0.286  10.996  0.2080 -0.3599 -0.1243
  407POPI   GL1 6365   7.298   0.190  10.559  0.0522  0.0480  0.0140
  407POPI   GL2 6366   7.583   0.117  10.513  0.1772 -0.0129  0.0338
  407POPI   C1A 6367   7.245   0.027  10.216 -0.0232 -0.2511  0.2561
  407POPI   D2A 6368   7.361   0.014   9.885 -0.0340  0.0006 -0.2573
  407POPI   C3A 6369   7.222  -0.145   9.408 -0.1266 -0.0168 -0.3777
  407POPI   C4A 6370   7.277  -0.080   8.994  0.0794  0.0819 -0.0543
  407POPI   C1B 6371   7.799  -0.009  10.142  0.0178  0.2806 -0.0326
  407POPI   C2B 6372   7.867  -0.152   9.744  0.0341 -0.2527 -0.2365
  407POPI   C3B 6373   7.797  -0.120   9.375 -0.0033  0.1036 -0.0533
  407POPI   C4B 6374   7.765  -0.223   8.980  0.0702 -0.0677  0.2334
  408POPI    C1 6375  12.366  17.709  10.753 -0.2174 -0.1476  0.2725
  408POPI    C2 6376  12.070  17.444  10.797 -0.5257  0.1412 -0.0076
  408POPI    C3 6377  12.005  17.831  10.874 -0.1813  0.1895  0.0544
  408POPI   PO4 6378  12.551  17.585  10.909  0.4032  0.0132 -0.0799
  408POPI   GL1 6379  12.890  17.483  10.658 -0.1823  0.1119  0.0840
  408POPI   GL2 6380  13.026  17.193  10.646 -0.2390 -0.2783  0.1852
  408POPI   C1A 6381  12.775  17.539  10.195  0.0326 -0.2419 -0.1976
  408POPI   D2A 6382  12.496  17.268   9.993  0.3441  0.0428 -0.3295
  408POPI   C3A 6383  12.651  17.386   9.633 -0.0942  0.0593  0.1074
  408POPI   C4A 6384  12.707  17.318   9.163 -0.0657  0.3116 -0.1310
  408POPI   C1B 6385  12.885  17.021  10.202  0.6227  0.2403 -0.1207
  408POPI   C2B 6386  12.942  17.002   9.842 -0.1845 -0.0136  0.2736
  408POPI   C3B 6387  12.781  16.925   9.441 -0.1242  0.0140 -0.0164
  408POPI   C4B 6388  12.439  16.640   9.246 -0.1288  0.1574  0.2330
  409POPI    C1 6389   1.343  12.723  11.002 -0.1621 -0.0533  0.0512
  409POPI    C2 6390   1.416  12.914  11.346  0.1073  0.2695 -0.1779
  409POPI    C3 6391   1.664  12.626  11.221  0.0762  0.2355 -0.1615
  409POPI   PO4 6392   1.416  12.999  10.826 -0.0626  0.0168  0.0166
  409POPI   GL1 6393   1.660  13.173  10.491  0.2333  0.0981  0.2981
  409POPI   GL2 6394   1.852  13.495  10.510  0.1865 -0.0697 -0.1508
  409POPI   C1A 6395   1.567  13.225  10.004  0.0122  0.0060  0.1963
  409POPI   D2A 6396   1.614  13.265   9.535 -0.0567  0.1359 -0.1749
  409POPI   C3A 6397   1.609  13.324   9.097  0.0348  0.3710 -0.3615
  409POPI   C4A 6398   1.168  13.380   8.855  0.1672 -0.0835 -0.0880
  409POPI   C1B 6399   1.871  13.610  10.090  0.0926  0.1760  0.0471
  409POPI   C2B 6400   1.936  13.700   9.690  0.1137  0.0019 -0.1783
  409POPI   C3B 6401   1.967  13.639   9.359  0.1683  0.0455 -0.2235
  409POPI   C4B 6402   2.014  13.669   8.927  0.1015  0.1269  0.1141
  410POPI    C1 6403   2.982  10.007  11.017  0.2621  0.0492  0.0267
  410POPI    C2 6404   2.975  10.355  11.213 -0.1053 -0.0243  0.1509
  410POPI    C3 6405   3.133  10.031  11.387  0.0346  0.0280  0.1224
  410POPI   PO4 6406   3.026  10.132  10.757 -0.2054 -0.0810 -0.1805
  410POPI   GL1 6407   3.161  10.158  10.283 -0.1076 -0.0094  0.0471
  410POPI   GL2 6408   2.989  10.483  10.324  0.1295 -0.1187 -0.0978
  410POPI   C1A 6409   3.191  10.146   9.819  0.1815 -0.1850 -0.3264
  410POPI   D2A 6410   3.135  10.171   9.286 -0.2430  0.2062  0.1151
  410POPI   C3A 6411   2.839  10.009   8.968 -0.2071 -0.1281 -0.0571
  410POPI   C4A 6412   2.593  10.100   8.624 -0.0716 -0.0232  0.0091
  410POPI   C1B 6413   2.825  10.508   9.920 -0.2547 -0.2015 -0.2385
  410POPI   C2B 6414   2.898  10.621   9.449  0.2004 -0.0659  0.0756
  410POPI   C3B 6415   3.018  10.613   9.134 -0.0543  0.0717  0.0065
  410POPI   C4B 6416   3.010  10.421   8.695  0.1309  0.0180 -0.1004
  411POPI    C1 6417   8.475   5.140  10.490 -0.0906  0.0192 -0.3064
  411POPI    C2 6418   8.416   4.853  10.218 -0.3343 -0.1375 -0.0931
  411POPI    C3 6419   8.286   4.803  10.592  0.2235 -0.0354  0.1242
  411POPI   PO4 6420   8.449   5.372  10.226  0.0774 -0.2929  0.5705
  411POPI   GL1 6421   8.261   5.450   9.957 -0.1134  0.0335 -0.0752
  411POPI   GL2 6422   8.394   5.703   9.746  0.0115 -0.0485  0.0202
  411POPI   C1A 6423   8.107   5.422   9.477 -0.0325  0.1892  0.0445
  411POPI   D2A 6424   8.002   5.574   9.122 -0.0346  0.0465  0.2181
  411POPI   C3A 6425   8.055   5.478   8.714 -0.1641 -0.0194 -0.0721
  411POPI   C4A 6426   7.927   5.598   8.255 -0.0886 -0.2320 -0.1157
  411POPI   C1B 6427   8.598   5.534   9.350  0.2521 -0.0297 -0.3744
  411POPI   C2B 6428   8.748   5.528   8.883  0.5982 -0.1405 -0.0506
  411POPI   C3B 6429   8.917   5.669   8.482 -0.0296 -0.0730  0.1921
  411POPI   C4B 6430   9.166   5.763   8.105  0.0114 -0.0298  0.0430
  412POPI    C1 6431  10.278   3.728  10.599  0.0269 -0.0386 -0.0651
  412POPI    C2 6432  10.530   3.437  10.710 -0.0069 -0.0813 -0.0997
  412POPI    C3 6433  10.543   3.794  10.892  0.0302 -0.1066 -0.0524
  412POPI   PO4 6434  10.170   3.713  10.367  0.0404 -0.1511  0.4611
  412POPI   GL1 6435  10.325   3.679   9.870 -0.0553 -0.2901  0.2614
  412POPI   GL2 6436   9.966   3.813   9.928 -0.3711  0.2554 -0.0054
  412POPI   C1A 6437  10.208   3.678   9.440 -0.0557 -0.2699  0.0659
  412POPI   D2A 6438  10.140   3.642   8.992  0.0378  0.0608  0.0896
  412POPI   C3A 6439  10.258   3.282   8.709 -0.0750  0.2388 -0.1014
  412POPI   C4A 6440  10.584   3.299   8.382  0.1178 -0.0920 -0.1270
  412POPI   C1B 6441   9.672   3.738   9.572  0.0199 -0.1362  0.1164
  412POPI   C2B 6442   9.616   3.739   9.107 -0.0515 -0.0223 -0.0064
  412POPI   C3B 6443   9.726   3.479   8.741  0.1489 -0.1929  0.0675
  412POPI   C4B 6444   9.627   3.266   8.432 -0.1913  0.0364 -0.0789
  413POPI    C1 6445   6.977   1.722  11.181  0.0642 -0.0747 -0.2239
  413POPI    C2 6446   6.673   1.982  11.197  0.1287 -0.0032 -0.1540
  413POPI    C3 6447   6.666   1.652  11.422  0.2407  0.1481  0.0753
  413POPI   PO4 6448   6.946   1.678  10.923 -0.1097  0.0840 -0.0416
  413POPI   GL1 6449   7.053   1.602  10.537  0.0177 -0.0801  0.2197
  413POPI   GL2 6450   6.920   1.291  10.637  0.0058  0.2494 -0.2895
  413POPI   C1A 6451   7.089   1.774  10.109  0.0003 -0.1661 -0.0813
  413POPI   D2A 6452   6.868   1.698   9.728 -0.1349  0.0393  0.1985
  413POPI   C3A 6453   7.035   1.622   9.248 -0.0326  0.3592  0.4573
  413POPI   C4A 6454   6.870   1.666   8.798 -0.3706  0.0044  0.0918
  413POPI   C1B 6455   6.858   1.349  10.144  0.2484  0.1345 -0.2092
  413POPI   C2B 6456   6.757   1.238   9.748  0.1424  0.2156 -0.1786
  413POPI   C3B 6457   6.846   1.119   9.351  0.0356 -0.0495 -0.0034
  413POPI   C4B 6458   6.950   1.124   8.969  0.1775 -0.0133 -0.0765
  414POPI    C1 6459  15.171   2.924  10.452  0.2457 -0.3646 -0.0757
  414POPI    C2 6460  14.841   2.784  10.631  0.1339 -0.2028 -0.1535
  414POPI    C3 6461  15.199   2.729  10.801  0.0272 -0.0333  0.1331
  414POPI   PO4 6462  15.188   2.927  10.218 -0.0559 -0.1402 -0.1793
  414POPI   GL1 6463  15.436   2.765   9.945  0.3578  0.2301 -0.1189
  414POPI   GL2 6464  15.688   2.505  10.060  0.1989 -0.2502 -0.1893
  414POPI   C1A 6465  15.499   2.872   9.584  0.2425  0.2125  0.2248
  414POPI   D2A 6466  15.397   2.892   9.129  0.2074 -0.1421 -0.2317
  414POPI   C3A 6467  15.558   2.845   8.737  0.2567 -0.1873 -0.3986
  414POPI   C4A 6468  15.728   2.675   8.359 -0.0881 -0.1896  0.0684
  414POPI   C1B 6469  15.610   2.386   9.600  0.0441 -0.0331 -0.1394
  414POPI   C2B 6470  15.657   2.421   9.193  0.2420 -0.0989 -0.0176
  414POPI   C3B 6471  15.614   2.366   8.747  0.3130  0.2179 -0.0308
  414POPI   C4B 6472  15.451   2.241   8.373 -0.1495  0.4303 -0.3143
  415POPI    C1 6473   1.200  14.180  10.906  0.0243  0.1231  0.0025
  415POPI    C2 6474   1.145  13.783  10.910  0.2328  0.0939  0.0912
  415POPI    C3 6475   1.377  13.956  11.186  0.0996  0.2853  0.0856
  415POPI   PO4 6476   0.887  14.224  10.823 -0.1484  0.0116  0.0829
  415POPI   GL1 6477   0.825  14.059  10.356 -0.1239 -0.1392  0.2131
  415POPI   GL2 6478   1.135  14.129  10.419  0.1342  0.2132  0.1743
  415POPI   C1A 6479   0.837  14.124   9.905 -0.1136  0.1460  0.0204
  415POPI   D2A 6480   0.874  14.042   9.468 -0.1592 -0.0792  0.0266
  415POPI   C3A 6481   0.783  14.325   9.177 -0.1781 -0.1171  0.0403
  415POPI   C4A 6482   0.613  14.476   8.773  0.1155  0.1288 -0.1058
  415POPI   C1B 6483   1.308  14.325  10.106  0.1791  0.3075 -0.2784
  415POPI   C2B 6484   1.304  14.253   9.655 -0.1291 -0.1549  0.1153
  415POPI   C3B 6485   1.300  14.229   9.164  0.1381  0.4055 -0.1420
  415POPI   C4B 6486   1.102  14.134   8.737 -0.0441 -0.1508 -0.1357
  416POPI    C1 6487  11.939   6.337  10.230  0.1776 -0.0352  0.0319
  416POPI    C2 6488  12.276   6.538  10.307  0.1909  0.0215 -0.1673
  416POPI    C3 6489  12.023   6.673  10.028  0.1185 -0.1490 -0.1850
  416POPI   PO4 6490  12.021   6.078  10.208  0.2803  0.0043 -0.2304
  416POPI   GL1 6491  12.167   5.831   9.791 -0.0495 -0.4591  0.0212
  416POPI   GL2 6492  11.821   5.729   9.790 -0.0579 -0.0511 -0.3829
  416POPI   C1A 6493  12.361   5.971   9.440  0.2274  0.0470 -0.1494
  416POPI   D2A 6494  12.561   5.735   9.164 -0.0603 -0.0723  0.0837
  416POPI   C3A 6495  12.529   5.810   8.719  0.0172  0.0092  0.1538
  416POPI   C4A 6496  12.656   5.924   8.343  0.0182 -0.0485 -0.2231
  416POPI   C1B 6497  11.751   5.691   9.329 -0.3085  0.0867 -0.2131
  416POPI   C2B 6498  11.771   5.611   8.895 -0.0036  0.2182 -0.0209
  416POPI   C3B 6499  12.070   5.716   8.486  0.0356 -0.0501 -0.0386
  416POPI   C4B 6500  12.380   5.506   8.211 -0.1796  0.0930 -0.0201
  417POPI    C1 6501   4.075  17.176  11.121 -0.0164 -0.1375 -0.1714
  417POPI    C2 6502   4.289  17.440  11.333 -0.2994  0.1072 -0.1838
  417POPI    C3 6503   4.359  17.048  11.371  0.0182  0.1744 -0.0461
  417POPI   PO4 6504   4.021  17.320  10.827  0.0358 -0.0289 -0.1215
  417POPI   GL1 6505   3.869  17.110  10.478  0.0641  0.0539  0.0510
  417POPI   GL2 6506   3.705  16.957  10.639 -0.2847  0.0318  0.1263
  417POPI   C1A 6507   3.749  16.997  10.090  0.3606  0.0977 -0.1582
  417POPI   D2A 6508   3.715  17.025   9.631  0.1742  0.2711  0.1012
  417POPI   C3A 6509   3.751  16.986   9.231 -0.3133 -0.2322 -0.0715
  417POPI   C4A 6510   3.840  16.945   8.820  0.0837  0.1141  0.0193
  417POPI   C1B 6511   3.870  16.646  10.375  0.1901 -0.0507 -0.0333
  417POPI   C2B 6512   3.904  16.577   9.904 -0.1434  0.0352  0.1045
  417POPI   C3B 6513   3.839  16.517   9.476  0.2386  0.1876  0.0864
  417POPI   C4B 6514   3.820  16.372   9.090 -0.1175  0.0651 -0.0449
  418POPI    C1 6515   9.807  10.318  10.950 -0.1102 -0.0100  0.0906
  418POPI    C2 6516  10.201  10.245  10.956 -0.0976  0.0507  0.0148
  418POPI    C3 6517  10.002  10.302  11.299 -0.1013 -0.3021  0.0745
  418POPI   PO4 6518   9.811  10.481  10.694  0.0383  0.1180  0.0554
  418POPI   GL1 6519   9.697  10.354  10.363  0.0688  0.2672  0.1130
  418POPI   GL2 6520   9.352  10.279  10.309  0.2078  0.1451 -0.2429
  418POPI   C1A 6521   9.931  10.539   9.956  0.0965 -0.0879  0.1000
  418POPI   D2A 6522   9.657  10.606   9.652 -0.0499  0.0007  0.0843
  418POPI   C3A 6523   9.700  10.672   9.302 -0.0903  0.0545 -0.1166
  418POPI   C4A 6524   9.647  10.610   8.947 -0.1957  0.0880 -0.3142
  418POPI   C1B 6525   9.175  10.579   9.941 -0.1482 -0.0467  0.0747
  418POPI   C2B 6526   9.118  10.680   9.489 -0.4386  0.2608  0.3465
  418POPI   C3B 6527   9.153  10.832   9.058 -0.2096  0.0183 -0.1765
  418POPI   C4B 6528   9.122  10.775   8.624 -0.1481  0.0873 -0.2682
  419POPI    C1 6529  16.530  15.218  10.869 -0.2905 -0.1304  0.1906
  419POPI    C2 6530  16.534  15.217  11.269  0.2110 -0.2385  0.1921
  419POPI    C3 6531  16.733  15.500  11.067 -0.2033 -0.0664  0.0129
  419POPI   PO4 6532  16.443  15.000  10.821 -0.1757  0.1460  0.0705
  419POPI   GL1 6533  16.462  14.747  10.500 -0.0684  0.0261  0.1713
  419POPI   GL2 6534  16.742  14.996  10.356  0.1829  0.3289 -0.0932
  419POPI   C1A 6535  16.388  14.715  10.034 -0.0967 -0.0886  0.0607
  419POPI   D2A 6536  16.230  14.788   9.627 -0.1897 -0.3455  0.1027
  419POPI   C3A 6537  16.346  14.767   9.233  0.2751 -0.3222  0.0256
  419POPI   C4A 6538  16.321  14.838   8.762  0.2904  0.0969  0.1881
  419POPI   C1B 6539  16.811  14.928   9.955  0.1910 -0.1531  0.0148
  419POPI   C2B 6540  16.736  14.702   9.552 -0.1736 -0.0830  0.0426
  419POPI   C3B 6541  16.806  14.619   9.113 -0.0109 -0.1370 -0.0694
  419POPI   C4B 6542  16.903  14.561   8.706  0.4059  0.1039 -0.0890
  420POPI    C1 6543   1.514   8.888  10.757 -0.0906  0.0235  0.1420
  420POPI    C2 6544   1.520   9.178  11.033 -0.0519 -0.0011  0.1671
  420POPI    C3 6545   1.847   8.957  10.968  0.0417  0.2164 -0.1235
  420POPI   PO4 6546   1.464   9.065  10.514  0.4152  0.1540 -0.1485
  420POPI   GL1 6547   1.570   9.258  10.210 -0.0892 -0.0945 -0.2057
  420POPI   GL2 6548   1.364   9.462  10.177  0.1454  0.1040 -0.1630
  420POPI   C1A 6549   1.529   9.192   9.750 -0.0469 -0.2993  0.0637
  420POPI   D2A 6550   1.434   9.178   9.303  0.0379  0.0434  0.2363
  420POPI   C3A 6551   1.416   9.514   9.004  0.2674  0.0874  0.0036
  420POPI   C4A 6552   1.394   9.627   8.626 -0.1597 -0.2203 -0.0230
  420POPI   C1B 6553   1.097   9.456   9.836  0.2841 -0.5991  0.0723
  420POPI   C2B 6554   1.121   9.540   9.388  0.1263  0.2940  0.1978
  420POPI   C3B 6555   0.889   9.669   9.029 -0.1410 -0.2061 -0.1783
  420POPI   C4B 6556   0.822   9.740   8.667  0.0658  0.0286  0.1264
  421POPI    C1 6557   8.752  16.921  11.274  0.0308 -0.0055  0.0826
  421POPI    C2 6558   8.483  17.204  11.185 -0.0038 -0.0140  0.1594
  421POPI    C3 6559   8.853  17.307  11.297  0.0149 -0.0015  0.0862
  421POPI   PO4 6560   8.717  16.723  11.076  0.0924 -0.4357  0.1559
  421POPI   GL1 6561   8.546  16.608  10.803 -0.1584  0.2153  0.2426
  421POPI   GL2 6562   8.678  16.225  10.876 -0.2549 -0.1064  0.3709
  421POPI   C1A 6563   8.560  16.815  10.355 -0.1832  0.2892  0.2904
  421POPI   D2A 6564   8.501  16.913  10.015  0.1207 -0.1503  0.1552
  421POPI   C3A 6565   8.499  16.899   9.576 -0.2534 -0.1383  0.2109
  421POPI   C4A 6566   8.411  16.885   9.159 -0.1118 -0.1112 -0.1195
  421POPI   C1B 6567   8.687  16.303  10.424 -0.0717 -0.4383  0.1131
  421POPI   C2B 6568   8.696  16.390  10.034  0.1474  0.0038  0.1663
  421POPI   C3B 6569   8.761  16.475   9.590 -0.1998  0.1669 -0.0775
  421POPI   C4B 6570   8.657  16.459   9.186  0.1767  0.2229 -0.2591
  422POPI    C1 6571  12.787   8.815  10.451  0.0616 -0.0184  0.0366
  422POPI    C2 6572  12.518   8.735  10.736 -0.1493  0.0961 -0.1271
  422POPI    C3 6573  12.879   8.562  10.746 -0.0259  0.3632  0.4005
  422POPI   PO4 6574  12.731   9.037  10.365  0.0792  0.0374  0.0795
  422POPI   GL1 6575  12.687   9.180   9.979  0.1109 -0.3432  0.0028
  422POPI   GL2 6576  12.997   9.341   9.911 -0.0576  0.3724 -0.0371
  422POPI   C1A 6577  12.641   9.153   9.458  0.1791 -0.0692 -0.1851
  422POPI   D2A 6578  12.575   9.229   9.040  0.0173  0.1584 -0.1788
  422POPI   C3A 6579  12.834   9.167   8.704 -0.2041  0.0679 -0.1807
  422POPI   C4A 6580  12.934   9.045   8.312 -0.1842  0.0141  0.2243
  422POPI   C1B 6581  13.046   9.499   9.533  0.0700  0.1931 -0.0441
  422POPI   C2B 6582  13.093   9.492   9.092  0.3067  0.2862 -0.1883
  422POPI   C3B 6583  13.269   9.484   8.745  0.1656  0.1350  0.0196
  422POPI   C4B 6584  13.352   9.069   8.627 -0.0581  0.0823 -0.0996
  423DPPI    C1 6585   4.467   9.693  10.946 -0.0704 -0.1610 -0.0490
  423DPPI    C2 6586   4.286  10.018  11.092  0.0534 -0.0918 -0.0483
  423DPPI    C3 6587   4.653   9.920  11.218  0.0574 -0.1752 -0.1238
  423DPPI   PO4 6588   4.494   9.650  10.745  0.1633  0.0566  0.2876
  423DPPI   GL1 6589   4.689   9.652  10.372  0.3181  0.1052 -0.0131
  423DPPI   GL2 6590   4.760   9.353  10.312  0.0289 -0.1472  0.0484
  423DPPI   C1A 6591   4.617   9.888  10.033 -0.2905 -0.0065 -0.1264
  423DPPI   C2A 6592   4.592   9.905   9.721 -0.1740  0.2688 -0.0645
  423DPPI   C3A 6593   4.625   9.864   9.317 -0.2279  0.0864 -0.0113
  423DPPI   C4A 6594   4.753   9.842   8.901 -0.0348  0.1014  0.0571
  423DPPI   C1B 6595   4.815   9.319   9.829  0.0671 -0.0173 -0.0194
  423DPPI   C2B 6596   4.775   9.302   9.357 -0.1376  0.3263  0.2802
  423DPPI   C3B 6597   4.864   9.337   8.974  0.2902 -0.1849 -0.0530
  423DPPI   C4B 6598   4.567   9.145   8.655  0.1989  0.3387 -0.0111
  424DPPI    C1 6599   8.700   1.773  11.087 -0.0413 -0.1907 -0.0010
  424DPPI    C2 6600   8.434   1.920  11.347  0.0574  0.0992 -0.0610
  424DPPI    C3 6601   8.540   1.535  11.366  0.0226  0.1043  0.2928
  424DPPI   PO4 6602   8.593   1.851  10.871 -0.0099 -0.0052  0.1870
  424DPPI   GL1 6603   8.840   1.857  10.527 -0.0796  0.0698  0.1065
  424DPPI   GL2 6604   8.871   1.614  10.527  0.1071  0.3073 -0.0759
  424DPPI   C1A 6605   9.056   1.915  10.093 -0.0663 -0.0975 -0.1438
  424DPPI   C2A 6606   9.043   1.915   9.677  0.3400 -0.0766  0.0406
  424DPPI   C3A 6607   8.941   1.862   9.327 -0.2537  0.1398  0.1252
  424DPPI   C4A 6608   8.855   1.896   8.838 -0.2587  0.0772  0.1602
  424DPPI   C1B 6609   8.617   1.557  10.122  0.1297  0.0686 -0.0338
  424DPPI   C2B 6610   8.714   1.475   9.630 -0.2121  0.0429  0.1350
  424DPPI   C3B 6611   8.689   1.447   9.170  0.0865 -0.1428 -0.0598
  424DPPI   C4B 6612   8.591   1.522   8.764  0.0496  0.2574 -0.1741
  425DPPI    C1 6613   0.062   4.569  10.399 -0.1819  0.0826  0.0184
  425DPPI    C2 6614   0.226   4.877  10.593 -0.1082  0.0087  0.0738
  425DPPI    C3 6615   0.020   4.600  10.795 -0.2273  0.0544  0.0159
  425DPPI   PO4 6616   0.104   4.688  10.049  0.0350  0.0704 -0.4588
  425DPPI   GL1 6617   0.155   4.545   9.617 -0.0373  0.1823  0.0780
  425DPPI   GL2 6618   0.483   4.605   9.638 -0.1152  0.4738  0.2949
  425DPPI   C1A 6619   0.226   4.428   9.234  0.0696 -0.0642  0.1080
  425DPPI   C2A 6620   0.362   4.355   8.788 -0.2279  0.0424  0.1943
  425DPPI   C3A 6621   0.545   4.276   8.441 -0.1881  0.0541  0.0179
  425DPPI   C4A 6622   0.792   4.055   8.273 -0.2818  0.0923  0.0312
  425DPPI   C1B 6623   0.397   4.901   9.361 -0.1728  0.2413  0.0195
  425DPPI   C2B 6624   0.216   4.837   8.953 -0.3172  0.2519  0.1435
  425DPPI   C3B 6625   0.133   4.832   8.565 -0.1430 -0.2789 -0.3403
  425DPPI   C4B 6626   0.085   4.649   8.293  0.2159 -0.0187  0.2959
  426DPPI    C1 6627  16.139   7.949  10.393  0.0963  0.3374 -0.0740
  426DPPI    C2 6628  15.863   8.196  10.241 -0.0387  0.1868 -0.0773
  426DPPI    C3 6629  15.952   7.856  10.051  0.0062  0.1396  0.0274
  426DPPI   PO4 6630  16.340   8.028  10.400 -0.2271  0.2892  0.1512
  426DPPI   GL1 6631  16.378   8.199  10.038  0.1207  0.0505  0.0758
  426DPPI   GL2 6632  16.403   7.852   9.871  0.0410 -0.2446 -0.1106
  426DPPI   C1A 6633  16.505   8.297   9.587  0.0790  0.2225 -0.3811
  426DPPI   C2A 6634  16.473   8.186   9.247 -0.3107  0.1510 -0.0608
  426DPPI   C3A 6635  16.492   8.187   8.819  0.0233  0.1751 -0.1912
  426DPPI   C4A 6636  16.626   8.291   8.416 -0.0418 -0.0762 -0.0402
  426DPPI   C1B 6637  16.147   7.668   9.586 -0.1461  0.0281  0.0958
  426DPPI   C2B 6638  16.117   7.734   9.236  0.0705  0.1535  0.3614
  426DPPI   C3B 6639  16.146   7.710   8.811 -0.1648 -0.1186  0.2615
  426DPPI   C4B 6640  15.914   7.688   8.449  0.1190 -0.2445 -0.1418
  427DPPI    C1 6641   8.329   6.409  10.330 -0.0489  0.0249 -0.0468
  427DPPI    C2 6642   8.279   6.578  10.689 -0.0235  0.2098 -0.1290
  427DPPI    C3 6643   8.468   6.227  10.658 -0.0049  0.2044  0.0356
  427DPPI   PO4 6644   8.463   6.501  10.231  0.2322 -0.0346 -0.1688
  427DPPI   GL1 6645   8.496   6.619   9.863  0.2228 -0.1196  0.0046
  427DPPI   GL2 6646   8.389   6.917   9.770  0.0983  0.2490 -0.1455
  427DPPI   C1A 6647   8.533   6.473   9.465  0.1921 -0.0391 -0.3113
  427DPPI   C2A 6648   8.380   6.403   9.096 -0.0963  0.0402 -0.2414
  427DPPI   C3A 6649   8.178   6.278   8.640  0.2086  0.2719 -0.0929
  427DPPI   C4A 6650   8.197   6.216   8.211 -0.2810 -0.2199 -0.1942
  427DPPI   C1B 6651   8.344   6.897   9.338 -0.1884 -0.1312  0.1023
  427DPPI   C2B 6652   8.316   6.881   8.878  0.2223  0.2897 -0.0185
  427DPPI   C3B 6653   8.634   7.042   8.482 -0.0915 -0.0439 -0.5743
  427DPPI   C4B 6654   8.536   7.354   8.165 -0.1461  0.0360  0.0488
  428DPPI    C1 6655  12.420  16.116  10.873 -0.0576 -0.0829 -0.0515
  428DPPI    C2 6656  12.548  16.204  11.241 -0.0416 -0.0505 -0.0648
  428DPPI    C3 6657  12.755  16.329  10.922 -0.0742 -0.0490 -0.0853
  428DPPI   PO4 6658  12.118  16.111  10.931 -0.0376 -0.1059 -0.0103
  428DPPI   GL1 6659  11.858  15.983  10.653 -0.4700  0.2418  0.0775
  428DPPI   GL2 6660  11.575  16.168  10.473  0.0956  0.2246  0.1641
  428DPPI   C1A 6661  11.683  15.698  10.271  0.0178 -0.0934 -0.1190
  428DPPI   C2A 6662  11.741  15.757   9.848 -0.1540 -0.0265 -0.0168
  428DPPI   C3A 6663  11.811  15.775   9.459 -0.0471  0.1990 -0.2964
  428DPPI   C4A 6664  11.761  15.905   9.067  0.3067  0.2818 -0.0709
  428DPPI   C1B 6665  11.888  16.131  10.098 -0.0474 -0.0843 -0.1190
  428DPPI   C2B 6666  12.012  16.164   9.671 -0.1456 -0.1570 -0.0264
  428DPPI   C3B 6667  12.115  16.236   9.288  0.2212  0.0703 -0.1340
  428DPPI   C4B 6668  12.120  16.215   8.802 -0.2217  0.2442 -0.2458
  429DPPI    C1 6669  14.922   1.197  10.756  0.2569  0.1805 -0.2444
  429DPPI    C2 6670  15.234   1.369  10.938  0.0083  0.1307  0.2470
  429DPPI    C3 6671  14.865   1.415  11.086 -0.1797 -0.0802 -0.1386
  429DPPI   PO4 6672  14.888   1.234  10.537  0.0192  0.0004 -0.0746
  429DPPI   GL1 6673  14.718   1.513  10.333 -0.1494  0.3115  0.1085
  429DPPI   GL2 6674  14.469   1.279  10.263 -0.2581  0.0160 -0.4257
  429DPPI   C1A 6675  14.520   1.761  10.022  0.2689 -0.0504 -0.1746
  429DPPI   C2A 6676  14.231   1.634   9.696  0.1609  0.1700  0.0792
  429DPPI   C3A 6677  14.248   1.629   9.270 -0.0621 -0.1156  0.0438
  429DPPI   C4A 6678  14.405   1.589   8.853  0.0809 -0.2090  0.1917
  429DPPI   C1B 6679  14.499   1.277   9.878 -0.1880  0.1964  0.1502
  429DPPI   C2B 6680  14.457   1.208   9.452 -0.0808  0.1400 -0.3146
  429DPPI   C3B 6681  14.457   1.109   9.098 -0.3283 -0.0709  0.0838
  429DPPI   C4B 6682  14.692   1.215   8.707 -0.1221  0.1643  0.0327
  430DPPI    C1 6683   7.194   6.235  10.445  0.1034 -0.0195  0.1199
  430DPPI    C2 6684   7.248   5.924  10.690  0.0834 -0.1452 -0.0335
  430DPPI    C3 6685   7.025   6.234  10.807 -0.0190 -0.2547  0.0644
  430DPPI   PO4 6686   7.112   6.171  10.267  0.2390  0.2634 -0.0040
  430DPPI   GL1 6687   6.866   6.163   9.982  0.0449  0.1153  0.4760
  430DPPI   GL2 6688   6.767   5.846  10.001  0.2297 -0.1811 -0.1589
  430DPPI   C1A 6689   6.817   6.329   9.568 -0.0157 -0.1583  0.0499
  430DPPI   C2A 6690   6.835   6.392   9.206  0.4302 -0.1116  0.0151
  430DPPI   C3A 6691   6.930   6.419   8.825  0.0595  0.3365 -0.5027
  430DPPI   C4A 6692   6.835   6.538   8.488  0.0064 -0.0240  0.2237
  430DPPI   C1B 6693   6.678   5.691   9.622  0.1453  0.0899 -0.0827
  430DPPI   C2B 6694   6.581   5.679   9.170  0.1262 -0.1269 -0.1733
  430DPPI   C3B 6695   6.564   5.557   8.802 -0.0233  0.1369 -0.1392
  430DPPI   C4B 6696   6.512   5.416   8.437 -0.2319 -0.0660  0.0383
  431DPPI    C1 6697   7.692  15.153  11.520  0.0086  0.1191  0.1647
  431DPPI    C2 6698   8.019  15.203  11.745 -0.0792  0.1102  0.2953
  431DPPI    C3 6699   7.667  15.127  11.918 -0.1407  0.0657  0.1522
  431DPPI   PO4 6700   7.772  15.051  11.310 -0.0289 -0.1404  0.0407
  431DPPI   GL1 6701   7.679  14.923  10.816  0.0436  0.2392 -0.1721
  431DPPI   GL2 6702   7.646  15.178  10.600  0.0036 -0.0343  0.0463
  431DPPI   C1A 6703   7.665  14.727  10.393  0.2693  0.0176  0.0313
  431DPPI   C2A 6704   7.682  14.751   9.964 -0.0096  0.1350  0.0439
  431DPPI   C3A 6705   7.737  14.794   9.529  0.0305  0.2288  0.7153
  431DPPI   C4A 6706   7.802  14.824   9.168  0.0547  0.0311  0.1009
  431DPPI   C1B 6707   7.620  15.263  10.200  0.1803  0.2254 -0.1702
  431DPPI   C2B 6708   7.588  15.288   9.701  0.5021  0.0063 -0.3252
  431DPPI   C3B 6709   7.628  15.285   9.334 -0.0607  0.1183  0.2517
  431DPPI   C4B 6710   7.437  15.373   8.986  0.1461  0.1077 -0.0846
  432DPPI    C1 6711  11.299   3.153  10.200  0.0979  0.0155  0.2337
  432DPPI    C2 6712  11.241   3.004  10.567 -0.0547 -0.0149  0.1979
  432DPPI    C3 6713  10.930   3.059  10.322  0.0318  0.1203  0.1169
  432DPPI   PO4 6714  11.449   3.392  10.202 -0.1464  0.1550 -0.2818
  432DPPI   GL1 6715  11.749   3.307   9.926  0.3312  0.0908  0.0611
  432DPPI   GL2 6716  11.916   3.538   9.808  0.2002  0.0424  0.2880
  432DPPI   C1A 6717  11.538   3.198   9.529  0.3877 -0.2220 -0.1313
  432DPPI   C2A 6718  11.225   2.905   9.231 -0.0721 -0.1251  0.0350
  432DPPI   C3A 6719  11.177   2.703   8.928  0.1478 -0.2370 -0.2219
  432DPPI   C4A 6720  10.886   2.821   8.570 -0.0057 -0.2307  0.0980
  432DPPI   C1B 6721  11.787   3.578   9.330  0.0172  0.0785 -0.1727
  432DPPI   C2B 6722  11.802   3.606   8.871  0.2211 -0.1929  0.0689
  432DPPI   C3B 6723  11.579   3.444   8.521  0.0937 -0.0072 -0.0772
  432DPPI   C4B 6724  11.527   3.365   8.031  0.0011 -0.2395  0.0801
  433DPPI    C1 6725  15.096  16.560  11.386 -0.0372 -0.1134  0.1973
  433DPPI    C2 6726  15.008  16.414  11.748  0.2559 -0.1515  0.2561
  433DPPI    C3 6727  15.379  16.541  11.668  0.2042 -0.1806 -0.0444
  433DPPI   PO4 6728  15.005  16.452  11.199  0.0307 -0.1497  0.1330
  433DPPI   GL1 6729  14.997  16.469  10.653 -0.0452  0.1082 -0.1314
  433DPPI   GL2 6730  14.725  16.494  10.788  0.1685  0.0639  0.5154
  433DPPI   C1A 6731  15.002  16.219  10.347  0.2478 -0.0343 -0.1968
  433DPPI   C2A 6732  14.990  16.041   9.875 -0.1969  0.0852 -0.2220
  433DPPI   C3A 6733  14.982  15.987   9.402 -0.0019  0.0617  0.0864
  433DPPI   C4A 6734  14.944  15.899   8.885  0.0426 -0.0050  0.0702
  433DPPI   C1B 6735  14.530  16.359  10.457  0.1059  0.2631 -0.0391
  433DPPI   C2B 6736  14.550  16.164  10.127 -0.0819 -0.1867  0.0175
  433DPPI   C3B 6737  14.545  16.117   9.642 -0.0827 -0.1029 -0.0200
  433DPPI   C4B 6738  14.487  16.013   9.149 -0.1518  0.0549  0.0353
  434DPPI    C1 6739   0.330  14.770  10.937  0.2036 -0.1134 -0.0461
  434DPPI    C2 6740   0.727  14.781  10.891  0.2152  0.0237  0.0810
  434DPPI    C3 6741   0.566  14.575  11.194  0.1843 -0.1098 -0.0256
  434DPPI   PO4 6742   0.162  14.941  10.767 -0.1357 -0.0098  0.0561
  434DPPI   GL1 6743   0.191  15.038  10.441  0.1178 -0.0368  0.0006
  434DPPI   GL2 6744   0.557  14.899  10.443  0.2918 -0.2115  0.0269
  434DPPI   C1A 6745   0.025  14.971  10.066  0.3071 -0.0927 -0.0029
  434DPPI   C2A 6746   0.026  14.939   9.678 -0.2511 -0.0614 -0.2955
  434DPPI   C3A 6747   0.059  15.000   9.210 -0.1061  0.0433  0.1038
  434DPPI   C4A 6748   0.054  15.232   8.882  0.0172 -0.0019  0.1739
  434DPPI   C1B 6749   0.558  15.042  10.093  0.1139  0.2215  0.1377
  434DPPI   C2B 6750   0.561  15.056   9.700 -0.0382 -0.1656 -0.1279
  434DPPI   C3B 6751   0.440  15.306   9.360 -0.0569  0.0304 -0.3085
  434DPPI   C4B 6752   0.503  15.428   8.922  0.0939 -0.0564 -0.2308
  435DPPI    C1 6753   7.990   6.977  10.696 -0.1163  0.1497  0.1772
  435DPPI    C2 6754   7.731   6.763  10.912 -0.2052  0.3795  0.3013
  435DPPI    C3 6755   8.088   6.856  11.064  0.0636 -0.1637  0.0308
  435DPPI   PO4 6756   7.944   6.841  10.453 -0.1198  0.3153  0.2241
  435DPPI   GL1 6757   7.830   7.116  10.144  0.1754 -0.2781  0.0544
  435DPPI   GL2 6758   8.070   7.305  10.013  0.1039  0.3342 -0.0802
  435DPPI   C1A 6759   7.621   6.904   9.853  0.3036  0.3729 -0.0409
  435DPPI   C2A 6760   7.508   7.039   9.450 -0.1618  0.3252 -0.0769
  435DPPI   C3A 6761   7.483   6.929   9.068  0.0040 -0.1205  0.1607
  435DPPI   C4A 6762   7.333   6.690   8.725  0.1931 -0.1144  0.0048
  435DPPI   C1B 6763   7.987   7.125   9.675  0.1272  0.0614  0.2466
  435DPPI   C2B 6764   7.905   7.140   9.208  0.0128  0.0148  0.2579
  435DPPI   C3B 6765   7.819   7.104   8.731  0.1751 -0.1074  0.0169
  435DPPI   C4B 6766   7.646   7.037   8.365 -0.1281  0.0434 -0.0902
  436DPPI    C1 6767   6.712   5.921  10.535 -0.0642  0.1210  0.0682
  436DPPI    C2 6768   6.590   5.995  10.909  0.0034 -0.1622  0.1490
  436DPPI    C3 6769   6.841   5.692  10.836  0.0969 -0.0263 -0.1099
  436DPPI   PO4 6770   6.449   5.942  10.402 -0.0935  0.0294  0.0774
  436DPPI   GL1 6771   6.415   6.318  10.102 -0.1773 -0.0585  0.0362
  436DPPI   GL2 6772   6.402   6.096   9.769 -0.1744 -0.0643  0.1189
  436DPPI   C1A 6773   6.423   6.602   9.668  0.0465  0.1436  0.2028
  436DPPI   C2A 6774   6.366   6.631   9.216  0.0426  0.0878 -0.1355
  436DPPI   C3A 6775   6.398   6.752   8.791 -0.0971 -0.1444  0.0634
  436DPPI   C4A 6776   6.209   6.848   8.389  0.3664 -0.0213  0.1583
  436DPPI   C1B 6777   6.402   6.124   9.395 -0.1517  0.0231  0.0230
  436DPPI   C2B 6778   6.532   6.167   8.909  0.0427 -0.1037 -0.0913
  436DPPI   C3B 6779   6.783   5.929   8.542  0.2735 -0.2282  0.0130
  436DPPI   C4B 6780   7.096   5.596   8.574 -0.0114 -0.1384  0.0592
  437DPPI    C1 6781  17.061   7.431  10.665  0.0042 -0.0629  0.2082
  437DPPI    C2 6782  17.290   7.719  10.822  0.1356 -0.0412 -0.0188
  437DPPI    C3 6783  17.121   7.446  11.060  0.0946  0.1608  0.1876
  437DPPI   PO4 6784  17.156   7.409  10.411  0.1892 -0.1533 -0.0204
  437DPPI   GL1 6785  17.265   7.583  10.017  0.1520  0.2411  0.2663
  437DPPI   GL2 6786  17.507   7.444   9.848  0.0501  0.0187  0.0938
  437DPPI   C1A 6787  17.164   7.603   9.565  0.4129 -0.1881 -0.0231
  437DPPI   C2A 6788  17.149   7.640   9.115 -0.0424 -0.2338 -0.1268
  437DPPI   C3A 6789  17.237   7.728   8.776 -0.0730  0.1217  0.1937
  437DPPI   C4A 6790  17.170   7.758   8.391 -0.1013  0.2303 -0.4767
  437DPPI   C1B 6791  17.582   7.282   9.429 -0.0705 -0.1845 -0.2198
  437DPPI   C2B 6792  17.617   7.473   9.019  0.1369 -0.0058 -0.3408
  437DPPI   C3B 6793  17.680   7.533   8.583 -0.0535  0.0985  0.0182
  437DPPI   C4B 6794  17.881   7.676   8.209 -0.0507 -0.2268 -0.1273
  438DPPI    C1 6795   8.583  14.610  11.229 -0.0127 -0.0554 -0.2637
  438DPPI    C2 6796   8.394  14.279  11.108 -0.0541 -0.0377 -0.2475
  438DPPI    C3 6797   8.294  14.452  11.455  0.1042 -0.1215 -0.1588
  438DPPI   PO4 6798   8.547  14.780  11.047 -0.2399  0.0412  0.0042
  438DPPI   GL1 6799   8.680  14.823  10.698  0.2299  0.1811 -0.0564
  438DPPI   GL2 6800   8.814  15.222  10.781  0.2987  0.0296  0.1070
  438DPPI   C1A 6801   8.549  14.685  10.295 -0.0122  0.1848  0.0581
  438DPPI   C2A 6802   8.522  14.661   9.916 -0.1702  0.3711  0.1291
  438DPPI   C3A 6803   8.360  14.709   9.581 -0.1817 -0.0686 -0.0422
  438DPPI   C4A 6804   8.281  14.713   9.071  0.0157 -0.2601  0.0806
  438DPPI   C1B 6805   8.709  15.192  10.399 -0.1705  0.1761  0.1067
  438DPPI   C2B 6806   8.747  15.154  10.056  0.0558  0.0237 -0.0221
  438DPPI   C3B 6807   8.750  15.228   9.712 -0.1807  0.1062 -0.0100
  438DPPI   C4B 6808   8.669  15.040   9.289 -0.2307  0.1861  0.1097
  439DPPI    C1 6809   0.085  15.372  11.068 -0.2628 -0.0731 -0.0785
  439DPPI    C2 6810   0.007  15.273  11.448 -0.0339  0.0443  0.0004
  439DPPI    C3 6811  -0.151  15.059  11.149 -0.2880  0.0061  0.1595
  439DPPI   PO4 6812   0.027  15.535  11.018 -0.0555 -0.1708 -0.0058
  439DPPI   GL1 6813  -0.338  15.706  10.708 -0.0966 -0.0571  0.0036
  439DPPI   GL2 6814  -0.310  16.017  10.560 -0.0237  0.1512 -0.1149
  439DPPI   C1A 6815  -0.366  15.602  10.313 -0.1222 -0.0763  0.1376
  439DPPI   C2A 6816  -0.499  15.636   9.863 -0.0620  0.3040  0.0996
  439DPPI   C3A 6817  -0.751  15.612   9.417 -0.2966  0.0261 -0.1643
  439DPPI   C4A 6818  -0.727  15.443   9.002  0.0868 -0.1627  0.1354
  439DPPI   C1B 6819  -0.192  16.065  10.103 -0.1997 -0.0193 -0.1455
  439DPPI   C2B 6820  -0.157  16.115   9.718 -0.2585  0.0362 -0.0042
  439DPPI   C3B 6821  -0.276  15.971   9.371 -0.0436 -0.1681 -0.1369
  439DPPI   C4B 6822  -0.317  15.758   8.986  0.0740 -0.0535  0.0611
  440DPPI    C1 6823  16.279  16.892  10.932 -0.1000  0.1147 -0.2595
  440DPPI    C2 6824  16.197  16.852  11.322  0.2452  0.0951 -0.1859
  440DPPI    C3 6825  15.899  16.884  11.057  0.0077  0.0966  0.0772
  440DPPI   PO4 6826  16.505  16.788  10.847  0.4539 -0.1009  0.0805
  440DPPI   GL1 6827  16.441  16.618  10.497 -0.0145  0.3516 -0.0065
  440DPPI   GL2 6828  16.345  16.245  10.523 -0.5926 -0.0396  0.0744
  440DPPI   C1A 6829  16.209  16.736  10.149 -0.0446  0.4607 -0.0061
  440DPPI   C2A 6830  16.194  16.760   9.850 -0.0729 -0.0843  0.1603
  440DPPI   C3A 6831  16.144  16.689   9.340  0.0232 -0.4501 -0.2119
  440DPPI   C4A 6832  16.191  16.624   9.011 -0.2411 -0.2319  0.1436
  440DPPI   C1B 6833  16.380  16.262  10.117 -0.0862  0.0962 -0.1805
  440DPPI   C2B 6834  16.366  16.265   9.698  0.1820 -0.1228 -0.2869
  440DPPI   C3B 6835  16.385  16.176   9.275 -0.1057 -0.1439 -0.0102
  440DPPI   C4B 6836  16.282  16.192   8.806  0.0624 -0.1289 -0.0502
  441DPPI    C1 6837   4.255  11.675  10.858  0.1573 -0.0387 -0.0353
  441DPPI    C2 6838   4.285  11.888  11.195  0.0569 -0.0309 -0.0307
  441DPPI    C3 6839   4.106  11.530  11.200  0.0214 -0.0140 -0.0833
  441DPPI   PO4 6840   4.125  11.807  10.661 -0.0609  0.1535 -0.1210
  441DPPI   GL1 6841   4.188  12.145  10.405 -0.2037 -0.1903  0.0834
  441DPPI   GL2 6842   4.468  11.988  10.343  0.0944 -0.0396  0.0100
  441DPPI   C1A 6843   4.165  11.873   9.944 -0.0780 -0.0372  0.1531
  441DPPI   C2A 6844   4.231  11.768   9.530 -0.2263 -0.2721 -0.1083
  441DPPI   C3A 6845   4.689  11.717   9.273  0.2463 -0.1221 -0.1592
  441DPPI   C4A 6846   4.594  11.637   8.793  0.2391 -0.3362  0.0136
  441DPPI   C1B 6847   4.662  11.984   9.937  0.0885  0.1729 -0.1302
  441DPPI   C2B 6848   4.929  12.058   9.589  0.1349  0.1994 -0.4246
  441DPPI   C3B 6849   4.918  12.155   9.190 -0.0459 -0.2493 -0.1298
  441DPPI   C4B 6850   4.768  12.074   8.805 -0.0566 -0.0121  0.2127
  442DPPI    C1 6851   3.623   9.372  11.026 -0.1663  0.1363  0.2184
  442DPPI    C2 6852   3.676   9.008  11.182  0.0543  0.0585 -0.0306
  442DPPI    C3 6853   3.795   9.332  11.384  0.3533 -0.0416 -0.0409
  442DPPI   PO4 6854   3.554   9.390  10.737 -0.2193 -0.0060 -0.1230
  442DPPI   GL1 6855   3.945   9.329  10.421  0.1571  0.0829 -0.1549
  442DPPI   GL2 6856   4.266   9.311  10.418  0.3063 -0.3113  0.0911
  442DPPI   C1A 6857   3.848   9.477  10.012 -0.1035 -0.4165  0.0161
  442DPPI   C2A 6858   3.913   9.637   9.606 -0.1528 -0.2738  0.1326
  442DPPI   C3A 6859   3.872   9.620   9.134 -0.3221 -0.2261 -0.0592
  442DPPI   C4A 6860   3.869   9.571   8.711  0.1566  0.0311 -0.1196
  442DPPI   C1B 6861   4.332   9.473   9.946  0.1591  0.0377 -0.0307
  442DPPI   C2B 6862   4.373   9.523   9.519  0.1453  0.0489  0.1352
  442DPPI   C3B 6863   4.406   9.496   9.066  0.0954 -0.1694  0.1964
  442DPPI   C4B 6864   4.372   9.567   8.701 -0.0755 -0.1980  0.0771
  443DPPI    C1 6865   7.447   6.998  10.476 -0.1775  0.0988  0.2180
  443DPPI    C2 6866   7.364   6.664  10.272  0.3371  0.2483 -0.2608
  443DPPI    C3 6867   7.307   6.675  10.668  0.1233 -0.3343 -0.2649
  443DPPI   PO4 6868   7.334   7.169  10.383 -0.3248  0.2489 -0.0856
  443DPPI   GL1 6869   7.434   7.480  10.111 -0.0044  0.3135 -0.0775
  443DPPI   GL2 6870   7.357   7.756  10.238 -0.2721 -0.1684  0.1911
  443DPPI   C1A 6871   7.255   7.398   9.670 -0.0103  0.1014  0.3257
  443DPPI   C2A 6872   7.243   7.452   9.215 -0.0722 -0.1223  0.0453
  443DPPI   C3A 6873   7.370   7.333   8.784 -0.1186  0.1337 -0.0147
  443DPPI   C4A 6874   7.475   7.479   8.322 -0.0623 -0.1725  0.2802
  443DPPI   C1B 6875   7.381   7.916   9.799  0.2000  0.2425  0.0419
  443DPPI   C2B 6876   7.412   7.899   9.362  0.0174 -0.3585  0.0160
  443DPPI   C3B 6877   7.415   7.956   8.894  0.0511 -0.3261 -0.2602
  443DPPI   C4B 6878   7.631   7.927   8.494 -0.0308  0.0920  0.0389
  444DPPI    C1 6879  15.477  16.472  11.053 -0.0128 -0.0179 -0.0562
  444DPPI    C2 6880  15.784  16.441  11.307 -0.1110 -0.0359  0.0613
  444DPPI    C3 6881  15.483  16.178  11.324 -0.1874  0.0479  0.0212
  444DPPI   PO4 6882  15.548  16.652  10.801 -0.1359 -0.1399  0.1495
  444DPPI   GL1 6883  15.942  16.659  10.572 -0.0004  0.0459  0.1217
  444DPPI   GL2 6884  15.820  17.000  10.530 -0.2686  0.0879  0.1419
  444DPPI   C1A 6885  15.928  16.401  10.317 -0.0334 -0.1590 -0.1126
  444DPPI   C2A 6886  15.879  16.370   9.870 -0.1008  0.1572  0.1005
  444DPPI   C3A 6887  15.906  16.217   9.426 -0.1115  0.3561  0.2827
  444DPPI   C4A 6888  15.819  16.275   8.989 -0.0130 -0.0399  0.0803
  444DPPI   C1B 6889  15.731  16.898  10.117  0.1168  0.1717 -0.1661
  444DPPI   C2B 6890  15.744  16.824   9.603  0.0390  0.1488  0.1545
  444DPPI   C3B 6891  15.706  16.839   9.082 -0.0694 -0.1976 -0.0917
  444DPPI   C4B 6892  15.549  16.803   8.665  0.1458  0.0728  0.1917
  445DPPI    C1 6893   2.671   6.702  10.358 -0.0778  0.0962 -0.0609
  445DPPI    C2 6894   3.061   6.787  10.333 -0.0584 -0.0337 -0.2145
  445DPPI    C3 6895   2.887   6.746  10.691  0.0162  0.2603 -0.1427
  445DPPI   PO4 6896   2.622   6.866  10.151  0.0547  0.0358  0.3843
  445DPPI   GL1 6897   2.937   7.099   9.855  0.1803  0.0397  0.0361
  445DPPI   GL2 6898   3.228   6.954   9.761 -0.1777  0.1117 -0.1642
  445DPPI   C1A 6899   2.730   7.062   9.486 -0.1525  0.1323 -0.0136
  445DPPI   C2A 6900   2.776   6.990   9.080 -0.0234  0.2785 -0.2427
  445DPPI   C3A 6901   2.776   6.979   8.648 -0.2467  0.2382  0.0495
  445DPPI   C4A 6902   2.862   6.990   8.312 -0.0335 -0.5642  0.1451
  445DPPI   C1B 6903   3.177   6.927   9.328 -0.3279  0.0691 -0.3525
  445DPPI   C2B 6904   3.248   6.876   8.926 -0.0905 -0.0895 -0.0064
  445DPPI   C3B 6905   3.302   6.989   8.518 -0.0626  0.0934  0.1447
  445DPPI   C4B 6906   3.275   7.257   8.202 -0.1213  0.3426  0.0021
  446DPPI    C1 6907   2.223   9.330  10.933 -0.0019  0.2513  0.1324
  446DPPI    C2 6908   2.426   9.528  11.215 -0.0122  0.2393  0.1483
  446DPPI    C3 6909   2.118   9.293  11.318  0.2018 -0.0396  0.1638
  446DPPI   PO4 6910   2.332   9.404  10.691  0.2946  0.0037  0.1903
  446DPPI   GL1 6911   2.210   9.473  10.343 -0.0162 -0.1666 -0.0605
  446DPPI   GL2 6912   2.333   9.729  10.169  0.0414 -0.0491  0.0145
  446DPPI   C1A 6913   1.986   9.340   9.934  0.1918  0.1243  0.2547
  446DPPI   C2A 6914   1.985   9.413   9.534  0.0956 -0.0282  0.0919
  446DPPI   C3A 6915   1.920   9.566   9.034  0.5058 -0.4586 -0.0752
  446DPPI   C4A 6916   1.888   9.480   8.672  0.0802 -0.1498 -0.0491
  446DPPI   C1B 6917   2.271   9.759   9.791 -0.0195  0.0261 -0.2669
  446DPPI   C2B 6918   2.278   9.914   9.400 -0.1389  0.0639  0.2110
  446DPPI   C3B 6919   2.252   9.895   8.946 -0.0235  0.0197 -0.1902
  446DPPI   C4B 6920   2.198   9.842   8.485  0.0784  0.5874 -0.2743
  447DPPI    C1 6921   9.371   4.257  10.660  0.0045  0.2010 -0.1938
  447DPPI    C2 6922   9.554   3.979  10.881 -0.1463  0.2798  0.0333
  447DPPI    C3 6923   9.685   4.357  10.885  0.0051  0.2321 -0.2083
  447DPPI   PO4 6924   9.303   4.188  10.403 -0.0154 -0.0428 -0.1234
  447DPPI   GL1 6925   9.548   4.416  10.008  0.1066  0.0761  0.3529
  447DPPI   GL2 6926   9.483   4.077   9.877  0.0149  0.2205  0.1703
  447DPPI   C1A 6927   9.419   4.623   9.592  0.0253  0.2088 -0.3246
  447DPPI   C2A 6928   9.244   4.699   9.191 -0.0755 -0.2915 -0.1975
  447DPPI   C3A 6929   9.227   4.621   8.784 -0.2217  0.0571  0.1385
  447DPPI   C4A 6930   9.262   4.763   8.386  0.2013  0.0173  0.2094
  447DPPI   C1B 6931   9.509   4.177   9.399 -0.0736 -0.0134 -0.0392
  447DPPI   C2B 6932   9.489   4.244   8.989  0.0796 -0.1623 -0.0835
  447DPPI   C3B 6933   9.322   4.240   8.458  0.2085  0.0140 -0.0717
  447DPPI   C4B 6934   9.346   4.032   8.077 -0.1702 -0.1030 -0.1980
  448DPPI    C1 6935  13.969  15.105  11.294  0.0800 -0.0094 -0.3141
  448DPPI    C2 6936  13.996  15.308  11.638 -0.1437  0.0869 -0.3520
  448DPPI    C3 6937  14.182  14.957  11.598 -0.0551  0.1110 -0.1589
  448DPPI   PO4 6938  14.035  15.254  11.128  0.1918 -0.1909 -0.0233
  448DPPI   GL1 6939  14.026  15.379  10.697 -0.3781  0.0762 -0.2552
  448DPPI   GL2 6940  13.880  15.089  10.640 -0.1904  0.4379 -0.1383
  448DPPI   C1A 6941  14.333  15.382  10.440 -0.1344  0.0442  0.2152
  448DPPI   C2A 6942  14.320  15.248   9.917 -0.3134 -0.0716  0.0420
  448DPPI   C3A 6943  14.348  15.198   9.533  0.1279 -0.2497 -0.2284
  448DPPI   C4A 6944  14.193  15.213   9.078  0.2033 -0.1037 -0.2555
  448DPPI   C1B 6945  13.947  14.943  10.210 -0.0285  0.0044  0.3414
  448DPPI   C2B 6946  13.981  14.831   9.801  0.1712  0.2159  0.0072
  448DPPI   C3B 6947  13.953  14.831   9.339  0.1596  0.3166 -0.0355
  448DPPI   C4B 6948  13.826  14.748   8.842  0.1664  0.1728  0.0218
  449DPPI    C1 6949   9.582   8.537  10.958  0.0113  0.0910  0.0199
  449DPPI    C2 6950   9.890   8.464  11.202  0.0227  0.2594  0.0570
  449DPPI    C3 6951   9.516   8.417  11.334  0.0308  0.0533  0.0115
  449DPPI   PO4 6952   9.739   8.449  10.719  0.2728  0.1867 -0.0703
  449DPPI   GL1 6953   9.759   8.733  10.391 -0.0628  0.2677 -0.2037
  449DPPI   GL2 6954   9.975   8.925  10.292 -0.2118  0.1790 -0.1603
  449DPPI   C1A 6955   9.664   8.516  10.047 -0.1430  0.1493 -0.4215
  449DPPI   C2A 6956   9.702   8.505   9.595 -0.0132 -0.1295  0.0013
  449DPPI   C3A 6957   9.774   8.502   9.182 -0.1736  0.0304 -0.1165
  449DPPI   C4A 6958   9.579   8.766   8.942  0.0781 -0.0540  0.1706
  449DPPI   C1B 6959   9.997   8.851   9.870  0.0016 -0.2593 -0.1252
  449DPPI   C2B 6960  10.034   8.870   9.396 -0.0651  0.1850  0.0405
  449DPPI   C3B 6961  10.209   8.734   9.040 -0.0784  0.2235 -0.0551
  449DPPI   C4B 6962   9.999   8.848   8.636 -0.0194 -0.0175  0.1202
  450DPPI    C1 6963  12.319  12.804  10.898  0.4583 -0.2371  0.0554
  450DPPI    C2 6964  12.407  13.179  11.003 -0.0536 -0.0390 -0.1877
  450DPPI    C3 6965  12.278  12.920  11.279  0.0559  0.0356 -0.0649
  450DPPI   PO4 6966  12.249  12.809  10.631  0.1189  0.0242  0.0527
  450DPPI   GL1 6967  12.201  12.788  10.253  0.1190  0.3358 -0.1050
  450DPPI   GL2 6968  12.401  12.497  10.313 -0.1081  0.1756  0.1508
  450DPPI   C1A 6969  12.098  12.788   9.786 -0.0219 -0.2056  0.0086
  450DPPI   C2A 6970  12.042  12.614   9.343  0.0332  0.1786 -0.0342
  450DPPI   C3A 6971  11.993  12.817   8.984  0.3263  0.2103 -0.0106
  450DPPI   C4A 6972  11.705  12.887   8.731  0.0476  0.1101 -0.0033
  450DPPI   C1B 6973  12.622  12.514   9.969  0.0155 -0.1283  0.0117
  450DPPI   C2B 6974  12.542  12.457   9.595  0.1303  0.1160  0.0759
  450DPPI   C3B 6975  12.497  12.546   9.145 -0.0965 -0.4789  0.0557
  450DPPI   C4B 6976  12.275  12.449   8.826  0.0923  0.1413 -0.0913
  451DPPI    C1 6977   6.990  15.388  11.284 -0.1446  0.1061 -0.0200
  451DPPI    C2 6978   6.769  15.265  11.594  0.0160 -0.1370  0.0013
  451DPPI    C3 6979   7.166  15.287  11.628  0.0108  0.1400 -0.0888
  451DPPI   PO4 6980   6.861  15.147  11.072 -0.0053 -0.2682 -0.0019
  451DPPI   GL1 6981   7.137  15.029  10.721  0.2153 -0.0459  0.0152
  451DPPI   GL2 6982   7.101  14.658  10.540 -0.0662 -0.0208 -0.1809
  451DPPI   C1A 6983   7.052  15.223  10.397  0.0219  0.0735 -0.4789
  451DPPI   C2A 6984   7.093  15.303   9.952 -0.0208 -0.2145  0.1030
  451DPPI   C3A 6985   7.114  15.365   9.497 -0.0644  0.0042  0.0668
  451DPPI   C4A 6986   6.916  15.236   8.997  0.3204  0.1032 -0.1772
  451DPPI   C1B 6987   7.195  14.819  10.079 -0.0623  0.1595 -0.4092
  451DPPI   C2B 6988   7.250  14.896   9.691 -0.0590 -0.0239  0.0926
  451DPPI   C3B 6989   7.263  14.816   9.289 -0.2008 -0.0960  0.2343
  451DPPI   C4B 6990   7.362  14.816   8.798 -0.0416 -0.0154 -0.1937
  452DPPI    C1 6991  12.513  12.362  10.757 -0.0405  0.0124  0.0637
  452DPPI    C2 6992  12.684  12.557  11.062 -0.0918  0.0818  0.0484
  452DPPI    C3 6993  12.360  12.331  11.125 -0.0988  0.0915  0.0463
  452DPPI   PO4 6994  12.816  12.243  10.646 -0.0166  0.3301  0.1590
  452DPPI   GL1 6995  12.851  12.185  10.257  0.1657 -0.1520 -0.1738
  452DPPI   GL2 6996  12.738  11.921  10.144  0.2878  0.3901  0.1870
  452DPPI   C1A 6997  13.100  12.214   9.911 -0.1158  0.1829 -0.1375
  452DPPI   C2A 6998  13.023  12.172   9.421 -0.2479  0.0872  0.0273
  452DPPI   C3A 6999  13.093  12.324   9.050 -0.0339 -0.1928  0.0529
  452DPPI   C4A 7000  13.230  12.795   8.797 -0.1735  0.0625  0.2315
  452DPPI   C1B 7001  12.702  12.035   9.754  0.1790  0.2512 -0.0089
  452DPPI   C2B 7002  12.625  11.950   9.279  0.0136 -0.3098 -0.3440
  452DPPI   C3B 7003  12.666  12.107   8.900 -0.1808  0.1169 -0.0334
  452DPPI   C4B 7004  12.691  12.203   8.432 -0.2682  0.0745  0.1333
  453DPPI    C1 7005   6.554   7.550  10.616  0.1500 -0.0509 -0.2787
  453DPPI    C2 7006   6.785   7.293  10.817 -0.2074 -0.0926  0.0915
  453DPPI    C3 7007   6.876   7.683  10.812 -0.0045 -0.1395  0.0418
  453DPPI   PO4 7008   6.482   7.275  10.355  0.0915 -0.1792 -0.0851
  453DPPI   GL1 7009   6.533   7.054   9.992  0.3952 -0.2375 -0.2578
  453DPPI   GL2 7010   6.255   7.241   9.895  0.5361  0.1613 -0.0569
  453DPPI   C1A 7011   6.708   7.347   9.735 -0.1120 -0.1972 -0.0846
  453DPPI   C2A 7012   6.708   7.418   9.378 -0.3304 -0.0861 -0.1109
  453DPPI   C3A 7013   6.823   7.406   9.007 -0.2597 -0.1702 -0.1613
  453DPPI   C4A 7014   6.996   7.670   8.717  0.1051  0.0316 -0.5457
  453DPPI   C1B 7015   6.365   7.072   9.469 -0.3030  0.0985 -0.0092
  453DPPI   C2B 7016   6.283   7.143   9.073 -0.1775  0.2619  0.2497
  453DPPI   C3B 7017   6.494   7.224   8.674  0.1017  0.0817 -0.2023
  453DPPI   C4B 7018   6.695   7.476   8.399  0.2015 -0.1120 -0.2697
  454DPPI    C1 7019  10.209  11.805  10.698  0.1123  0.0986 -0.0014
  454DPPI    C2 7020  10.325  11.467  10.517 -0.3018 -0.1656  0.2107
  454DPPI    C3 7021  10.498  11.579  10.860  0.0014 -0.0306  0.0180
  454DPPI   PO4 7022  10.183  11.916  10.450 -0.0765  0.1244 -0.0287
  454DPPI   GL1 7023  10.427  12.083  10.133 -0.2784  0.1229 -0.0267
  454DPPI   GL2 7024  10.706  12.394  10.245 -0.2320  0.1299  0.0127
  454DPPI   C1A 7025  10.282  11.979   9.687 -0.2217 -0.1828 -0.1115
  454DPPI   C2A 7026  10.235  11.920   9.261 -0.2114 -0.1462  0.2564
  454DPPI   C3A 7027  10.190  11.848   8.812 -0.1725 -0.2364  0.0040
  454DPPI   C4A 7028  10.017  12.005   8.540  0.0455 -0.2075  0.0481
  454DPPI   C1B 7029  10.721  12.288   9.838  0.0926  0.0249  0.1187
  454DPPI   C2B 7030  10.604  12.245   9.361  0.0764  0.0026 -0.2220
  454DPPI   C3B 7031  10.457  12.273   8.951  0.1077  0.0223 -0.1211
  454DPPI   C4B 7032  10.540  12.163   8.540 -0.1694  0.1336 -0.1357
  455DPPI    C1 7033  15.268   6.279  10.239  0.0064 -0.1376 -0.0325
  455DPPI    C2 7034  15.351   6.234  10.628 -0.0154 -0.0931 -0.0226
  455DPPI    C3 7035  15.182   6.572  10.497 -0.1930 -0.1872 -0.0407
  455DPPI   PO4 7036  15.134   6.009  10.224  0.1487 -0.0254  0.0811
  455DPPI   GL1 7037  15.048   5.707   9.968 -0.0756 -0.0332 -0.0803
  455DPPI   GL2 7038  15.276   5.482   9.791  0.0285  0.0377 -0.2457
  455DPPI   C1A 7039  14.923   5.853   9.540  0.1430  0.0341  0.1037
  455DPPI   C2A 7040  14.870   5.837   9.138 -0.0107  0.0473 -0.2304
  455DPPI   C3A 7041  14.828   5.995   8.688 -0.0503  0.0435 -0.0085
  455DPPI   C4A 7042  14.827   6.022   8.352 -0.0425 -0.0970  0.2857
  455DPPI   C1B 7043  15.264   5.527   9.349  0.3179  0.1867  0.1308
  455DPPI   C2B 7044  15.303   5.446   8.829 -0.1119 -0.1954 -0.0199
  455DPPI   C3B 7045  15.262   5.578   8.441 -0.3935 -0.0544  0.2338
  455DPPI   C4B 7046  15.041   5.683   7.981 -0.2915  0.0520 -0.2827
  456DPPI    C1 7047   9.706  13.216  11.230 -0.1445 -0.0755 -0.2407
  456DPPI    C2 7048   9.722  12.852  11.396 -0.3735  0.0687  0.1096
  456DPPI    C3 7049   9.923  13.156  11.561 -0.1720  0.1024 -0.1896
  456DPPI   PO4 7050   9.792  13.117  10.978 -0.0026 -0.1808  0.1371
  456DPPI   GL1 7051   9.682  13.014  10.627 -0.1008 -0.4395 -0.1064
  456DPPI   GL2 7052   9.764  12.794  10.373 -0.0700  0.1511 -0.3225
  456DPPI   C1A 7053   9.660  13.355  10.364 -0.2421  0.1228 -0.1782
  456DPPI   C2A 7054   9.878  13.463  10.043 -0.1888  0.0428 -0.0855
  456DPPI   C3A 7055   9.834  13.469   9.660  0.0184  0.0718 -0.0843
  456DPPI   C4A 7056   9.713  13.473   9.162  0.0136 -0.0296  0.1411
  456DPPI   C1B 7057   9.809  12.966   9.871 -0.1575  0.1192 -0.0475
  456DPPI   C2B 7058   9.839  12.999   9.448  0.2840  0.0298 -0.1850
  456DPPI   C3B 7059   9.888  12.894   9.075  0.0893 -0.0770  0.1777
  456DPPI   C4B 7060   9.875  13.304   8.718 -0.1578  0.4309 -0.1395
  457DPPI    C1 7061   8.900  11.225  10.889 -0.0576 -0.3768  0.1479
  457DPPI    C2 7062   8.820  11.457  11.204 -0.2492 -0.3627  0.0901
  457DPPI    C3 7063   8.613  11.119  11.147 -0.2649 -0.3286 -0.0590
  457DPPI   PO4 7064   8.917  11.407  10.669  0.1557 -0.0557  0.1337
  457DPPI   GL1 7065   8.676  11.307  10.302  0.0946 -0.2258  0.0183
  457DPPI   GL2 7066   8.533  11.669  10.330  0.0940  0.3245  0.1613
  457DPPI   C1A 7067   8.588  11.297   9.808 -0.1777 -0.0184 -0.1033
  457DPPI   C2A 7068   8.559  11.319   9.347 -0.1411 -0.0906 -0.1006
  457DPPI   C3A 7069   8.427  11.359   8.870  0.1970 -0.0813  0.0003
  457DPPI   C4A 7070   8.201  11.556   8.544 -0.1807  0.1099 -0.2462
  457DPPI   C1B 7071   8.488  11.793   9.961  0.0457 -0.0617 -0.1970
  457DPPI   C2B 7072   8.447  11.748   9.553  0.3522 -0.1316  0.1081
  457DPPI   C3B 7073   8.400  11.817   9.109 -0.0340  0.2998  0.0094
  457DPPI   C4B 7074   8.151  11.969   8.889  0.0782  0.5286  0.1008
  458DPPI    C1 7075   2.146   9.857  10.847 -0.0245  0.2810  0.0090
  458DPPI    C2 7076   1.887   9.671  11.088 -0.0308  0.1518 -0.0958
  458DPPI    C3 7077   2.099   9.982  11.224  0.0832 -0.0194  0.1253
  458DPPI   PO4 7078   2.108   9.889  10.612 -0.1044 -0.0721 -0.1816
  458DPPI   GL1 7079   1.850  10.244  10.451 -0.2182  0.0655 -0.3077
  458DPPI   GL2 7080   1.508  10.241  10.384  0.0926 -0.2143 -0.0641
  458DPPI   C1A 7081   2.061  10.215  10.028 -0.0956  0.1796  0.2512
  458DPPI   C2A 7082   2.026  10.311   9.491 -0.1811  0.0837 -0.3732
  458DPPI   C3A 7083   2.036  10.345   9.114  0.1713 -0.2249 -0.3497
  458DPPI   C4A 7084   2.118  10.336   8.676  0.0281  0.0099  0.2415
  458DPPI   C1B 7085   1.543  10.307  10.010 -0.0961 -0.2282  0.0386
  458DPPI   C2B 7086   1.550  10.382   9.580  0.2613  0.2955  0.3086
  458DPPI   C3B 7087   1.551  10.479   9.199 -0.1904  0.0935 -0.0224
  458DPPI   C4B 7088   1.673  10.509   8.796  0.1584  0.0793 -0.2349
  459DPPI    C1 7089  14.518   4.366  10.613  0.1655  0.0763 -0.0948
  459DPPI    C2 7090  14.261   4.576  10.835  0.0655  0.0135 -0.1506
  459DPPI    C3 7091  14.535   4.346  11.012  0.0215  0.0062 -0.0916
  459DPPI   PO4 7092  14.606   4.442  10.471  0.0130 -0.1539 -0.0779
  459DPPI   GL1 7093  14.424   4.553  10.015 -0.0056  0.3248  0.0891
  459DPPI   GL2 7094  14.219   4.720   9.870 -0.1327 -0.0279  0.0912
  459DPPI   C1A 7095  14.483   4.325   9.635 -0.0284  0.1800 -0.0824
  459DPPI   C2A 7096  14.400   4.484   9.236 -0.0249  0.1903  0.1102
  459DPPI   C3A 7097  14.344   4.514   8.796 -0.4525 -0.1107  0.2463
  459DPPI   C4A 7098  14.444   4.572   8.431 -0.0089  0.0831 -0.3702
  459DPPI   C1B 7099  14.039   4.642   9.531 -0.1867 -0.1737 -0.1306
  459DPPI   C2B 7100  13.949   4.690   9.076 -0.2595  0.1669  0.2617
  459DPPI   C3B 7101  14.003   4.821   8.632  0.1838 -0.1689 -0.1480
  459DPPI   C4B 7102  14.075   4.816   8.180  0.1807  0.0534 -0.2562
  460DPPI    C1 7103  15.291   7.847  10.612  0.1593 -0.0351  0.0984
  460DPPI    C2 7104  15.144   7.498  10.485  0.2733 -0.1031  0.1519
  460DPPI    C3 7105  15.277   7.534  10.860 -0.2385  0.1500  0.3189
  460DPPI   PO4 7106  15.386   7.932  10.345 -0.2301  0.0135 -0.1388
  460DPPI   GL1 7107  15.429   8.127  10.011  0.0710 -0.2410 -0.1551
  460DPPI   GL2 7108  15.257   8.472   9.984 -0.0625 -0.3110 -0.0595
  460DPPI   C1A 7109  15.645   7.936   9.679 -0.0929  0.1580  0.0719
  460DPPI   C2A 7110  15.583   7.883   9.337  0.2460  0.0940 -0.2623
  460DPPI   C3A 7111  15.703   7.771   8.945  0.0350 -0.3556  0.1447
  460DPPI   C4A 7112  15.525   7.967   8.580 -0.0491 -0.0443 -0.0919
  460DPPI   C1B 7113  15.429   8.316   9.532 -0.0397  0.0639 -0.2425
  460DPPI   C2B 7114  15.477   8.337   9.125 -0.2681 -0.0348  0.2630
  460DPPI   C3B 7115  15.411   8.465   8.822 -0.1170  0.3039  0.2012
  460DPPI   C4B 7116  15.601   8.445   8.510 -0.1233  0.1728  0.0172
  461DPPI    C1 7117   1.749  11.662  10.980  0.0512  0.0690 -0.0341
  461DPPI    C2 7118   1.471  11.681  11.267 -0.1822  0.0170 -0.2527
  461DPPI    C3 7119   1.859  11.692  11.364 -0.2545 -0.1777  0.0778
  461DPPI   PO4 7120   1.768  11.827  10.826  0.0897  0.0154  0.0353
  461DPPI   GL1 7121   2.150  11.940  10.606  0.2887 -0.2755  0.0230
  461DPPI   GL2 7122   2.059  11.630  10.386  0.0858 -0.0272 -0.0887
  461DPPI   C1A 7123   2.260  12.039  10.163  0.2412 -0.2140  0.1084
  461DPPI   C2A 7124   2.395  12.102   9.734  0.1066  0.0366  0.3228
  461DPPI   C3A 7125   2.432  12.111   9.294 -0.1963 -0.1503 -0.0556
  461DPPI   C4A 7126   2.394  11.993   8.840  0.0182 -0.2525 -0.1086
  461DPPI   C1B 7127   2.051  11.572   9.921  0.0074 -0.0166  0.0116
  461DPPI   C2B 7128   2.102  11.698   9.530 -0.0471 -0.0149 -0.0780
  461DPPI   C3B 7129   2.019  11.762   9.129 -0.1306  0.1301  0.1836
  461DPPI   C4B 7130   1.804  11.870   8.679  0.0498 -0.1315  0.0762
  462DPPI    C1 7131   4.468  17.607  10.829 -0.1994  0.0960 -0.0326
  462DPPI    C2 7132   4.522  17.924  11.067  0.1876  0.0548 -0.0587
  462DPPI    C3 7133   4.758  17.604  11.105 -0.0598 -0.1453 -0.1794
  462DPPI   PO4 7134   4.351  17.677  10.610 -0.0766  0.1421  0.2046
  462DPPI   GL1 7135   4.258  17.500  10.296  0.2184 -0.1425 -0.1711
  462DPPI   GL2 7136   4.357  17.198  10.469  0.2235  0.0230 -0.1005
  462DPPI   C1A 7137   4.495  17.405   9.885 -0.0294  0.2431 -0.4055
  462DPPI   C2A 7138   4.523  17.262   9.443 -0.2402  0.0643 -0.0596
  462DPPI   C3A 7139   4.553  17.303   8.945 -0.3491  0.0552 -0.0029
  462DPPI   C4A 7140   4.638  17.224   8.540  0.2464  0.1012  0.2522
  462DPPI   C1B 7141   4.231  17.038  10.003 -0.0434  0.2261 -0.4073
  462DPPI   C2B 7142   4.165  16.911   9.485  0.1227  0.3109  0.2416
  462DPPI   C3B 7143   4.293  16.844   9.134 -0.0637 -0.0917  0.0932
  462DPPI   C4B 7144   4.324  16.808   8.644  0.0456  0.0309  0.4368
  463DPPI    C1 7145   7.419  12.657  10.901 -0.0278  0.2483 -0.1282
  463DPPI    C2 7146   7.656  12.387  11.078 -0.2205  0.0889 -0.1094
  463DPPI    C3 7147   7.639  12.761  11.219 -0.0289  0.0850 -0.0725
  463DPPI   PO4 7148   7.388  12.573  10.672 -0.2176 -0.1611 -0.1683
  463DPPI   GL1 7149   7.075  12.394  10.505 -0.2907  0.5753  0.0449
  463DPPI   GL2 7150   6.872  12.201  10.582 -0.0170  0.1683  0.0772
  463DPPI   C1A 7151   7.089  12.473  10.095  0.2026  0.0959 -0.2041
  463DPPI   C2A 7152   7.085  12.522   9.680 -0.1416  0.1673  0.0040
  463DPPI   C3A 7153   7.122  12.594   9.251  0.1944  0.0703  0.1883
  463DPPI   C4A 7154   7.117  12.656   8.821  0.1218  0.1528 -0.0349
  463DPPI   C1B 7155   6.742  12.017  10.178  0.1956 -0.1115 -0.0711
  463DPPI   C2B 7156   6.792  12.082   9.789 -0.0354  0.0248 -0.1372
  463DPPI   C3B 7157   6.775  12.214   9.441  0.0316  0.1576  0.0442
  463DPPI   C4B 7158   6.784  12.235   8.994 -0.3240 -0.0100 -0.1153
  464DPPI    C1 7159  16.585   8.416  10.610  0.1604 -0.0536 -0.0368
  464DPPI    C2 7160  16.482   8.728  10.383  0.1075  0.1508  0.2620
  464DPPI    C3 7161  16.199   8.493  10.540  0.1363  0.1213  0.2700
  464DPPI   PO4 7162  16.755   8.285  10.346  0.1286 -0.0589 -0.0162
  464DPPI   GL1 7163  16.854   8.287   9.949  0.1541  0.2555  0.0631
  464DPPI   GL2 7164  16.908   7.982   9.833 -0.1400 -0.2715 -0.1709
  464DPPI   C1A 7165  16.954   8.560   9.603 -0.1635  0.1506  0.1175
  464DPPI   C2A 7166  16.903   8.552   9.230  0.1054 -0.2157 -0.1339
  464DPPI   C3A 7167  16.841   8.545   8.839 -0.1001 -0.1370  0.0136
  464DPPI   C4A 7168  17.002   8.646   8.470  0.1260 -0.0147  0.1099
  464DPPI   C1B 7169  17.034   8.117   9.422  0.0385  0.2329 -0.0805
  464DPPI   C2B 7170  16.965   8.094   9.000 -0.1211  0.0206  0.2119
  464DPPI   C3B 7171  17.176   8.204   8.678 -0.3050 -0.1686  0.1685
  464DPPI   C4B 7172  17.107   8.203   8.208 -0.0164  0.1637 -0.0909
  465DPPI    C1 7173  11.756  12.761  10.692 -0.2248  0.0712  0.2010
  465DPPI    C2 7174  11.837  12.977  11.018  0.0817  0.1792  0.0573
  465DPPI    C3 7175  11.901  12.582  11.019  0.1269  0.1864  0.1132
  465DPPI   PO4 7176  11.502  12.805  10.613  0.1750 -0.2632 -0.0704
  465DPPI   GL1 7177  11.589  13.112  10.350 -0.1046 -0.1820  0.5071
  465DPPI   GL2 7178  11.700  12.827  10.148 -0.0452 -0.0789 -0.2196
  465DPPI   C1A 7179  11.555  13.315  10.015 -0.1450 -0.0625  0.1452
  465DPPI   C2A 7180  11.515  13.352   9.609 -0.1975  0.1109  0.2114
  465DPPI   C3A 7181  11.487  13.397   9.242  0.0889 -0.1133 -0.3855
  465DPPI   C4A 7182  11.291  13.168   8.922 -0.1100 -0.1015 -0.2513
  465DPPI   C1B 7183  11.624  12.900   9.789 -0.0099  0.4152  0.1865
  465DPPI   C2B 7184  11.545  12.796   9.341 -0.1905  0.2249  0.1742
  465DPPI   C3B 7185  11.245  12.730   9.144  0.1332  0.2359 -0.0625
  465DPPI   C4B 7186  10.817  12.584   9.006 -0.2362  0.2257  0.1712
  466DPPI    C1 7187  13.068  11.026  10.462  0.0569  0.0221  0.0409
  466DPPI    C2 7188  12.857  10.860  10.759 -0.0280 -0.0627 -0.0662
  466DPPI    C3 7189  13.034  11.214  10.813  0.2202 -0.2221  0.1905
  466DPPI   PO4 7190  13.153  10.827  10.343  0.2576  0.2705  0.1156
  466DPPI   GL1 7191  13.351  10.852   9.950  0.3066 -0.0444  0.3519
  466DPPI   GL2 7192  13.309  11.182  10.015  0.0077  0.0936 -0.0250
  466DPPI   C1A 7193  13.316  10.799   9.516  0.3360  0.0003 -0.2862
  466DPPI   C2A 7194  13.426  10.852   9.104 -0.0889 -0.4198  0.0369
  466DPPI   C3A 7195  13.543  11.082   8.705  0.0007  0.0615 -0.1106
  466DPPI   C4A 7196  13.826  11.358   8.352 -0.1215 -0.0729  0.1640
  466DPPI   C1B 7197  13.374  11.298   9.581  0.3000  0.0584 -0.1109
  466DPPI   C2B 7198  13.365  11.382   9.238 -0.2555 -0.2294  0.4576
  466DPPI   C3B 7199  13.460  11.552   8.989  0.0634  0.4132  0.3294
  466DPPI   C4B 7200  13.635  11.762   8.694 -0.0230 -0.1808  0.0186
  467DPPI    C1 7201  11.405  15.739  10.937  0.1309  0.2389 -0.0728
  467DPPI    C2 7202  11.769  15.748  11.102  0.0120 -0.0424  0.2151
  467DPPI    C3 7203  11.702  15.523  10.778  0.1114  0.0715  0.1145
  467DPPI   PO4 7204  11.366  15.992  10.915 -0.1958 -0.1258 -0.0267
  467DPPI   GL1 7205  11.080  15.993  10.624 -0.3690  0.1073  0.3090
  467DPPI   GL2 7206  11.227  15.779  10.415  0.2448 -0.1705 -0.1331
  467DPPI   C1A 7207  11.153  16.389  10.323 -0.1454 -0.0152 -0.2060
  467DPPI   C2A 7208  11.061  16.418   9.916  0.0473  0.0117  0.0366
  467DPPI   C3A 7209  11.063  16.429   9.410  0.2101 -0.0044 -0.1296
  467DPPI   C4A 7210  11.519  16.375   9.169 -0.0351 -0.1866  0.0668
  467DPPI   C1B 7211  11.422  16.063   9.979  0.0602 -0.3395 -0.3255
  467DPPI   C2B 7212  11.450  16.124   9.547  0.3216 -0.0729  0.1707
  467DPPI   C3B 7213  11.243  15.943   9.147  0.2025 -0.5669  0.3461
  467DPPI   C4B 7214  11.218  15.714   8.715  0.1045  0.0747 -0.0435
  468DPPI    C1 7215   7.807   2.386  11.016 -0.2001 -0.3433 -0.1705
  468DPPI    C2 7216   8.177   2.325  10.876 -0.0894 -0.1633  0.0367
  468DPPI    C3 7217   8.109   2.320  11.270 -0.2859 -0.0782  0.0051
  468DPPI   PO4 7218   7.715   2.214  10.880  0.2112 -0.1574 -0.0227
  468DPPI   GL1 7219   7.809   1.997  10.599  0.3760  0.2756  0.1261
  468DPPI   GL2 7220   7.587   1.917  10.308 -0.0325 -0.1793 -0.1044
  468DPPI   C1A 7221   8.016   2.089  10.092 -0.0337  0.0690  0.2143
  468DPPI   C2A 7222   7.912   2.166   9.716 -0.1102  0.1731  0.0540
  468DPPI   C3A 7223   7.814   1.952   9.346 -0.1478  0.2829  0.1281
  468DPPI   C4A 7224   7.575   1.686   9.016 -0.3152 -0.2043 -0.3127
  468DPPI   C1B 7225   7.638   1.826   9.962  0.1113 -0.2327 -0.0118
  468DPPI   C2B 7226   7.814   1.579   9.683  0.0497  0.2719 -0.1527
  468DPPI   C3B 7227   7.965   1.428   9.232  0.0989 -0.0966  0.0311
  468DPPI   C4B 7228   8.114   1.391   8.843  0.0948 -0.0596  0.1878
  469DPPI    C1 7229   8.973  13.870  10.959 -0.4023  0.2270  0.0538
  469DPPI    C2 7230   8.860  13.628  11.257  0.0849 -0.1717 -0.0704
  469DPPI    C3 7231   9.182  13.861  11.299 -0.1147  0.1201 -0.1221
  469DPPI   PO4 7232   8.750  13.967  10.877 -0.0782  0.0547  0.3349
  469DPPI   GL1 7233   8.445  13.847  10.571 -0.1520 -0.3325 -0.0704
  469DPPI   GL2 7234   8.394  13.595  10.310  0.1444  0.3533 -0.2111
  469DPPI   C1A 7235   8.458  14.069  10.190  0.1381 -0.0412 -0.2078
  469DPPI   C2A 7236   8.473  14.165   9.788  0.1668 -0.0762  0.1154
  469DPPI   C3A 7237   8.406  14.257   9.352  0.0108 -0.0701 -0.1659
  469DPPI   C4A 7238   8.397  14.161   8.867  0.0374  0.1737  0.0691
  469DPPI   C1B 7239   8.346  13.604   9.863  0.0778 -0.2686 -0.2722
  469DPPI   C2B 7240   8.478  13.704   9.483 -0.3219 -0.0890 -0.3767
  469DPPI   C3B 7241   8.659  13.621   9.115 -0.0800  0.2192 -0.0764
  469DPPI   C4B 7242   8.824  13.807   8.703 -0.0601  0.0147 -0.1041
  470DPPI    C1 7243   0.368  13.375  10.839 -0.1429  0.0854 -0.1365
  470DPPI    C2 7244   0.192  13.060  10.667 -0.3680 -0.0749  0.3682
  470DPPI    C3 7245   0.019  13.420  10.650 -0.0334  0.0711 -0.3457
  470DPPI   PO4 7246   0.657  13.236  10.811 -0.1012 -0.1447  0.0248
  470DPPI   GL1 7247   1.074  13.351  10.675 -0.0527  0.0874 -0.1809
  470DPPI   GL2 7248   0.847  13.570  10.450  0.3572 -0.0060  0.0905
  470DPPI   C1A 7249   1.161  13.179  10.280  0.2127  0.2426 -0.0237
  470DPPI   C2A 7250   1.127  13.249   9.868 -0.3455 -0.2824 -0.0067
  470DPPI   C3A 7251   1.135  13.360   9.377  0.1987 -0.2462  0.0790
  470DPPI   C4A 7252   0.982  13.756   9.118  0.1089 -0.3104 -0.2807
  470DPPI   C1B 7253   0.783  13.575  10.057  0.1240 -0.2833 -0.1241
  470DPPI   C2B 7254   0.744  13.567   9.675 -0.1887 -0.3291 -0.0183
  470DPPI   C3B 7255   0.550  13.481   9.383  0.1164 -0.2908 -0.1568
  470DPPI   C4B 7256   0.600  13.491   8.936  0.2713  0.0942 -0.1628
  471DPPI    C1 7257  13.667  17.409  10.874 -0.0400  0.0505 -0.0194
  471DPPI    C2 7258  13.333  17.283  11.056  0.1012 -0.3279 -0.0151
  471DPPI    C3 7259  13.640  17.419  11.273 -0.0374 -0.0017 -0.0179
  471DPPI   PO4 7260  13.552  17.638  10.691 -0.1224 -0.2306  0.0177
  471DPPI   GL1 7261  13.272  17.550  10.329  0.0391  0.0775  0.0459
  471DPPI   GL2 7262  13.430  17.275  10.336  0.1026 -0.0942  0.1080
  471DPPI   C1A 7263  13.244  17.408   9.878 -0.0270  0.1726  0.2225
  471DPPI   C2A 7264  13.203  17.295   9.421 -0.2228  0.0982  0.0389
  471DPPI   C3A 7265  13.141  17.176   9.029  0.1436  0.1267  0.3237
  471DPPI   C4A 7266  13.107  17.311   8.674  0.1096 -0.3265  0.3059
  471DPPI   C1B 7267  13.712  17.331  10.071  0.0270  0.3250 -0.1955
  471DPPI   C2B 7268  13.711  17.226   9.660 -0.2821 -0.0275  0.0120
  471DPPI   C3B 7269  13.654  17.303   9.208  0.0662  0.1223 -0.0013
  471DPPI   C4B 7270  13.656  17.290   8.794  0.1030 -0.0951  0.0067
  472DPPI    C1 7271  13.684  10.224  10.617  0.2544  0.0578  0.1535
  472DPPI    C2 7272  13.708  10.296  11.010  0.2151  0.1426  0.1407
  472DPPI    C3 7273  13.812   9.938  10.865  0.1493  0.0836  0.2383
  472DPPI   PO4 7274  13.704  10.405  10.501  0.2284 -0.3200  0.0130
  472DPPI   GL1 7275  13.755  10.580  10.050  0.0847  0.0505  0.0746
  472DPPI   GL2 7276  13.565  10.432  10.011  0.0154  0.1172 -0.0300
  472DPPI   C1A 7277  13.792  10.544   9.610  0.2662 -0.1887  0.0664
  472DPPI   C2A 7278  13.854  10.624   9.154 -0.0174 -0.0981  0.0844
  472DPPI   C3A 7279  13.961  10.761   8.775  0.2606 -0.0404  0.1078
  472DPPI   C4A 7280  13.886  10.688   8.378 -0.1460  0.0141  0.0215
  472DPPI   C1B 7281  13.404  10.233   9.621 -0.2182 -0.3271  0.0104
  472DPPI   C2B 7282  13.466  10.329   9.242 -0.0284  0.1794  0.4153
  472DPPI   C3B 7283  13.585  10.429   8.792 -0.0309 -0.5586 -0.0955
  472DPPI   C4B 7284  13.594  10.183   8.347 -0.2001 -0.1679 -0.0802
  473PYPI    C1 7285   8.677   8.108  10.898 -0.2027  0.1238 -0.3440
  473PYPI    C2 7286   8.416   8.409  10.860 -0.5394 -0.0791  0.2389
  473PYPI    C3 7287   8.652   8.388  11.182  0.1281  0.0345 -0.2227
  473PYPI   PO4 7288   8.843   8.154  10.700  0.1497 -0.2056 -0.0391
  473PYPI   GL1 7289   9.067   8.026  10.307 -0.2368 -0.0201 -0.4076
  473PYPI   GL2 7290   8.761   8.118  10.219  0.1146 -0.2191 -0.1076
  473PYPI   C1A 7291   9.233   8.118   9.935 -0.1232  0.0513 -0.2927
  473PYPI   C2A 7292   9.281   8.120   9.550  0.0163  0.1149 -0.0447
  473PYPI   D3A 7293   9.197   8.369   9.157 -0.3714  0.1558 -0.1704
  473PYPI   C4A 7294   9.396   8.344   8.785  0.0765 -0.0303  0.1254
  473PYPI   C1B 7295   8.707   8.216   9.869 -0.1576  0.3561  0.2560
  473PYPI   C2B 7296   8.779   8.345   9.450 -0.2128 -0.1053  0.0490
  473PYPI   C3B 7297   8.669   8.214   9.086  0.1311  0.0076 -0.1554
  473PYPI   C4B 7298   8.637   8.138   8.606 -0.0141 -0.0747 -0.2412
  474PYPI    C1 7299   9.039  16.197  11.540 -0.0472 -0.0586 -0.1519
  474PYPI    C2 7300   8.686  16.087  11.693 -0.0907  0.2497 -0.0230
  474PYPI    C3 7301   9.022  15.913  11.821 -0.1853  0.0266 -0.0725
  474PYPI   PO4 7302   8.935  16.264  11.280  0.0260  0.0795  0.1774
  474PYPI   GL1 7303   9.133  16.526  10.959  0.3002  0.1020 -0.0460
  474PYPI   GL2 7304   9.038  16.673  10.684  0.2879  0.0708  0.1175
  474PYPI   C1A 7305   9.225  16.170  10.545  0.1302  0.2540  0.0589
  474PYPI   C2A 7306   9.369  16.222  10.074  0.2529 -0.1997 -0.2461
  474PYPI   D3A 7307   9.187  16.353   9.796  0.1670 -0.0290 -0.0905
  474PYPI   C4A 7308   9.210  16.249   9.378  0.0752  0.0024  0.3374
  474PYPI   C1B 7309   9.075  16.615  10.288  0.0079 -0.0176  0.1321
  474PYPI   C2B 7310   9.050  16.782   9.833  0.3414 -0.1373  0.1340
  474PYPI   C3B 7311   9.056  16.806   9.436 -0.3329  0.0494  0.0412
  474PYPI   C4B 7312   8.861  16.940   9.015  0.4643 -0.0148  0.0891
  475PYPI    C1 7313  11.408   9.626  10.997 -0.1077  0.0411 -0.1202
  475PYPI    C2 7314  11.557   9.906  10.753 -0.0445  0.0355 -0.0884
  475PYPI    C3 7315  11.594   9.946  11.149  0.1028 -0.0949 -0.0884
  475PYPI   PO4 7316  11.290   9.466  10.817  0.0354  0.2333 -0.2128
  475PYPI   GL1 7317  11.258   9.447  10.460  0.2456  0.0748  0.0997
  475PYPI   GL2 7318  11.513   9.562  10.331  0.2373  0.1637 -0.3050
  475PYPI   C1A 7319  11.122   9.522   9.970  0.1589 -0.1763 -0.1109
  475PYPI   C2A 7320  11.076   9.464   9.568 -0.2306 -0.1557  0.2310
  475PYPI   D3A 7321  11.021   9.432   9.164 -0.0220 -0.0689 -0.2713
  475PYPI   C4A 7322  10.778   9.210   8.981 -0.0429  0.1050 -0.0953
  475PYPI   C1B 7323  11.728   9.632   9.960 -0.1996  0.2573 -0.0815
  475PYPI   C2B 7324  11.702   9.531   9.559 -0.1013 -0.0536 -0.1926
  475PYPI   C3B 7325  11.748   9.613   9.185  0.2763 -0.1453  0.0400
  475PYPI   C4B 7326  11.631   9.938   8.988 -0.0621 -0.2471 -0.1931
  476PYPI    C1 7327  15.189  11.218  10.828  0.1088  0.2235 -0.0576
  476PYPI    C2 7328  15.512  11.412  10.692  0.1714  0.0834 -0.1110
  476PYPI    C3 7329  15.512  11.257  11.061  0.1451  0.1293 -0.0916
  476PYPI   PO4 7330  15.109  11.086  10.542  0.2040 -0.2452 -0.1950
  476PYPI   GL1 7331  15.311  10.995  10.118  0.0588  0.2359 -0.2058
  476PYPI   GL2 7332  15.126  10.669  10.272 -0.1357 -0.2254  0.2117
  476PYPI   C1A 7333  15.479  11.103   9.687  0.0318  0.3867 -0.1536
  476PYPI   C2A 7334  15.529  11.282   9.263  0.3101 -0.0331 -0.1225
  476PYPI   D3A 7335  15.672  11.241   8.794  0.0112  0.0786 -0.1264
  476PYPI   C4A 7336  15.609  11.324   8.365  0.0461 -0.1085 -0.2335
  476PYPI   C1B 7337  15.168  10.735   9.744 -0.0854 -0.4102 -0.1194
  476PYPI   C2B 7338  15.296  10.754   9.250  0.1610 -0.2657  0.0143
  476PYPI   C3B 7339  15.257  10.809   8.830 -0.1290  0.1094 -0.0389
  476PYPI   C4B 7340  15.309  10.932   8.360  0.1081  0.0942 -0.0526
  477PYPI    C1 7341   9.494   2.517  10.680  0.1621  0.0117  0.0898
  477PYPI    C2 7342   9.455   2.673  11.046  0.1046 -0.0798  0.1230
  477PYPI    C3 7343   9.526   2.282  11.002  0.0134 -0.0866  0.0336
  477PYPI   PO4 7344   9.540   2.756  10.559 -0.3221 -0.2295 -0.0518
  477PYPI   GL1 7345   9.872   2.745  10.338  0.0184 -0.4010  0.0710
  477PYPI   GL2 7346   9.913   2.451  10.186 -0.1578  0.2578  0.0509
  477PYPI   C1A 7347   9.771   2.837   9.931  0.0724  0.0658  0.2014
  477PYPI   C2A 7348   9.670   2.800   9.554 -0.0231  0.1752 -0.1665
  477PYPI   D3A 7349   9.582   2.651   9.106 -0.2612 -0.3315 -0.0810
  477PYPI   C4A 7350   9.719   2.335   8.906  0.2412 -0.0083 -0.0793
  477PYPI   C1B 7351   9.845   2.358   9.809 -0.0889  0.0233  0.2037
  477PYPI   C2B 7352   9.834   2.320   9.438  0.2728  0.0732 -0.1466
  477PYPI   C3B 7353   9.926   1.995   9.228  0.1233 -0.3471 -0.1867
  477PYPI   C4B 7354   9.879   1.852   8.749  0.0580  0.1338 -0.4219
  478PYPI    C1 7355   1.612   1.592  10.673 -0.0414 -0.3722 -0.3423
  478PYPI    C2 7356   1.504   1.207  10.690 -0.0778 -0.3545 -0.1539
  478PYPI    C3 7357   1.761   1.354  10.958 -0.3638 -0.1548  0.0170
  478PYPI   PO4 7358   1.609   1.724  10.443 -0.1048 -0.1963 -0.0309
  478PYPI   GL1 7359   1.830   1.928  10.104  0.0596  0.1382 -0.1097
  478PYPI   GL2 7360   2.010   2.159  10.099  0.1658  0.1887  0.1579
  478PYPI   C1A 7361   2.042   1.796   9.726  0.0422 -0.2710  0.2459
  478PYPI   C2A 7362   2.160   1.732   9.315 -0.1794 -0.3945 -0.1813
  478PYPI   D3A 7363   2.337   1.716   8.882 -0.1384  0.2542 -0.1193
  478PYPI   C4A 7364   2.088   1.536   8.583  0.0782 -0.0714 -0.0448
  478PYPI   C1B 7365   1.976   2.346   9.749  0.3548 -0.1963 -0.2120
  478PYPI   C2B 7366   1.951   2.283   9.385  0.2526 -0.1621  0.3055
  478PYPI   C3B 7367   1.999   2.057   9.011 -0.0597 -0.2207  0.0460
  478PYPI   C4B 7368   2.285   2.189   8.689 -0.1285 -0.1687  0.0873
  479PYPI    C1 7369  12.421   3.295  10.616 -0.1562 -0.0548 -0.2792
  479PYPI    C2 7370  12.509   3.053  10.922  0.1812  0.2427 -0.1342
  479PYPI    C3 7371  12.131   3.168  10.860  0.0338 -0.2208 -0.1364
  479PYPI   PO4 7372  12.674   3.142  10.411 -0.1603 -0.0342 -0.0228
  479PYPI   GL1 7373  12.474   2.914  10.059 -0.0537  0.0181 -0.0381
  479PYPI   GL2 7374  12.337   3.140   9.960 -0.0436 -0.1718 -0.0748
  479PYPI   C1A 7375  12.591   2.603   9.896 -0.0174  0.0742  0.0367
  479PYPI   C2A 7376  12.663   2.484   9.497 -0.0016  0.2227  0.0445
  479PYPI   D3A 7377  12.689   2.429   9.068 -0.1355 -0.0541 -0.0499
  479PYPI   C4A 7378  12.701   2.313   8.632 -0.0293 -0.2027 -0.3554
  479PYPI   C1B 7379  12.480   2.941   9.551  0.2532 -0.2720 -0.0265
  479PYPI   C2B 7380  12.265   2.780   9.220 -0.2176 -0.1079 -0.0060
  479PYPI   C3B 7381  12.076   2.491   8.872 -0.2220 -0.3613 -0.0195
  479PYPI   C4B 7382  12.177   2.185   8.543  0.0198 -0.0954  0.1927
  480PYPI    C1 7383   6.045   8.016  10.805 -0.0565  0.2316 -0.0717
  480PYPI    C2 7384   6.274   7.757  11.008 -0.1430 -0.1403 -0.4359
  480PYPI    C3 7385   6.251   8.139  11.125  0.1486 -0.2471 -0.0113
  480PYPI   PO4 7386   6.148   7.967  10.529  0.1150  0.0196 -0.1111
  480PYPI   GL1 7387   6.485   8.006  10.214  0.2888  0.0594  0.0876
  480PYPI   GL2 7388   6.457   7.645  10.040  0.0472  0.1471 -0.2941
  480PYPI   C1A 7389   6.262   8.110   9.785 -0.3219 -0.2554  0.2122
  480PYPI   C2A 7390   6.325   8.147   9.376  0.1868  0.2561 -0.1232
  480PYPI   D3A 7391   6.333   8.206   8.980  0.0452  0.2289 -0.0387
  480PYPI   C4A 7392   6.521   8.409   8.699  0.2362  0.0927  0.2988
  480PYPI   C1B 7393   6.305   7.612   9.591 -0.0505  0.2006 -0.2764
  480PYPI   C2B 7394   6.331   7.691   9.135 -0.2284 -0.3934 -0.1723
  480PYPI   C3B 7395   6.476   7.742   8.764 -0.4541 -0.0345 -0.1847
  480PYPI   C4B 7396   6.602   7.964   8.434  0.0216 -0.1004  0.0921
  481PYPI    C1 7397   7.264  16.907  11.120 -0.1048  0.2976 -0.1702
  481PYPI    C2 7398   7.452  17.226  11.272  0.1443  0.0756 -0.0016
  481PYPI    C3 7399   7.132  17.074  11.459  0.2260  0.0271  0.0995
  481PYPI   PO4 7400   7.229  17.003  10.809  0.2421 -0.0131  0.3754
  481PYPI   GL1 7401   7.255  16.805  10.287 -0.2220 -0.2152 -0.3260
  481PYPI   GL2 7402   7.595  16.782  10.418  0.0708  0.2941 -0.1459
  481PYPI   C1A 7403   7.121  16.744   9.854  0.3996 -0.2381 -0.2723
  481PYPI   C2A 7404   7.091  16.745   9.396  0.0925 -0.0057 -0.0765
  481PYPI   D3A 7405   7.146  16.755   8.967 -0.1250  0.3427  0.1929
  481PYPI   C4A 7406   6.851  16.868   8.767 -0.0076 -0.4347  0.5091
  481PYPI   C1B 7407   7.681  16.587  10.072 -0.3091  0.0817 -0.0769
  481PYPI   C2B 7408   7.607  16.545   9.697  0.0688  0.0311 -0.1823
  481PYPI   C3B 7409   7.570  16.611   9.276 -0.1791  0.2346  0.3670
  481PYPI   C4B 7410   7.558  16.497   8.783  0.1478  0.2595  0.0474
  482PYPI    C1 7411  12.143  14.882  11.077 -0.0691 -0.1912  0.1689
  482PYPI    C2 7412  11.777  14.771  11.194 -0.2161  0.0901 -0.0124
  482PYPI    C3 7413  12.028  14.500  11.040 -0.2957 -0.1315  0.2386
  482PYPI   PO4 7414  12.152  15.117  10.884 -0.2190 -0.0522  0.0571
  482PYPI   GL1 7415  12.322  15.311  10.482 -0.2032  0.1592 -0.1831
  482PYPI   GL2 7416  11.998  15.300  10.433  0.0563  0.0267 -0.1548
  482PYPI   C1A 7417  12.466  15.154  10.190  0.1644 -0.0879 -0.1794
  482PYPI   C2A 7418  12.441  15.135   9.792 -0.2369 -0.0529 -0.2103
  482PYPI   D3A 7419  12.315  14.994   9.425 -0.0698  0.2936  0.2130
  482PYPI   C4A 7420  12.301  15.152   9.011  0.0981 -0.1714 -0.1939
  482PYPI   C1B 7421  11.944  15.312   9.991  0.4634  0.1948 -0.0268
  482PYPI   C2B 7422  11.970  15.268   9.661  0.0596 -0.1784 -0.1687
  482PYPI   C3B 7423  11.838  15.240   9.287 -0.1790  0.1411 -0.3042
  482PYPI   C4B 7424  11.877  15.459   8.865 -0.1918 -0.0610 -0.0998
  483PYPI    C1 7425  13.103   7.601  10.667  0.0677 -0.0258  0.2486
  483PYPI    C2 7426  13.473   7.467  10.737  0.1016 -0.0911 -0.0446
  483PYPI    C3 7427  13.158   7.238  10.826  0.1296 -0.0315  0.2149
  483PYPI   PO4 7428  13.077   7.647  10.450  0.0266  0.0550  0.2866
  483PYPI   GL1 7429  12.903   7.667  10.132  0.1019  0.1527  0.2170
  483PYPI   GL2 7430  13.134   7.946  10.030  0.1866  0.2411 -0.1252
  483PYPI   C1A 7431  12.661   7.448   9.798 -0.0328 -0.0847 -0.1390
  483PYPI   C2A 7432  12.570   7.444   9.382 -0.0734 -0.0687 -0.2510
  483PYPI   D3A 7433  12.205   7.546   9.180 -0.0374 -0.0032 -0.1619
  483PYPI   C4A 7434  12.283   7.543   8.783  0.0751 -0.0317  0.0537
  483PYPI   C1B 7435  13.062   7.736   9.649  0.0125  0.3325 -0.2253
  483PYPI   C2B 7436  13.190   7.713   9.265  0.4697 -0.0177  0.2551
  483PYPI   C3B 7437  13.208   7.721   8.845  0.3729  0.1011 -0.1284
  483PYPI   C4B 7438  13.170   7.746   8.422 -0.0068  0.3113  0.0969
  484PYPI    C1 7439  16.316  11.712  10.771  0.2066 -0.2401  0.1783
  484PYPI    C2 7440  15.955  11.631  10.922  0.1021 -0.1776 -0.0355
  484PYPI    C3 7441  16.237  11.792  11.155 -0.0827 -0.0066  0.0735
  484PYPI   PO4 7442  16.560  11.539  10.730 -0.1861  0.1834  0.3256
  484PYPI   GL1 7443  16.741  11.411  10.377  0.0555 -0.1696 -0.0516
  484PYPI   GL2 7444  16.530  11.059  10.248 -0.3067  0.1260  0.1799
  484PYPI   C1A 7445  16.633  11.698  10.062 -0.2298  0.1978  0.1820
  484PYPI   C2A 7446  16.703  11.904   9.710 -0.1646  0.0263 -0.2406
  484PYPI   D3A 7447  16.713  11.833   9.191 -0.3348 -0.0923 -0.1401
  484PYPI   C4A 7448  16.791  11.971   8.786  0.0239 -0.2980  0.0676
  484PYPI   C1B 7449  16.563  11.204   9.826  0.0812 -0.0979 -0.1682
  484PYPI   C2B 7450  16.641  11.079   9.512  0.0433  0.2820  0.2096
  484PYPI   C3B 7451  16.646  10.991   9.135  0.0165  0.0530  0.1434
  484PYPI   C4B 7452  16.630  10.888   8.679 -0.1717 -0.4043 -0.0226
  485PYPI    C1 7453  10.969  15.885  11.152 -0.0644  0.0351 -0.1813
  485PYPI    C2 7454  10.867  15.622  10.869  0.0606  0.0075 -0.2015
  485PYPI    C3 7455  10.969  15.494  11.234 -0.2578  0.0525 -0.0933
  485PYPI   PO4 7456  10.876  16.126  11.061  0.0621 -0.2673  0.0526
  485PYPI   GL1 7457  10.624  16.142  10.753 -0.1200 -0.2698 -0.1100
  485PYPI   GL2 7458  10.674  16.540  10.760 -0.1990  0.2043 -0.0327
  485PYPI   C1A 7459  10.254  16.068  10.345  0.0168 -0.2867 -0.1024
  485PYPI   C2A 7460  10.318  16.099   9.969  0.1512 -0.0187  0.0227
  485PYPI   D3A 7461  10.313  16.138   9.546  0.3622  0.1165  0.2560
  485PYPI   C4A 7462  10.208  16.125   9.138 -0.1318 -0.0462 -0.2831
  485PYPI   C1B 7463  10.570  16.488  10.441  0.3684 -0.0346 -0.0687
  485PYPI   C2B 7464  10.566  16.480  10.039 -0.3773 -0.0300  0.0313
  485PYPI   C3B 7465  10.564  16.610   9.619 -0.0322 -0.1802 -0.0764
  485PYPI   C4B 7466  10.538  16.518   9.204 -0.0054  0.1225 -0.1172
  486PYPI    C1 7467  11.416   6.876  10.201  0.0676 -0.1686 -0.0021
  486PYPI    C2 7468  11.112   6.618  10.173  0.1312 -0.2327 -0.1103
  486PYPI    C3 7469  11.238   6.740  10.532 -0.1556 -0.0462 -0.0695
  486PYPI   PO4 7470  11.558   6.806  10.049 -0.1120 -0.1071 -0.2529
  486PYPI   GL1 7471  11.402   6.775   9.700 -0.1531  0.0269 -0.0814
  486PYPI   GL2 7472  11.282   7.037   9.649  0.1067  0.1046 -0.1253
  486PYPI   C1A 7473  11.737   6.667   9.405 -0.0695  0.0964  0.0858
  486PYPI   C2A 7474  11.897   6.651   8.914  0.0555 -0.0269 -0.2846
  486PYPI   D3A 7475  11.948   6.585   8.478 -0.0694 -0.2688 -0.0201
  486PYPI   C4A 7476  12.147   6.597   8.119 -0.1342 -0.1668 -0.3157
  486PYPI   C1B 7477  11.321   6.905   9.205 -0.0775  0.0017 -0.0017
  486PYPI   C2B 7478  11.490   6.856   8.768 -0.0392 -0.1966 -0.1519
  486PYPI   C3B 7479  11.432   7.079   8.370 -0.3620  0.1053 -0.2873
  486PYPI   C4B 7480  11.402   7.349   8.078 -0.1918 -0.0174  0.2284
  487PYPI    C1 7481  13.955   3.687  10.423 -0.2071  0.1108  0.4211
  487PYPI    C2 7482  13.671   3.437  10.551  0.0946 -0.3311  0.2554
  487PYPI    C3 7483  14.054   3.364  10.637  0.2509 -0.3115 -0.3793
  487PYPI   PO4 7484  13.824   3.702  10.171  0.0685 -0.5987  0.0630
  487PYPI   GL1 7485  13.938   3.654   9.813  0.0314  0.0362  0.0491
  487PYPI   GL2 7486  14.242   3.652   9.815  0.1285  0.0871  0.1808
  487PYPI   C1A 7487  13.675   3.561   9.456 -0.0210 -0.1226 -0.1374
  487PYPI   C2A 7488  13.606   3.598   9.039 -0.4260 -0.0036 -0.0167
  487PYPI   D3A 7489  13.658   3.819   8.714  0.2110  0.0136 -0.1041
  487PYPI   C4A 7490  13.612   3.664   8.316 -0.1109 -0.4893 -0.4660
  487PYPI   C1B 7491  14.167   3.638   9.347 -0.1402 -0.0855 -0.1331
  487PYPI   C2B 7492  14.133   3.623   8.898 -0.4580 -0.2697  0.0243
  487PYPI   C3B 7493  13.959   3.443   8.568  0.0384  0.0089  0.0972
  487PYPI   C4B 7494  14.057   3.429   8.092 -0.3209  0.1860 -0.0765
  488PYPI    C1 7495   2.349  10.423  11.238 -0.1850 -0.0191 -0.0415
  488PYPI    C2 7496   2.573  10.479  11.564 -0.1023  0.2096 -0.1352
  488PYPI    C3 7497   2.198  10.346  11.600 -0.0195  0.0164  0.0359
  488PYPI   PO4 7498   2.503  10.233  11.002  0.1994 -0.0235 -0.1876
  488PYPI   GL1 7499   2.325  10.330  10.604 -0.0246 -0.0326  0.1552
  488PYPI   GL2 7500   2.587  10.180  10.491 -0.0137 -0.0119 -0.1552
  488PYPI   C1A 7501   2.295  10.643  10.265  0.0917 -0.0840  0.1530
  488PYPI   C2A 7502   2.344  10.601   9.760  0.3022 -0.2480  0.2847
  488PYPI   D3A 7503   2.391  10.800   9.378  0.1560  0.0291  0.2061
  488PYPI   C4A 7504   2.665  11.030   9.195 -0.4129  0.0643 -0.1194
  488PYPI   C1B 7505   2.554  10.154  10.041 -0.1046  0.1799  0.0710
  488PYPI   C2B 7506   2.585  10.186   9.614  0.2032 -0.0157 -0.0178
  488PYPI   C3B 7507   2.553  10.332   9.175 -0.3320  0.2800  0.2486
  488PYPI   C4B 7508   2.570  10.581   8.847  0.0055 -0.0059  0.2732
  489PYPI    C1 7509  14.606  14.995  11.380 -0.1323  0.0123  0.0297
  489PYPI    C2 7510  14.549  15.251  11.681  0.0278  0.0009  0.0708
  489PYPI    C3 7511  14.856  14.996  11.692  0.0576  0.0274 -0.1210
  489PYPI   PO4 7512  14.528  15.144  11.202  0.0926  0.1654 -0.2091
  489PYPI   GL1 7513  14.812  15.007  10.874 -0.3986  0.0455  0.1096
  489PYPI   GL2 7514  14.637  15.215  10.761 -0.4505  0.2287  0.0420
  489PYPI   C1A 7515  15.197  14.876  10.608  0.1612 -0.3744  0.1774
  489PYPI   C2A 7516  15.286  14.993  10.127 -0.2300 -0.2224 -0.1179
  489PYPI   D3A 7517  15.371  15.149   9.715 -0.2771  0.2848 -0.1109
  489PYPI   C4A 7518  15.344  15.065   9.272  0.2157  0.1691  0.0340
  489PYPI   C1B 7519  14.874  15.179  10.389 -0.1564  0.1614 -0.1747
  489PYPI   C2B 7520  14.863  15.140   9.920  0.3593  0.2091  0.1090
  489PYPI   C3B 7521  14.865  15.125   9.463  0.0289 -0.1494 -0.1598
  489PYPI   C4B 7522  14.763  15.073   9.096  0.1547  0.0117 -0.2621
  490PYPI    C1 7523   2.890  13.268  11.305 -0.1010 -0.0671 -0.0190
  490PYPI    C2 7524   2.715  13.525  11.557  0.1258  0.1460 -0.0751
  490PYPI    C3 7525   3.097  13.419  11.612  0.1591  0.1480 -0.2942
  490PYPI   PO4 7526   2.828  13.384  11.078  0.2053 -0.1944  0.3371
  490PYPI   GL1 7527   2.876  13.327  10.589  0.4579  0.0747  0.1815
  490PYPI   GL2 7528   3.120  13.111  10.722  0.0089 -0.0459  0.2115
  490PYPI   C1A 7529   2.898  13.424  10.149  0.0645  0.0208  0.1508
  490PYPI   C2A 7530   2.982  13.406   9.629  0.2758  0.3710 -0.2358
  490PYPI   D3A 7531   3.002  13.422   9.177 -0.0726 -0.1300 -0.0744
  490PYPI   C4A 7532   2.819  13.502   8.825 -0.2014  0.1113  0.0566
  490PYPI   C1B 7533   3.183  13.037  10.306  0.1697 -0.2083 -0.1798
  490PYPI   C2B 7534   3.097  13.015   9.964  0.1812 -0.1411  0.0705
  490PYPI   C3B 7535   3.082  12.890   9.568  0.2433  0.1281 -0.1426
  490PYPI   C4B 7536   3.202  12.939   9.207 -0.0573 -0.1305  0.1629
  491PYPI    C1 7537   1.014   1.191  10.759  0.1109 -0.0108 -0.0528
  491PYPI    C2 7538   0.666   1.248  10.568  0.0840  0.1012  0.0281
  491PYPI    C3 7539   0.669   1.174  10.962  0.1326 -0.2376 -0.0321
  491PYPI   PO4 7540   1.101   0.990  10.490 -0.0789  0.3416  0.0318
  491PYPI   GL1 7541   1.325   1.134  10.138 -0.0417  0.1539 -0.2593
  491PYPI   GL2 7542   1.588   1.377  10.111  0.2114 -0.1220 -0.1363
  491PYPI   C1A 7543   1.286   0.849   9.878  0.0448  0.1434 -0.1231
  491PYPI   C2A 7544   1.354   0.724   9.520 -0.0642 -0.0817 -0.0634
  491PYPI   D3A 7545   1.384   0.741   9.179 -0.1891 -0.2360 -0.0780
  491PYPI   C4A 7546   1.402   0.374   8.888 -0.0991  0.3409  0.0529
  491PYPI   C1B 7547   1.634   1.411   9.652  0.2319 -0.0586  0.2105
  491PYPI   C2B 7548   1.669   1.647   9.256  0.1714 -0.2412 -0.0502
  491PYPI   C3B 7549   1.706   1.744   8.800 -0.1811  0.1456  0.0439
  491PYPI   C4B 7550   1.873   2.025   8.471 -0.4837  0.1978 -0.0159
  492PYPI    C1 7551   9.904   1.952  11.234 -0.0473 -0.2176 -0.0896
  492PYPI    C2 7552   9.814   1.839  11.607 -0.0671 -0.1077 -0.0609
  492PYPI    C3 7553  10.197   1.873  11.495 -0.0593  0.0981  0.0235
  492PYPI   PO4 7554   9.808   1.816  11.065  0.1295 -0.2531  0.0501
  492PYPI   GL1 7555   9.756   1.719  10.726 -0.0345 -0.1571 -0.2379
  492PYPI   GL2 7556   9.920   1.574  10.481  0.0675 -0.1131 -0.2061
  492PYPI   C1A 7557   9.410   1.605  10.442  0.0630 -0.2537  0.2683
  492PYPI   C2A 7558   9.156   1.422  10.221  0.1851 -0.1417 -0.0534
  492PYPI   D3A 7559   9.093   1.445   9.950  0.0471  0.0820 -0.0189
  492PYPI   C4A 7560   9.209   1.355   9.561  0.1634 -0.0887  0.4085
  492PYPI   C1B 7561  10.098   1.391  10.146  0.2836  0.2607 -0.1789
  492PYPI   C2B 7562  10.148   1.130   9.872  0.1042  0.0039 -0.0227
  492PYPI   C3B 7563  10.201   1.159   9.481  0.1796 -0.1501  0.0149
  492PYPI   C4B 7564  10.370   1.054   8.971  0.0496  0.3062 -0.0932
  493PYPI    C1 7565   7.197   0.769  11.078  0.0151  0.1096 -0.2062
  493PYPI    C2 7566   6.990   0.504  11.294  0.1289 -0.0164 -0.2503
  493PYPI    C3 7567   7.130   0.836  11.467 -0.1774  0.1100 -0.2385
  493PYPI   PO4 7568   7.064   0.737  10.827  0.0244 -0.0564  0.2037
  493PYPI   GL1 7569   6.947   0.608  10.492  0.2514  0.2806  0.0959
  493PYPI   GL2 7570   6.700   0.349  10.413  0.0637 -0.2633 -0.2022
  493PYPI   C1A 7571   7.077   0.543  10.092  0.0292  0.4346  0.3108
  493PYPI   C2A 7572   7.077   0.417   9.612 -0.1782 -0.2886 -0.0003
  493PYPI   D3A 7573   7.004   0.594   9.274  0.0029 -0.0237  0.0274
  493PYPI   C4A 7574   7.192   0.552   8.862 -0.1705  0.1919  0.0263
  493PYPI   C1B 7575   6.830   0.124  10.013  0.0004 -0.0282  0.1489
  493PYPI   C2B 7576   6.754   0.038   9.618  0.0059 -0.3638 -0.1517
  493PYPI   C3B 7577   6.804   0.086   9.178 -0.0260  0.2177 -0.2018
  493PYPI   C4B 7578   6.856   0.228   8.727 -0.0170 -0.0415 -0.0418
  494PYPI    C1 7579  13.905  11.283  10.826 -0.0158 -0.2220  0.1733
  494PYPI    C2 7580  13.522  11.185  10.890 -0.0584  0.0265  0.3100
  494PYPI    C3 7581  13.792  11.138  11.181 -0.0543  0.1857  0.3329
  494PYPI   PO4 7582  13.923  11.307  10.487  0.1381  0.1561  0.0477
  494PYPI   GL1 7583  14.238  11.355  10.078 -0.2383 -0.1981 -0.0814
  494PYPI   GL2 7584  14.502  11.537  10.099 -0.2363 -0.1109 -0.3049
  494PYPI   C1A 7585  14.276  11.515   9.665 -0.0658 -0.1366  0.3219
  494PYPI   C2A 7586  14.397  11.497   9.235 -0.2444 -0.0348 -0.1602
  494PYPI   D3A 7587  14.575  11.429   8.776 -0.0984  0.0192  0.0957
  494PYPI   C4A 7588  14.359  11.215   8.472  0.0567  0.0438 -0.0786
  494PYPI   C1B 7589  14.733  11.673   9.875 -0.0426 -0.1167  0.1241
  494PYPI   C2B 7590  14.809  11.781   9.499 -0.1895  0.1090  0.0567
  494PYPI   C3B 7591  14.842  11.792   9.040 -0.0628 -0.0069  0.0812
  494PYPI   C4B 7592  15.031  11.770   8.652 -0.1883 -0.1620  0.2537
  495PYPI    C1 7593   8.208  11.892  10.716  0.0524  0.0193 -0.1492
  495PYPI    C2 7594   8.216  12.187  10.986  0.0991  0.0732 -0.2094
  495PYPI    C3 7595   7.907  11.932  10.977  0.0951  0.0740 -0.1082
  495PYPI   PO4 7596   8.173  12.074  10.481  0.2388 -0.3040  0.0780
  495PYPI   GL1 7597   8.136  12.131  10.142 -0.4234  0.0215  0.1908
  495PYPI   GL2 7598   8.239  12.489  10.137  0.2177  0.0840  0.1186
  495PYPI   C1A 7599   8.133  12.097   9.752 -0.1786  0.1841 -0.0652
  495PYPI   C2A 7600   8.155  12.188   9.328 -0.0063  0.0394  0.1714
  495PYPI   D3A 7601   8.078  12.457   8.958 -0.1177  0.2019  0.1566
  495PYPI   C4A 7602   8.105  12.356   8.513  0.0859 -0.2256  0.4572
  495PYPI   C1B 7603   8.280  12.667   9.696 -0.1615 -0.1381  0.0502
  495PYPI   C2B 7604   8.383  12.768   9.287  0.0302  0.0271 -0.0487
  495PYPI   C3B 7605   8.449  12.887   8.865  0.1585 -0.1450  0.1588
  495PYPI   C4B 7606   8.405  13.050   8.397  0.1631  0.2016 -0.5625
  496PYPI    C1 7607   4.154  16.396  10.768  0.2630  0.0494 -0.1223
  496PYPI    C2 7608   4.016  16.586  11.092  0.0279 -0.1800 -0.0843
  496PYPI    C3 7609   4.165  16.795  10.786  0.2034  0.0410  0.1474
  496PYPI   PO4 7610   4.306  16.152  10.862  0.2252  0.0520 -0.0917
  496PYPI   GL1 7611   4.413  15.937  10.584 -0.1409 -0.1315  0.1315
  496PYPI   GL2 7612   4.796  15.866  10.580  0.1180  0.2821  0.1878
  496PYPI   C1A 7613   4.477  16.018  10.164 -0.2368  0.0011 -0.2497
  496PYPI   C2A 7614   4.388  15.968   9.690 -0.0594 -0.1232  0.0027
  496PYPI   D3A 7615   4.543  15.754   9.354 -0.4005  0.2859 -0.0840
  496PYPI   C4A 7616   4.578  15.862   8.987  0.1317  0.0746  0.0407
  496PYPI   C1B 7617   4.905  15.728  10.165  0.1130 -0.1582  0.0007
  496PYPI   C2B 7618   4.965  15.775   9.774 -0.0996 -0.3121  0.0307
  496PYPI   C3B 7619   5.058  15.659   9.334  0.0818 -0.0731 -0.1508
  496PYPI   C4B 7620   5.058  15.830   8.918 -0.0182  0.0099 -0.0267
  497PYPI    C1 7621   4.274   2.895  10.593 -0.1949 -0.1841  0.1063
  497PYPI    C2 7622   4.219   3.291  10.598  0.1283 -0.1354  0.0204
  497PYPI    C3 7623   4.115   3.071  10.916  0.2278  0.0580  0.1894
  497PYPI   PO4 7624   4.534   2.894  10.473  0.1392 -0.0940  0.2976
  497PYPI   GL1 7625   4.721   2.674  10.160  0.0361 -0.0349 -0.2348
  497PYPI   GL2 7626   4.863   2.525  10.018  0.0837  0.0453  0.1161
  497PYPI   C1A 7627   4.504   2.825   9.777 -0.0301  0.1358  0.2752
  497PYPI   C2A 7628   4.521   2.908   9.372  0.0114  0.2839  0.1007
  497PYPI   D3A 7629   4.435   2.763   8.909 -0.0233 -0.1502  0.1030
  497PYPI   C4A 7630   4.626   2.607   8.574 -0.1485  0.1068 -0.0966
  497PYPI   C1B 7631   4.942   2.642   9.548  0.1120  0.1193 -0.2272
  497PYPI   C2B 7632   4.943   2.710   9.153 -0.0704  0.1090  0.3510
  497PYPI   C3B 7633   4.834   3.087   8.964  0.0722 -0.4173 -0.1119
  497PYPI   C4B 7634   4.975   2.906   8.643  0.0740 -0.2625  0.2286
  498PYPI    C1 7635   2.639   1.912  10.973  0.0984 -0.0612 -0.0735
  498PYPI    C2 7636   2.686   1.572  11.179  0.0944 -0.1198 -0.1688
  498PYPI    C3 7637   2.921   1.887  11.256  0.0178 -0.1037  0.0035
  498PYPI   PO4 7638   2.573   1.734  10.671  0.1512  0.0370  0.1220
  498PYPI   GL1 7639   2.531   1.645  10.233 -0.2803  0.0699  0.0313
  498PYPI   GL2 7640   2.867   1.599  10.257  0.0549  0.1070 -0.0535
  498PYPI   C1A 7641   2.479   1.265   9.871  0.0322  0.0600  0.0494
  498PYPI   C2A 7642   2.662   1.042   9.646 -0.2856  0.2241 -0.2573
  498PYPI   D3A 7643   2.711   0.874   9.280 -0.0954  0.1599 -0.0291
  498PYPI   C4A 7644   2.511   0.915   8.872 -0.1219 -0.1619  0.0079
  498PYPI   C1B 7645   2.959   1.408   9.838  0.1061 -0.1484 -0.1094
  498PYPI   C2B 7646   3.065   1.535   9.497  0.4125  0.2137 -0.1300
  498PYPI   C3B 7647   3.094   1.250   9.094 -0.2747  0.1485 -0.1599
  498PYPI   C4B 7648   3.212   1.268   8.537 -0.2128 -0.0284 -0.0981
  499PYPI    C1 7649   9.069   5.232  10.715  0.0803  0.2225  0.0540
  499PYPI    C2 7650   9.467   5.198  10.697  0.0585  0.0427 -0.1448
  499PYPI    C3 7651   9.297   5.560  10.699  0.2308  0.1267  0.1985
  499PYPI   PO4 7652   8.958   5.060  10.484 -0.1300 -0.3332  0.1454
  499PYPI   GL1 7653   8.849   5.144  10.109 -0.3016  0.1829 -0.1166
  499PYPI   GL2 7654   8.796   4.857   9.962 -0.2845  0.0628 -0.3455
  499PYPI   C1A 7655   9.011   5.228   9.657 -0.1733  0.1480  0.1703
  499PYPI   C2A 7656   8.914   5.227   9.282 -0.1529 -0.2709 -0.1133
  499PYPI   D3A 7657   9.010   5.096   8.789 -0.0002  0.1169  0.0947
  499PYPI   C4A 7658   8.764   4.851   8.539 -0.2087  0.2362 -0.0188
  499PYPI   C1B 7659   8.873   4.723   9.546  0.2176  0.0568  0.3619
  499PYPI   C2B 7660   8.724   4.668   9.112 -0.1585 -0.0762  0.1750
  499PYPI   C3B 7661   8.550   4.483   8.778 -0.0422 -0.1767 -0.1761
  499PYPI   C4B 7662   8.385   4.618   8.408  0.0208  0.0290 -0.1153
  500PYPI    C1 7663  16.169   5.649  10.414 -0.0790  0.0216  0.0114
  500PYPI    C2 7664  16.471   5.802  10.626 -0.0938 -0.1712  0.1749
  500PYPI    C3 7665  16.151   5.652  10.813 -0.2380 -0.0783  0.0063
  500PYPI   PO4 7666  16.202   5.827  10.193  0.0455 -0.0289 -0.1234
  500PYPI   GL1 7667  16.102   6.092   9.874 -0.1328  0.2507 -0.2205
  500PYPI   GL2 7668  16.406   5.830   9.759 -0.0945 -0.1221  0.0520
  500PYPI   C1A 7669  15.919   6.274   9.506 -0.1654  0.2960  0.2765
  500PYPI   C2A 7670  15.937   6.320   8.974  0.0792 -0.0631 -0.1450
  500PYPI   D3A 7671  15.809   6.108   8.564 -0.4140 -0.0559  0.0762
  500PYPI   C4A 7672  16.151   5.921   8.299  0.0673 -0.1325  0.0155
  500PYPI   C1B 7673  16.392   5.962   9.456  0.2245  0.1691  0.0573
  500PYPI   C2B 7674  16.297   6.025   9.106 -0.2768  0.1062 -0.0576
  500PYPI   C3B 7675  16.259   5.826   8.753 -0.2466  0.0054  0.1590
  500PYPI   C4B 7676  16.325   5.501   8.420  0.1625  0.1250 -0.1080
  501PYPI    C1 7677  14.866   2.270  10.798  0.0747 -0.2911  0.0293
  501PYPI    C2 7678  14.577   2.505  10.947  0.1520 -0.1523 -0.0374
  501PYPI    C3 7679  14.916   2.450  11.152  0.0915 -0.2913  0.0270
  501PYPI   PO4 7680  14.774   2.317  10.542  0.0755 -0.0516  0.0240
  501PYPI   GL1 7681  14.851   2.077  10.285 -0.0138 -0.0612 -0.0136
  501PYPI   GL2 7682  15.050   1.891  10.301 -0.2588  0.3069  0.0589
  501PYPI   C1A 7683  14.785   2.146   9.857  0.1642 -0.1438  0.1378
  501PYPI   C2A 7684  14.607   2.051   9.397  0.3089 -0.1197  0.2620
  501PYPI   D3A 7685  14.636   1.999   8.924  0.3138 -0.2625 -0.1790
  501PYPI   C4A 7686  14.458   1.956   8.541 -0.1081 -0.1502 -0.0689
  501PYPI   C1B 7687  15.042   1.693   9.948  0.1753  0.1336  0.1069
  501PYPI   C2B 7688  14.761   1.591   9.617 -0.1487 -0.0399  0.1835
  501PYPI   C3B 7689  14.766   1.617   9.228 -0.1138 -0.2636 -0.0319
  501PYPI   C4B 7690  14.946   1.617   8.808  0.1266 -0.0325  0.0385
  502PYPI    C1 7691  16.704   6.740  10.543  0.0929 -0.1860 -0.2276
  502PYPI    C2 7692  17.060   6.920  10.567  0.0403 -0.0903 -0.1548
  502PYPI    C3 7693  16.993   6.581  10.769 -0.0432  0.1159  0.1708
  502PYPI   PO4 7694  16.613   6.725  10.318 -0.0260  0.3409 -0.2062
  502PYPI   GL1 7695  16.802   6.943   9.940 -0.2493 -0.1076 -0.0412
  502PYPI   GL2 7696  17.065   7.017  10.095  0.4253  0.1544  0.0079
  502PYPI   C1A 7697  16.733   7.027   9.485 -0.2642 -0.1342  0.0315
  502PYPI   C2A 7698  16.773   7.095   8.957 -0.1691 -0.1824  0.0824
  502PYPI   D3A 7699  16.667   6.784   8.693  0.2204  0.0900 -0.0874
  502PYPI   C4A 7700  16.463   6.844   8.297 -0.0518 -0.4512  0.0224
  502PYPI   C1B 7701  17.220   6.993   9.620 -0.2456  0.0827 -0.1077
  502PYPI   C2B 7702  17.200   7.137   9.183 -0.0980 -0.0101  0.0489
  502PYPI   C3B 7703  17.242   7.217   8.756 -0.0813  0.2114  0.0290
  502PYPI   C4B 7704  16.942   7.229   8.451 -0.0552  0.1449 -0.0031
  503PYPI    C1 7705   1.817  16.681  11.017 -0.1742 -0.1131  0.1384
  503PYPI    C2 7706   1.593  16.985  11.149  0.0883  0.0504  0.2147
  503PYPI    C3 7707   1.891  16.845  11.375 -0.0313 -0.2670  0.1803
  503PYPI   PO4 7708   1.991  16.694  10.714 -0.1011  0.1558  0.3174
  503PYPI   GL1 7709   2.381  16.776  10.563 -0.2003  0.0250 -0.1065
  503PYPI   GL2 7710   2.438  17.088  10.394 -0.0745 -0.0484  0.0233
  503PYPI   C1A 7711   2.800  16.740  10.370  0.1992 -0.1654 -0.1293
  503PYPI   C2A 7712   2.854  16.903  10.006  0.6105 -0.2417 -0.0553
  503PYPI   D3A 7713   2.849  16.812   9.577 -0.2410  0.2872  0.3328
  503PYPI   C4A 7714   2.961  16.686   9.127 -0.3486 -0.0070 -0.0745
  503PYPI   C1B 7715   2.312  16.915  10.041  0.1119 -0.1109  0.1738
  503PYPI   C2B 7716   2.295  16.942   9.648 -0.1734 -0.2131  0.0239
  503PYPI   C3B 7717   2.358  16.992   9.277 -0.1445  0.1391  0.2872
  503PYPI   C4B 7718   2.451  16.718   9.019 -0.1871  0.1673 -0.0776
  504PYPI    C1 7719   2.280  10.819  10.924 -0.2763  0.1729 -0.0827
  504PYPI    C2 7720   1.977  10.733  10.678 -0.3077  0.1078 -0.0216
  504PYPI    C3 7721   1.908  10.792  11.067 -0.2367  0.0532 -0.0004
  504PYPI   PO4 7722   2.455  11.002  10.768  0.1272  0.0101 -0.0034
  504PYPI   GL1 7723   2.414  11.190  10.314  0.0560 -0.0222  0.0849
  504PYPI   GL2 7724   2.050  11.138  10.375  0.1379 -0.2335 -0.3062
  504PYPI   C1A 7725   2.663  11.017   9.935 -0.1100 -0.1369  0.1628
  504PYPI   C2A 7726   2.871  11.136   9.618 -0.5142 -0.0196 -0.0518
  504PYPI   D3A 7727   3.006  11.457   9.383  0.1038 -0.0470 -0.3591
  504PYPI   C4A 7728   3.101  11.330   8.988  0.2284 -0.1671  0.1863
  504PYPI   C1B 7729   2.172  11.070   9.875 -0.0129 -0.0341  0.0126
  504PYPI   C2B 7730   2.354  11.233   9.555 -0.0966  0.2881 -0.1140
  504PYPI   C3B 7731   2.262  11.276   9.123  0.2720  0.3255 -0.1019
  504PYPI   C4B 7732   2.088  11.430   8.718  0.0672  0.0931 -0.1858
  505PYPI    C1 7733  15.484   9.353  10.477  0.1246  0.3592 -0.1040
  505PYPI    C2 7734  15.724   9.257  10.783 -0.1902 -0.0062  0.0378
  505PYPI    C3 7735  15.420   9.510  10.839 -0.1794  0.0161 -0.0028
  505PYPI   PO4 7736  15.536   9.152  10.290 -0.0703 -0.0680 -0.2244
  505PYPI   GL1 7737  15.396   8.975   9.896 -0.0967 -0.0919 -0.1149
  505PYPI   GL2 7738  15.759   8.989   9.835 -0.1541 -0.4146  0.1959
  505PYPI   C1A 7739  15.270   8.804   9.605  0.1118 -0.0080 -0.0048
  505PYPI   C2A 7740  15.330   8.891   9.099  0.3004  0.2791  0.2628
  505PYPI   D3A 7741  15.367   8.965   8.638 -0.0930 -0.2435  0.0222
  505PYPI   C4A 7742  15.419   8.757   8.215 -0.3173 -0.3155 -0.2045
  505PYPI   C1B 7743  15.617   9.202   9.407  0.2065  0.1865  0.2510
  505PYPI   C2B 7744  15.619   9.319   8.958 -0.1266  0.0254  0.0404
  505PYPI   C3B 7745  15.709   9.390   8.509 -0.1822  0.1201  0.0704
  505PYPI   C4B 7746  15.896   9.234   8.220 -0.0441 -0.0989  0.1787
  506ERGO   ROH 7747  11.373   7.996  10.170 -0.2758 -0.1207  0.0807
  506ERGO    R1 7748  11.238   7.926   9.931 -0.1833 -0.0086 -0.0054
  506ERGO    R2 7749  11.185   8.109   9.730  0.0534  0.0466 -0.0196
  506ERGO    R3 7750  11.313   7.927   9.575  0.0251 -0.0223  0.0372
  506ERGO    R4 7751  11.168   8.097   9.385  0.1470  0.0162 -0.0236
  506ERGO    R5 7752  11.158   7.880   9.398  0.0560  0.0208 -0.0021
  506ERGO    C1 7753  11.278   7.919   9.038  0.1751 -0.0661  0.0274
  506ERGO    C2 7754  11.309   8.031   8.690 -0.2147  0.1878  0.1617
  507ERGO   ROH 7755   9.245   8.519  10.560  0.1771 -0.1193 -0.1909
  507ERGO    R1 7756   9.244   8.483  10.279 -0.1482 -0.0345 -0.2056
  507ERGO    R2 7757   9.024   8.542  10.122 -0.1799  0.4767  0.0017
  507ERGO    R3 7758   9.203   8.694   9.986  0.0285  0.1506 -0.0976
  507ERGO    R4 7759   9.030   8.582   9.779 -0.1539  0.3062 -0.0178
  507ERGO    R5 7760   9.247   8.570   9.786 -0.1714 -0.0068 -0.0417
  507ERGO    C1 7761   9.202   8.748   9.451  0.0569 -0.0991 -0.1225
  507ERGO    C2 7762   9.162   8.933   9.112 -0.0570 -0.1673 -0.4442
  508ERGO   ROH 7763   2.906  11.225  10.474 -0.1251  0.1254  0.0107
  508ERGO    R1 7764   2.997  11.402  10.273 -0.0448  0.1225  0.0451
  508ERGO    R2 7765   3.264  11.424  10.203 -0.0513 -0.0737 -0.0315
  508ERGO    R3 7766   3.169  11.373   9.954 -0.1722  0.0958 -0.0230
  508ERGO    R4 7767   3.454  11.432   9.915 -0.1415 -0.0630 -0.0919
  508ERGO    R5 7768   3.286  11.528   9.813 -0.1216  0.0895  0.0068
  508ERGO    C1 7769   3.476  11.390   9.512 -0.3074  0.1025 -0.1192
  508ERGO    C2 7770   3.570  11.352   9.224  0.0120  0.0591 -0.0121
  509ERGO   ROH 7771  16.753   7.453   9.824 -0.0655 -0.0355 -0.0634
  509ERGO    R1 7772  16.628   7.487   9.572  0.0312 -0.1785 -0.1309
  509ERGO    R2 7773  16.666   7.713   9.416 -0.0717 -0.1784 -0.1462
  509ERGO    R3 7774  16.737   7.532   9.227  0.1644 -0.1528 -0.0880
  509ERGO    R4 7775  16.627   7.757   9.076  0.0294 -0.2610 -0.1700
  509ERGO    R5 7776  16.565   7.549   9.061  0.2114 -0.3232 -0.1626
  509ERGO    C1 7777  16.670   7.612   8.700  0.3096 -0.2850 -0.1293
  509ERGO    C2 7778  16.689   7.797   8.542 -0.0424  0.0175 -0.1664
  510ERGO   ROH 7779  15.293   2.122   9.901  0.0195 -0.3502  0.1567
  510ERGO    R1 7780  15.339   1.989   9.656  0.0420 -0.1919  0.0733
  510ERGO    R2 7781  15.136   1.933   9.477  0.0439 -0.1510  0.0558
  510ERGO    R3 7782  15.298   2.064   9.302 -0.0109  0.0050  0.1209
  510ERGO    R4 7783  15.066   1.980   9.142  0.1162 -0.1755  0.0371
  510ERGO    R5 7784  15.277   1.941   9.098  0.1633  0.0088  0.1012
  510ERGO    C1 7785  15.177   2.131   8.782  0.1070 -0.0435  0.0874
  510ERGO    C2 7786  14.957   2.153   8.517 -0.0504 -0.0970 -0.0819
  511ERGO   ROH 7787   9.328  13.038  10.286 -0.0164  0.0390 -0.0442
  511ERGO    R1 7788   9.248  13.082  10.018  0.0386  0.0373 -0.0618
  511ERGO    R2 7789   9.399  13.230   9.840  0.0583  0.0700 -0.0231
  511ERGO    R3 7790   9.378  13.007   9.687  0.1294  0.0708 -0.0329
  511ERGO    R4 7791   9.409  13.226   9.495 -0.0752  0.0995 -0.0276
  511ERGO    R5 7792   9.250  13.077   9.496  0.0151  0.0081  0.0229
  511ERGO    C1 7793   9.396  13.014   9.150 -0.0862  0.1175 -0.0393
  511ERGO    C2 7794   9.360  13.136   8.903 -0.3209  0.1820  0.3200
  512ERGO   ROH 7795  13.304   1.959  10.118 -0.2103 -0.0291 -0.0065
  512ERGO    R1 7796  13.181   1.950   9.863 -0.2047  0.0550 -0.0134
  512ERGO    R2 7797  13.326   1.931   9.629 -0.1944  0.2052 -0.0259
  512ERGO    R3 7798  13.165   1.716   9.585 -0.1317  0.1792 -0.1221
  512ERGO    R4 7799  13.267   1.788   9.320 -0.0447  0.2373 -0.0690
  512ERGO    R5 7800  13.058   1.764   9.376 -0.0591  0.1852 -0.1555
  512ERGO    C1 7801  13.081   1.504   9.099  0.1015  0.2316 -0.1844
  512ERGO    C2 7802  12.994   1.428   8.831  0.2034 -0.0883  0.1363
  513ERGO   ROH 7803   1.995   5.153   9.778  0.2036  0.1579  0.0527
  513ERGO    R1 7804   1.968   5.013   9.533  0.2360  0.2225  0.0129
  513ERGO    R2 7805   1.722   4.952   9.423  0.2521  0.0973  0.0561
  513ERGO    R3 7806   1.824   5.079   9.206  0.1112  0.2356  0.0683
  513ERGO    R4 7807   1.571   4.965   9.112  0.2487 -0.0844  0.0481
  513ERGO    R5 7808   1.767   4.938   9.021  0.2973  0.1627  0.0595
  513ERGO    C1 7809   1.579   5.093   8.727  0.1145 -0.0604  0.0551
  513ERGO    C2 7810   1.376   5.242   8.540  0.0306  0.0256  0.0424
  514ERGO   ROH 7811  10.095   7.624  10.287  0.1014  0.1799  0.0779
  514ERGO    R1 7812  10.040   7.690  10.017  0.0684  0.3064  0.1147
  514ERGO    R2 7813  10.188   7.878   9.876  0.2953  0.1003  0.0707
  514ERGO    R3 7814  10.217   7.673   9.700 -0.1122  0.0741  0.0238
  514ERGO    R4 7815  10.205   7.914   9.533  0.0299  0.1047  0.0562
  514ERGO    R5 7816  10.081   7.736   9.513 -0.2077  0.2541  0.1505
  514ERGO    C1 7817  10.242   7.743   9.167 -0.5072  0.0827  0.0037
  514ERGO    C2 7818  10.434   7.774   8.902  0.0858  0.0746 -0.0250
  515ERGO   ROH 7819  12.327  15.811  10.443 -0.0293  0.1080 -0.0276
  515ERGO    R1 7820  12.356  15.853  10.165  0.0451  0.0311 -0.0317
  515ERGO    R2 7821  12.487  15.674  10.000 -0.1126 -0.1289  0.0163
  515ERGO    R3 7822  12.255  15.681   9.860 -0.0897  0.0771 -0.0145
  515ERGO    R4 7823  12.462  15.629   9.658 -0.1223 -0.3276  0.0422
  515ERGO    R5 7824  12.313  15.788   9.653  0.0796 -0.1336 -0.0819
  515ERGO    C1 7825  12.229  15.609   9.328 -0.1065 -0.2498  0.0284
  515ERGO    C2 7826  12.254  15.698   9.051 -0.2584 -0.1131  0.0880
  516ERGO   ROH 7827   6.594  12.614  10.498 -0.3780 -0.2186  0.0751
  516ERGO    R1 7828   6.526  12.533  10.236 -0.2714 -0.0353 -0.0104
  516ERGO    R2 7829   6.415  12.705  10.050 -0.0355  0.1371  0.0102
  516ERGO    R3 7830   6.625  12.624   9.897  0.0016  0.0723  0.0938
  516ERGO    R4 7831   6.440  12.748   9.708  0.0535  0.0259  0.0015
  516ERGO    R5 7832   6.525  12.548   9.694  0.0461  0.0114  0.0905
  516ERGO    C1 7833   6.650  12.695   9.366  0.1402 -0.0996  0.0750
  516ERGO    C2 7834   6.726  12.732   9.079  0.0097 -0.1622 -0.2224
  517ERGO   ROH 7835   4.659   1.268  10.367 -0.0249  0.0802 -0.1253
  517ERGO    R1 7836   4.512   1.249  10.126 -0.1008 -0.1649 -0.0635
  517ERGO    R2 7837   4.601   1.358   9.888 -0.3816 -0.0101 -0.1033
  517ERGO    R3 7838   4.563   1.106   9.795  0.0012 -0.0807 -0.0845
  517ERGO    R4 7839   4.600   1.267   9.554 -0.3092 -0.0274 -0.0988
  517ERGO    R5 7840   4.433   1.134   9.596 -0.0900 -0.2949 -0.0575
  517ERGO    C1 7841   4.563   0.977   9.274  0.0923 -0.1038 -0.0787
  517ERGO    C2 7842   4.518   0.867   8.964  0.0967 -0.0218  0.0092
  518ERGO   ROH 7843   5.021   7.394   9.762  0.3478 -0.2372 -0.1225
  518ERGO    R1 7844   4.996   7.335   9.486 -0.0606 -0.2572 -0.0889
  518ERGO    R2 7845   4.751   7.309   9.361 -0.2619  0.2474  0.1596
  518ERGO    R3 7846   4.854   7.496   9.193 -0.0078 -0.0106  0.0211
  518ERGO    R4 7847   4.620   7.392   9.052 -0.2196  0.2970  0.1557
  518ERGO    R5 7848   4.823   7.404   8.974 -0.2249 -0.0770  0.0828
  518ERGO    C1 7849   4.642   7.615   8.714  0.0435  0.0837  0.0236
  518ERGO    C2 7850   4.457   7.642   8.456  0.1268 -0.1378  0.4578
  519ERGO   ROH 7851   4.175  15.506  10.645 -0.1113  0.1149  0.0547
  519ERGO    R1 7852   4.049  15.456  10.397 -0.1117  0.1660  0.0445
  519ERGO    R2 7853   4.060  15.634  10.186  0.1043  0.0967 -0.0060
  519ERGO    R3 7854   4.153  15.418  10.050 -0.0783 -0.0360  0.0760
  519ERGO    R4 7855   4.104  15.621   9.844  0.1258 -0.0627  0.0024
  519ERGO    R5 7856   4.026  15.417   9.847 -0.0597  0.0084  0.0651
  519ERGO    C1 7857   4.217  15.410   9.517 -0.0331 -0.2801  0.0840
  519ERGO    C2 7858   4.205  15.383   9.273  0.1812  0.2647 -0.0349
  520ERGO   ROH 7859   3.282   9.613  10.218  0.0760  0.0466 -0.0155
  520ERGO    R1 7860   3.356   9.696   9.957  0.1764 -0.1486 -0.0512
  520ERGO    R2 7861   3.428   9.518   9.759  0.0457 -0.3147  0.0465
  520ERGO    R3 7862   3.233   9.645   9.619  0.1672 -0.2166 -0.0370
  520ERGO    R4 7863   3.434   9.571   9.418  0.2065 -0.3192  0.0471
  520ERGO    R5 7864   3.351   9.770   9.452  0.2949 -0.2787  0.0088
  520ERGO    C1 7865   3.254   9.721   9.087  0.4142 -0.2299 -0.0309
  520ERGO    C2 7866   3.369   9.535   8.787 -0.3147 -0.2163 -0.1782
  521ERGO   ROH 7867  16.712  10.113   9.987 -0.2241  0.1493  0.0294
  521ERGO    R1 7868  16.701   9.975   9.741 -0.2116  0.1228  0.0443
  521ERGO    R2 7869  16.636  10.099   9.502 -0.0181  0.1366 -0.0002
  521ERGO    R3 7870  16.872   9.993   9.420 -0.0550 -0.0418  0.1158
  521ERGO    R4 7871  16.723  10.044   9.173  0.0902  0.0519  0.0416
  521ERGO    R5 7872  16.814   9.855   9.234 -0.0733 -0.0131  0.0979
  521ERGO    C1 7873  16.996   9.912   8.903  0.1188 -0.1650  0.1749
  521ERGO    C2 7874  16.891   9.994   8.652  0.0695  0.1780  0.2109
  522ERGO   ROH 7875   5.324   8.615   9.818  0.1596  0.1635  0.0677
  522ERGO    R1 7876   5.490   8.673   9.597  0.1513  0.0778  0.0378
  522ERGO    R2 7877   5.540   8.490   9.395  0.0553  0.0359  0.0477
  522ERGO    R3 7878   5.452   8.691   9.235  0.1058  0.0529  0.0422
  522ERGO    R4 7879   5.597   8.512   9.055 -0.0043 -0.0199  0.0342
  522ERGO    R5 7880   5.630   8.726   9.079  0.0857 -0.0337  0.0037
  522ERGO    C1 7881   5.548   8.714   8.707  0.0085 -0.0365  0.0212
  522ERGO    C2 7882   5.663   8.789   8.422  0.1118  0.0372 -0.0476
  523ERGO   ROH 7883   7.497   0.623  10.654  0.0225  0.2750  0.0534
  523ERGO    R1 7884   7.516   0.654  10.374 -0.0678  0.0913  0.0261
  523ERGO    R2 7885   7.743   0.584  10.232 -0.0323  0.1995  0.0294
  523ERGO    R3 7886   7.567   0.435  10.087  0.0720 -0.0710  0.1719
  523ERGO    R4 7887   7.767   0.526   9.892 -0.2332  0.2614  0.0031
  523ERGO    R5 7888   7.550   0.551   9.878 -0.2914 -0.0787  0.1902
  523ERGO    C1 7889   7.616   0.353   9.558 -0.2523  0.0436  0.1216
  523ERGO    C2 7890   7.452   0.294   9.245 -0.1434 -0.1313 -0.0557
  524ERGO   ROH 7891  16.962   1.748  10.034 -0.1750 -0.0331 -0.2216
  524ERGO    R1 7892  16.913   1.635   9.779 -0.1210 -0.0572 -0.2222
  524ERGO    R2 7893  16.749   1.755   9.592 -0.0362 -0.0436 -0.2936
  524ERGO    R3 7894  16.968   1.730   9.432  0.0112 -0.1154 -0.2168
  524ERGO    R4 7895  16.740   1.726   9.247  0.0845  0.0779 -0.3070
  524ERGO    R5 7896  16.900   1.578   9.261 -0.0076 -0.0166 -0.2948
  524ERGO    C1 7897  16.941   1.686   8.897  0.1994  0.0813 -0.2428
  524ERGO    C2 7898  16.928   1.689   8.550 -0.2548 -0.2370 -0.0331
  525ERGO   ROH 7899   6.371   4.247   9.902 -0.0421 -0.1584  0.1179
  525ERGO    R1 7900   6.483   4.173   9.653 -0.0842 -0.2998  0.1400
  525ERGO    R2 7901   6.374   3.976   9.493 -0.4244 -0.0233  0.0234
  525ERGO    R3 7902   6.377   4.173   9.305  0.0580  0.0452  0.0919
  525ERGO    R4 7903   6.354   3.924   9.152 -0.5875  0.1357  0.0071
  525ERGO    R5 7904   6.504   4.080   9.124 -0.1834 -0.2224  0.0511
  525ERGO    C1 7905   6.346   4.078   8.777 -0.2295  0.2925  0.0618
  525ERGO    C2 7906   6.442   3.918   8.564 -0.0576  0.0301  0.0774
  526ERGO   ROH 7907  17.226  11.435  10.282  0.0814 -0.2180 -0.0308
  526ERGO    R1 7908  17.070  11.496  10.054  0.0059 -0.1752  0.0307
  526ERGO    R2 7909  17.173  11.630   9.835 -0.0956 -0.0238  0.0667
  526ERGO    R3 7910  17.076  11.415   9.700 -0.0304 -0.0048 -0.0084
  526ERGO    R4 7911  17.102  11.625   9.497 -0.0112  0.0366  0.0486
  526ERGO    R5 7912  16.923  11.509   9.541 -0.0014  0.0036 -0.0254
  526ERGO    C1 7913  16.970  11.421   9.173  0.0996  0.0896 -0.0322
  526ERGO    C2 7914  16.820  11.380   8.872 -0.4713  0.2070 -0.0264
  527ERGO   ROH 7915   7.608  12.389  10.163 -0.2409  0.3991 -0.0237
  527ERGO    R1 7916   7.599  12.514   9.909  0.0662  0.2152 -0.1326
  527ERGO    R2 7917   7.788  12.465   9.713  0.0387 -0.3132 -0.0604
  527ERGO    R3 7918   7.569  12.406   9.563 -0.0501 -0.0214 -0.0472
  527ERGO    R4 7919   7.769  12.498   9.369 -0.0399 -0.0778 -0.0331
  527ERGO    R5 7920   7.566  12.574   9.393  0.0437  0.0815  0.0647
  527ERGO    C1 7921   7.552  12.462   9.029 -0.1691  0.3331 -0.0050
  527ERGO    C2 7922   7.664  12.350   8.723 -0.3168  0.1004  0.1904
  528ERGO   ROH 7923   6.322  12.182  10.540  0.3104 -0.0740 -0.1335
  528ERGO    R1 7924   6.231  12.131  10.277  0.2077 -0.1893 -0.0782
  528ERGO    R2 7925   6.135  12.330  10.112 -0.0898 -0.2926 -0.0493
  528ERGO    R3 7926   6.323  12.234   9.940 -0.0853 -0.1234 -0.1390
  528ERGO    R4 7927   6.128  12.370   9.768 -0.2696 -0.2828 -0.0440
  528ERGO    R5 7928   6.198  12.164   9.748 -0.1060 -0.2177 -0.0858
  528ERGO    C1 7929   6.300  12.303   9.408 -0.3702 -0.1182 -0.1248
  528ERGO    C2 7930   6.314  12.238   9.098 -0.3071 -0.0965 -0.2699
  529ERGO   ROH 7931   9.535   2.107  10.409  0.0131  0.0962 -0.0811
  529ERGO    R1 7932   9.641   2.015  10.164 -0.0833  0.1222 -0.1321
  529ERGO    R2 7933   9.568   1.773  10.051  0.0016  0.0546 -0.0391
  529ERGO    R3 7934   9.511   1.928   9.835 -0.2376 -0.0212 -0.0349
  529ERGO    R4 7935   9.531   1.655   9.728 -0.0090 -0.0120 -0.0149
  529ERGO    R5 7936   9.639   1.831   9.657 -0.2099  0.0894 -0.0760
  529ERGO    C1 7937   9.457   1.732   9.338 -0.2397 -0.1218  0.0032
  529ERGO    C2 7938   9.550   1.593   9.107  0.0453 -0.2086 -0.2010
  530ERGO   ROH 7939  13.753   9.908  10.063 -0.2239  0.1433 -0.0273
  530ERGO    R1 7940  13.863  10.054   9.847 -0.2104  0.1299 -0.0295
  530ERGO    R2 7941  14.061   9.952   9.684 -0.0815  0.1820  0.0918
  530ERGO    R3 7942  13.885  10.015   9.486 -0.0316  0.0171 -0.0074
  530ERGO    R4 7943  14.144   9.992   9.351  0.0544  0.1863  0.1257
  530ERGO    R5 7944  14.008  10.162   9.342 -0.0692  0.0840  0.0289
  530ERGO    C1 7945  14.028  10.076   8.971  0.1802  0.0338  0.0522
  530ERGO    C2 7946  14.025  10.208   8.655 -0.0623 -0.2887 -0.1066
  531ERGO   ROH 7947  11.375  12.367  10.208 -0.1748 -0.0167 -0.0294
  531ERGO    R1 7948  11.206  12.287   9.995 -0.0141 -0.2440 -0.0730
  531ERGO    R2 7949  11.173  12.438   9.766 -0.2106 -0.2524 -0.0439
  531ERGO    R3 7950  11.245  12.207   9.642  0.1710 -0.1208 -0.0834
  531ERGO    R4 7951  11.079  12.348   9.446 -0.1013 -0.3655 -0.0463
  531ERGO    R5 7952  11.051  12.143   9.517  0.2531 -0.4329 -0.0680
  531ERGO    C1 7953  11.092  12.078   9.144  0.3205 -0.3078 -0.0849
  531ERGO    C2 7954  10.981  12.127   8.809  0.0526 -0.0902 -0.0181
  532ERGO   ROH 7955   1.281   7.141   9.848 -0.1323 -0.1425 -0.0132
  532ERGO    R1 7956   1.377   7.215   9.592  0.0379 -0.0558  0.0752
  532ERGO    R2 7957   1.571   7.070   9.459 -0.1172 -0.2027  0.0167
  532ERGO    R3 7958   1.386   7.066   9.260 -0.0659  0.2079 -0.0500
  532ERGO    R4 7959   1.634   6.974   9.133 -0.2526 -0.6200  0.1068
  532ERGO    R5 7960   1.506   7.138   9.066  0.2412 -0.2701 -0.0573
  532ERGO    C1 7961   1.497   6.914   8.757 -0.2832 -0.4777  0.0966
  532ERGO    C2 7962   1.562   6.811   8.572 -0.2851 -0.1905  0.3123
  533ERGO   ROH 7963   3.381  17.360  10.459 -0.2323  0.0210  0.0756
  533ERGO    R1 7964   3.298  17.211  10.233 -0.2352  0.0567  0.0501
  533ERGO    R2 7965   3.141  17.319  10.033 -0.2163  0.1013  0.0444
  533ERGO    R3 7966   3.342  17.231   9.873 -0.2075  0.1029  0.0589
  533ERGO    R4 7967   3.115  17.272   9.692 -0.2108 -0.0103  0.0612
  533ERGO    R5 7968   3.233  17.090   9.713 -0.1710  0.0330  0.1068
  533ERGO    C1 7969   3.289  17.161   9.343 -0.1993 -0.0737  0.0847
  533ERGO    C2 7970   3.289  17.048   9.050 -0.3166 -0.3330  0.0292
  534ERGO   ROH 7971   5.281   9.661  10.328 -0.1894  0.2628  0.1668
  534ERGO    R1 7972   5.142   9.607  10.087 -0.1126  0.1191  0.1554
  534ERGO    R2 7973   5.070   9.805   9.908 -0.0759  0.0107  0.0312
  534ERGO    R3 7974   5.204   9.649   9.731 -0.0158 -0.0724  0.1458
  534ERGO    R4 7975   5.078   9.856   9.567 -0.1115 -0.2269 -0.0079
  534ERGO    R5 7976   5.061   9.641   9.539 -0.0285 -0.2660  0.1519
  534ERGO    C1 7977   5.207   9.739   9.201 -0.0759 -0.4432  0.0769
  534ERGO    C2 7978   5.210   9.688   8.829 -0.3473 -0.0598 -0.1650
  535ERGO   ROH 7979   2.398   9.059  10.276 -0.1930 -0.1627 -0.1755
  535ERGO    R1 7980   2.507   9.107  10.019 -0.1057  0.2275 -0.0724
  535ERGO    R2 7981   2.395   9.004   9.789  0.3525 -0.0058 -0.2042
  535ERGO    R3 7982   2.396   9.265   9.710 -0.2925  0.0451 -0.1003
  535ERGO    R4 7983   2.387   9.111   9.460  0.2273  0.1061 -0.1656
  535ERGO    R5 7984   2.532   9.266   9.512 -0.1941  0.4759 -0.0387
  535ERGO    C1 7985   2.384   9.418   9.195 -0.4513  0.2192 -0.0456
  535ERGO    C2 7986   2.443   9.405   8.907 -0.2920  0.1405  0.0129
  536ERGO   ROH 7987   8.335  10.100  10.519 -0.0904 -0.0200  0.0271
  536ERGO    R1 7988   8.471  10.023  10.283 -0.1027 -0.0683  0.0353
  536ERGO    R2 7989   8.380   9.820  10.118 -0.1936 -0.0037  0.0014
  536ERGO    R3 7990   8.396  10.012   9.927 -0.0669  0.0109  0.0256
  536ERGO    R4 7991   8.376   9.760   9.778 -0.1204  0.0388 -0.0069
  536ERGO    R5 7992   8.529   9.913   9.754 -0.0570 -0.0182  0.0524
  536ERGO    C1 7993   8.388   9.906   9.400  0.0412  0.0771  0.0109
  536ERGO    C2 7994   8.424  10.090   9.102 -0.0699 -0.0685 -0.1323
  537ERGO   ROH 7995  17.136   3.044   9.882 -0.1204 -0.3191 -0.1014
  537ERGO    R1 7996  17.123   3.139   9.616  0.0224 -0.1887 -0.0638
  537ERGO    R2 7997  17.234   3.002   9.403 -0.1032 -0.2265 -0.1069
  537ERGO    R3 7998  16.983   3.023   9.301 -0.0696  0.1018 -0.1335
  537ERGO    R4 7999  17.159   3.019   9.066 -0.0434 -0.0545 -0.1125
  537ERGO    R5 8000  17.007   3.169   9.113  0.1296  0.1198 -0.0962
  537ERGO    C1 8001  16.879   3.048   8.774  0.0228  0.3538 -0.1407
  537ERGO    C2 8002  16.935   2.886   8.483 -0.1297  0.3700  0.0993
  538ERGO   ROH 8003   4.423   0.327  10.206 -0.0403 -0.1873  0.0739
  538ERGO    R1 8004   4.393   0.160   9.979  0.0079 -0.1539  0.0418
  538ERGO    R2 8005   4.198   0.203   9.787  0.0071 -0.1610  0.0351
  538ERGO    R3 8006   4.410   0.200   9.618  0.0202 -0.0831  0.0514
  538ERGO    R4 8007   4.183   0.120   9.452  0.0328  0.0515 -0.0194
  538ERGO    R5 8008   4.371   0.013   9.475  0.0126  0.0147 -0.0705
  538ERGO    C1 8009   4.375   0.069   9.098  0.0603  0.2482 -0.0357
  538ERGO    C2 8010   4.474  -0.028   8.647 -0.0471 -0.2214 -0.2353
  539ERGO   ROH 8011   8.764  15.698  10.748  0.2863 -0.0765  0.0585
  539ERGO    R1 8012   8.878  15.802  10.510  0.0903  0.0869  0.0333
  539ERGO    R2 8013   8.909  15.650  10.281  0.2245  0.1397  0.0157
  539ERGO    R3 8014   8.770  15.853  10.166 -0.0705 -0.0285  0.0655
  539ERGO    R4 8015   8.946  15.756   9.954  0.1289  0.3225  0.0629
  539ERGO    R5 8016   8.928  15.961  10.023 -0.2046  0.2739  0.1379
  539ERGO    C1 8017   8.836  16.009   9.656 -0.2035  0.2712  0.1373
  539ERGO    C2 8018   8.798  15.951   9.311  0.0445 -0.0517 -0.1705
  540ERGO   ROH 8019   5.152  10.665  10.315  0.2004 -0.2763  0.0208
  540ERGO    R1 8020   5.291  10.731  10.078  0.1403 -0.1300  0.0249
  540ERGO    R2 8021   5.401  10.539   9.911  0.0973 -0.0286 -0.1228
  540ERGO    R3 8022   5.252  10.665   9.722  0.0494  0.0900 -0.0074
  540ERGO    R4 8023   5.456  10.519   9.571 -0.0346  0.1229 -0.1540
  540ERGO    R5 8024   5.411  10.732   9.556 -0.0005  0.1388 -0.0356
  540ERGO    C1 8025   5.349  10.626   9.195 -0.1564  0.3226 -0.0639
  540ERGO    C2 8026   5.470  10.619   8.900 -0.1372  0.2916  0.0853
  541ERGO   ROH 8027  12.257   8.256   9.991  0.0939  0.3035 -0.0397
  541ERGO    R1 8028  12.160   8.152   9.746 -0.0066  0.2930  0.0031
  541ERGO    R2 8029  12.116   8.311   9.524  0.0207  0.2655 -0.0259
  541ERGO    R3 8030  12.280   8.131   9.403 -0.0871  0.1610 -0.0163
  541ERGO    R4 8031  12.138   8.264   9.182 -0.0342  0.2008 -0.0202
  541ERGO    R5 8032  12.151   8.049   9.218 -0.1452  0.2018  0.0089
  541ERGO    C1 8033  12.305   8.067   8.869 -0.1675  0.0652 -0.0080
  541ERGO    C2 8034  12.312   8.116   8.569  0.1354 -0.2490  0.2018
  542ERGO   ROH 8035   2.932   4.703   9.665  0.2174 -0.0774  0.1294
  542ERGO    R1 8036   2.826   4.805   9.424  0.0665 -0.0602  0.2026
  542ERGO    R2 8037   2.959   4.786   9.183  0.0549  0.2280  0.1741
  542ERGO    R3 8038   2.728   4.670   9.100  0.1725  0.0113  0.1393
  542ERGO    R4 8039   2.845   4.789   8.857  0.0666  0.1904  0.1689
  542ERGO    R5 8040   2.642   4.822   8.935  0.0258 -0.0314  0.1710
  542ERGO    C1 8041   2.561   4.682   8.589  0.1837 -0.0349  0.1335
  542ERGO    C2 8042   2.411   4.546   8.316 -0.1746  0.1092  0.1810
  543ERGO   ROH 8043  16.987  12.100  10.093  0.0322 -0.5074 -0.2640
  543ERGO    R1 8044  17.153  12.168   9.874  0.0588 -0.1782 -0.1468
  543ERGO    R2 8045  17.164  12.017   9.643  0.3360 -0.0212 -0.2403
  543ERGO    R3 8046  17.107  12.255   9.524  0.1223 -0.0059 -0.1138
  543ERGO    R4 8047  17.202  12.083   9.306  0.3994  0.2300 -0.1864
  543ERGO    R5 8048  17.278  12.281   9.358  0.1634  0.2851 -0.0324
  543ERGO    C1 8049  17.170  12.345   8.998  0.2358  0.3906 -0.0363
  543ERGO    C2 8050  17.268  12.313   8.693 -0.1929  0.3386 -0.0851
  544ERGO   ROH 8051  16.345   6.581   9.924  0.1722 -0.2905 -0.0269
  544ERGO    R1 8052  16.419   6.675   9.667  0.2335 -0.1735  0.0329
  544ERGO    R2 8053  16.574   6.526   9.494  0.0839 -0.1920 -0.0837
  544ERGO    R3 8054  16.368   6.569   9.323  0.1067  0.1169 -0.0412
  544ERGO    R4 8055  16.571   6.433   9.161 -0.0654 -0.0602 -0.1211
  544ERGO    R5 8056  16.473   6.622   9.114  0.1451  0.0778 -0.0341
  544ERGO    C1 8057  16.376   6.418   8.807 -0.1307  0.3065 -0.1030
  544ERGO    C2 8058  16.389   6.314   8.519 -0.0304 -0.3026  0.0904
  545ERGO   ROH 8059   3.676  15.512  10.653  0.1044  0.1461  0.1095
  545ERGO    R1 8060   3.551  15.552  10.402  0.0535 -0.0379  0.1050
  545ERGO    R2 8061   3.654  15.721  10.209 -0.1492  0.0578  0.0809
  545ERGO    R3 8062   3.639  15.500  10.052  0.1112  0.0149  0.1106
  545ERGO    R4 8063   3.645  15.723   9.863 -0.2830  0.0157  0.0834
  545ERGO    R5 8064   3.496  15.565   9.871 -0.0557 -0.2036  0.1568
  545ERGO    C1 8065   3.625  15.517   9.515 -0.1165 -0.0491  0.1130
  545ERGO    C2 8066   3.690  15.438   9.175  0.0692  0.0307  0.0409
  546ERGO   ROH 8067   0.876   5.735   6.209 -0.2184  0.0622  0.1948
  546ERGO    R1 8068   0.819   5.590   6.445 -0.0955 -0.0116  0.1806
  546ERGO    R2 8069   0.897   5.678   6.696 -0.0048 -0.0672  0.1736
  546ERGO    R3 8070   0.632   5.648   6.752  0.0238 -0.1250  0.2758
  546ERGO    R4 8071   0.755   5.719   7.008  0.0645  0.2099  0.1703
  546ERGO    R5 8072   0.629   5.546   6.969  0.1295  0.1073  0.3907
  546ERGO    C1 8073   0.425   5.715   7.243  0.1316  0.3170  0.2643
  546ERGO    C2 8074   0.310   5.650   7.472  0.3715 -0.0266 -0.1091
  547ERGO   ROH 8075   0.437  11.697  10.554 -0.0904  0.1245  0.2766
  547ERGO    R1 8076   0.365  11.708  10.280  0.0165  0.0812  0.2471
  547ERGO    R2 8077   0.314  11.945  10.149 -0.0414  0.0498  0.2211
  547ERGO    R3 8078   0.503  11.853   9.976  0.0713  0.1348  0.2958
  547ERGO    R4 8079   0.330  12.027   9.814 -0.2501 -0.3238  0.1143
  547ERGO    R5 8080   0.383  11.819   9.771  0.0707 -0.3037  0.3558
  547ERGO    C1 8081   0.517  11.987   9.456 -0.2658 -0.4617  0.1222
  547ERGO    C2 8082   0.462  12.075   9.063  0.0912 -0.1382 -0.0275
  548ERGO   ROH 8083  13.686  13.044  10.422 -0.0747 -0.1828  0.0618
  548ERGO    R1 8084  13.672  12.995  10.144 -0.1578  0.0303  0.0260
  548ERGO    R2 8085  13.709  13.194   9.956  0.1616  0.1081  0.1616
  548ERGO    R3 8086  13.897  13.023   9.859 -0.1101 -0.1334  0.0472
  548ERGO    R4 8087  13.775  13.143   9.620 -0.0285  0.1021  0.1241
  548ERGO    R5 8088  13.797  12.930   9.662 -0.3123  0.0581  0.0570
  548ERGO    C1 8089  13.990  12.953   9.334 -0.3945 -0.1281 -0.0050
  548ERGO    C2 8090  14.181  12.979   9.064  0.1033  0.0924 -0.0841
  549ERGO   ROH 8091  16.085  15.309  10.666  0.2190 -0.0927  0.0100
  549ERGO    R1 8092  16.209  15.388  10.424  0.1405 -0.1568 -0.0504
  549ERGO    R2 8093  16.318  15.207  10.246 -0.0893 -0.2142 -0.1261
  549ERGO    R3 8094  16.154  15.332  10.069 -0.0955 -0.0810 -0.0294
  549ERGO    R4 8095  16.347  15.189   9.902 -0.0989  0.0223 -0.1420
  549ERGO    R5 8096  16.300  15.401   9.892 -0.0937  0.0393  0.0110
  549ERGO    C1 8097  16.211  15.296   9.536 -0.1102  0.2850 -0.0605
  549ERGO    C2 8098  16.173  15.278   9.168  0.0370 -0.0381 -0.0838
  550ERGO   ROH 8099   2.864  15.187  10.444  0.0045 -0.1506 -0.0167
  550ERGO    R1 8100   2.778  15.287  10.194  0.0151 -0.0211  0.0317
  550ERGO    R2 8101   2.952  15.400  10.011  0.0560 -0.1314  0.0091
  550ERGO    R3 8102   2.844  15.215   9.843 -0.1538  0.0005 -0.0065
  550ERGO    R4 8103   2.987  15.403   9.667  0.2783 -0.2725  0.0272
  550ERGO    R5 8104   2.777  15.343   9.651  0.1761  0.0726 -0.0836
  550ERGO    C1 8105   2.906  15.232   9.309  0.2107 -0.2309  0.0231
  550ERGO    C2 8106   2.923  15.209   8.953  0.0696  0.2040 -0.0929
  551ERGO   ROH 8107   8.007   6.627   9.991 -0.0822 -0.0912 -0.0821
  551ERGO    R1 8108   8.035   6.586   9.712 -0.1121  0.0070 -0.1001
  551ERGO    R2 8109   7.863   6.425   9.568 -0.0490 -0.0492 -0.1143
  551ERGO    R3 8110   7.835   6.647   9.414 -0.2055 -0.0182 -0.0426
  551ERGO    R4 8111   7.871   6.429   9.222  0.0752  0.0874 -0.1107
  551ERGO    R5 8112   7.987   6.613   9.232 -0.1050  0.1951 -0.0004
  551ERGO    C1 8113   7.850   6.640   8.877  0.0006  0.1958 -0.0414
  551ERGO    C2 8114   7.751   6.565   8.543  0.0953 -0.3043 -0.1473
  552ERGO   ROH 8115  12.213   9.268  10.136 -0.0210 -0.1157  0.0336
  552ERGO    R1 8116  12.207   9.146   9.881  0.0405 -0.0351 -0.0073
  552ERGO    R2 8117  11.992   9.173   9.708  0.0993  0.0578 -0.0727
  552ERGO    R3 8118  12.184   9.258   9.536  0.1741  0.0793  0.0212
  552ERGO    R4 8119  11.950   9.210   9.367  0.2401  0.1616 -0.0797
  552ERGO    R5 8120  12.149   9.128   9.338  0.2345  0.1446 -0.0282
  552ERGO    C1 8121  12.105   9.312   9.007  0.3923  0.2422  0.0044
  552ERGO    C2 8122  12.140   9.534   8.776 -0.2026  0.1564  0.0449
  553ERGO   ROH 8123   9.764   8.321   6.909 -0.0134 -0.1412 -0.1532
  553ERGO    R1 8124   9.624   8.242   7.143  0.0089 -0.0096 -0.0940
  553ERGO    R2 8125   9.704   8.028   7.298 -0.1330 -0.0944 -0.1350
  553ERGO    R3 8126   9.698   8.212   7.498  0.1370 -0.0907 -0.1269
  553ERGO    R4 8127   9.677   7.954   7.634 -0.0639 -0.0729 -0.1246
  553ERGO    R5 8128   9.542   8.124   7.656  0.1143  0.0630 -0.0622
  553ERGO    C1 8129   9.656   8.084   8.018  0.2297 -0.0570 -0.1110
  553ERGO    C2 8130   9.612   8.046   8.433 -0.2004 -0.0956  0.0235
  554ERGO   ROH 8131  10.472   2.311  10.252  0.0674 -0.0790  0.0715
  554ERGO    R1 8132  10.376   2.298   9.985  0.0562 -0.0612  0.0749
  554ERGO    R2 8133  10.531   2.371   9.768  0.0358 -0.0165  0.0762
  554ERGO    R3 8134  10.467   2.121   9.680  0.0639 -0.0148  0.0500
  554ERGO    R4 8135  10.557   2.264   9.440  0.2731 -0.0506  0.1044
  554ERGO    R5 8136  10.369   2.158   9.465  0.2355 -0.0186 -0.0313
  554ERGO    C1 8137  10.513   1.968   9.167  0.4376 -0.0689  0.0964
  554ERGO    C2 8138  10.533   1.857   8.808 -0.0067  0.2606 -0.4574
  555ERGO   ROH 8139  14.148   6.701  10.247 -0.1419 -0.2832  0.0364
  555ERGO    R1 8140  13.994   6.777  10.022 -0.1007 -0.2596  0.0168
  555ERGO    R2 8141  14.011   7.027   9.907 -0.2038 -0.1919  0.1529
  555ERGO    R3 8142  14.059   6.885   9.681 -0.0354 -0.0468  0.0945
  555ERGO    R4 8143  13.893   7.110   9.593 -0.0839 -0.0605  0.1407
  555ERGO    R5 8144  13.855   6.898   9.557  0.0171 -0.0590  0.0021
  555ERGO    C1 8145  13.870   7.024   9.197  0.1441  0.1523  0.0787
  555ERGO    C2 8146  13.884   7.131   8.812  0.2731 -0.0503 -0.0849
  556ERGO   ROH 8147   5.842   8.875  10.012 -0.0750  0.0247 -0.1561
  556ERGO    R1 8148   5.813   9.046   9.788  0.1184  0.0823 -0.1390
  556ERGO    R2 8149   6.007   9.069   9.593  0.0810 -0.2417 -0.2185
  556ERGO    R3 8150   5.801   9.007   9.427 -0.0985  0.1084 -0.1362
  556ERGO    R4 8151   6.014   9.107   9.250  0.0920 -0.4440 -0.2423
  556ERGO    R5 8152   5.807   9.179   9.259  0.2386  0.0115 -0.2316
  556ERGO    C1 8153   5.824   9.072   8.893 -0.0701 -0.2331 -0.1789
  556ERGO    C2 8154   5.976   9.153   8.574  0.1812  0.0461  0.2825
  557ERGO   ROH 8155   1.081   9.074  10.140 -0.0320 -0.0271  0.0383
  557ERGO    R1 8156   0.971   8.950   9.911  0.0655 -0.0769  0.0191
  557ERGO    R2 8157   0.805   9.083   9.735  0.0141 -0.1622  0.0092
  557ERGO    R3 8158   0.987   8.998   9.551  0.0802 -0.0518  0.0219
  557ERGO    R4 8159   0.805   9.172   9.401 -0.0207 -0.1534  0.0106
  557ERGO    R5 8160   0.859   8.967   9.351  0.1074 -0.1256  0.0115
  557ERGO    C1 8161   0.976   9.145   9.034  0.0211 -0.0448  0.0236
  557ERGO    C2 8162   1.016   9.281   8.670  0.1968  0.2385 -0.0183
  558ERGO   ROH 8163   7.898   7.884  10.161  0.0971  0.1812 -0.0281
  558ERGO    R1 8164   7.959   7.765   9.911  0.1917  0.1384  0.0150
  558ERGO    R2 8165   7.788   7.588   9.785  0.3124 -0.0095  0.0577
  558ERGO    R3 8166   7.814   7.762   9.577  0.2202 -0.0606  0.0029
  558ERGO    R4 8167   7.727   7.510   9.454  0.3609 -0.1537  0.0823
  558ERGO    R5 8168   7.902   7.628   9.399  0.2986 -0.0724  0.0481
  558ERGO    C1 8169   7.716   7.627   9.066  0.3025 -0.2856  0.0452
  558ERGO    C2 8170   7.808   7.608   8.789  0.0932 -0.3266 -0.0936
  559ERGO   ROH 8171  14.913   2.983   9.809  0.1146  0.0050 -0.0977
  559ERGO    R1 8172  14.955   2.903   9.541  0.1664  0.1023 -0.1193
  559ERGO    R2 8173  14.748   2.874   9.360  0.1748 -0.0598 -0.1054
  559ERGO    R3 8174  14.897   3.045   9.211 -0.0038  0.1188 -0.0830
  559ERGO    R4 8175  14.723   2.910   9.017  0.2490 -0.1618 -0.1219
  559ERGO    R5 8176  14.940   2.925   9.008  0.2358  0.1355 -0.0446
  559ERGO    C1 8177  14.848   3.092   8.677  0.1245 -0.0535 -0.1105
  559ERGO    C2 8178  14.670   3.008   8.449 -0.0369 -0.2270 -0.0826
  560ERGO   ROH 8179  16.937  12.993  10.531  0.1410  0.0518  0.0644
  560ERGO    R1 8180  17.009  12.917  10.268  0.0270  0.0494  0.0330
  560ERGO    R2 8181  16.920  12.682  10.152  0.0145  0.0229  0.0899
  560ERGO    R3 8182  16.835  12.849   9.956 -0.1150 -0.0035  0.1235
  560ERGO    R4 8183  16.992  12.645   9.816  0.0778  0.1746  0.0864
  560ERGO    R5 8184  17.019  12.861   9.803 -0.1130  0.2001  0.1429
  560ERGO    C1 8185  16.954  12.781   9.436 -0.0069  0.2380  0.1159
  560ERGO    C2 8186  16.968  12.777   9.135 -0.2562  0.0675  0.2176
  561ERGO   ROH 8187   1.440   8.801  10.065  0.0776  0.3054 -0.0483
  561ERGO    R1 8188   1.469   8.649   9.829  0.0578  0.2327 -0.0047
  561ERGO    R2 8189   1.272   8.633   9.636  0.0286  0.1490  0.0288
  561ERGO    R3 8190   1.472   8.713   9.471 -0.0052  0.1197 -0.0256
  561ERGO    R4 8191   1.231   8.719   9.304 -0.0015 -0.1131 -0.0372
  561ERGO    R5 8192   1.417   8.615   9.259  0.0459 -0.0601  0.0443
  561ERGO    C1 8193   1.395   8.845   8.955 -0.0507 -0.2933 -0.1266
  561ERGO    C2 8194   1.543   9.095   8.640 -0.0757 -0.0862  0.0061
  562ERGO   ROH 8195   2.540  16.352  10.327 -0.3126 -0.1720 -0.0584
  562ERGO    R1 8196   2.426  16.333  10.069 -0.2742 -0.0907 -0.0805
  562ERGO    R2 8197   2.485  16.511   9.866 -0.1779 -0.0817 -0.0369
  562ERGO    R3 8198   2.547  16.284   9.729 -0.2354 -0.0787 -0.0704
  562ERGO    R4 8199   2.501  16.487   9.522 -0.0714  0.0068 -0.0393
  562ERGO    R5 8200   2.405  16.292   9.536 -0.1713  0.0413 -0.1201
  562ERGO    C1 8201   2.569  16.260   9.193 -0.0634  0.0609 -0.0724
  562ERGO    C2 8202   2.637  16.189   8.854 -0.1415 -0.2324 -0.4336
  563ERGO   ROH 8203   1.964   6.340   9.710 -0.0510  0.3295 -0.1297
  563ERGO    R1 8204   1.994   6.148   9.504  0.1941  0.2926 -0.0622
  563ERGO    R2 8205   1.789   6.081   9.332  0.2475 -0.0980  0.0180
  563ERGO    R3 8206   1.972   6.144   9.141  0.1002  0.1163 -0.0554
  563ERGO    R4 8207   1.789   5.957   9.009  0.2217 -0.0385 -0.0051
  563ERGO    R5 8208   2.006   5.940   9.021  0.2455  0.1706 -0.1081
  563ERGO    C1 8209   1.960   5.945   8.642  0.0684  0.1973 -0.0876
  563ERGO    C2 8210   2.094   5.887   8.314 -0.2520 -0.1931  0.1544
  564ERGO   ROH 8211  13.393  14.886  10.599 -0.2056 -0.0859  0.0731
  564ERGO    R1 8212  13.328  14.911  10.325 -0.1579 -0.0659  0.0629
  564ERGO    R2 8213  13.334  15.153  10.191 -0.2095 -0.0422  0.0993
  564ERGO    R3 8214  13.498  15.018  10.021 -0.1300  0.0356  0.1146
  564ERGO    R4 8215  13.313  15.164   9.847 -0.0968  0.0521  0.0953
  564ERGO    R5 8216  13.355  14.950   9.842 -0.0581  0.0615  0.0476
  564ERGO    C1 8217  13.454  15.044   9.486  0.0433  0.1799  0.1073
  564ERGO    C2 8218  13.343  14.854   9.128  0.2659  0.0042  0.4066
  565ERGO   ROH 8219  13.980   4.249   9.880  0.0881 -0.0086 -0.0941
  565ERGO    R1 8220  14.057   4.127   9.637 -0.1183 -0.2394 -0.0478
  565ERGO    R2 8221  13.873   4.034   9.452 -0.2867  0.0745 -0.0489
  565ERGO    R3 8222  14.012   4.193   9.282  0.0684 -0.2472 -0.0729
  565ERGO    R4 8223  13.814   4.058   9.113 -0.4447  0.3778 -0.0028
  565ERGO    R5 8224  14.030   4.064   9.081 -0.4332 -0.2288 -0.1390
  565ERGO    C1 8225  13.911   4.222   8.755 -0.2035  0.2525  0.0016
  565ERGO    C2 8226  13.920   4.392   8.403 -0.0361 -0.3292  0.1007
  566ERGO   ROH 8227  15.966   0.269  10.494 -0.0871 -0.0131  0.1918
  566ERGO    R1 8228  16.044   0.141  10.254 -0.0804  0.0469  0.1631
  566ERGO    R2 8229  15.861   0.022  10.084 -0.0838  0.1809  0.0799
  566ERGO    R3 8230  15.977   0.184   9.899  0.0203  0.2014  0.1606
  566ERGO    R4 8231  15.856  -0.032   9.742  0.1496  0.1804  0.0735
  566ERGO    R5 8232  16.063   0.034   9.734  0.1527  0.2101  0.2152
  566ERGO    C1 8233  15.961   0.088   9.370  0.3835  0.1996  0.1457
  566ERGO    C2 8234  15.936   0.063   9.067  0.1322 -0.0745 -0.1415
  567ERGO   ROH 8235   1.171  17.499   6.868  0.1204 -0.0769  0.0242
  567ERGO    R1 8236   1.214  17.417   7.135  0.0958 -0.0018  0.0523
  567ERGO    R2 8237   1.247  17.596   7.343  0.0502  0.0586  0.0123
  567ERGO    R3 8238   1.043  17.455   7.455  0.0500  0.0654  0.0187
  567ERGO    R4 8239   1.195  17.560   7.683 -0.0329  0.1824  0.0127
  567ERGO    R5 8240   1.141  17.352   7.648  0.0167  0.1616  0.0842
  567ERGO    C1 8241   0.973  17.408   7.986 -0.0815  0.2610  0.0189
  567ERGO    C2 8242   0.795  17.362   8.269 -0.2115  0.1710 -0.0013
  568ERGO   ROH 8243  17.366   4.421   9.679 -0.0472 -0.2269  0.0778
  568ERGO    R1 8244  17.461   4.348   9.423  0.0187 -0.1388  0.0751
  568ERGO    R2 8245  17.296   4.244   9.227  0.1007 -0.2547  0.0578
  568ERGO    R3 8246  17.397   4.448   9.079 -0.0492 -0.1627  0.0820
  568ERGO    R4 8247  17.305   4.252   8.881  0.0266 -0.1640  0.0586
  568ERGO    R5 8248  17.504   4.340   8.894 -0.0257 -0.0531  0.0354
  568ERGO    C1 8249  17.406   4.448   8.541 -0.1571 -0.0250  0.0817
  568ERGO    C2 8250  17.354   4.262   8.158 -0.1742  0.0361 -0.1942
  569ERGO   ROH 8251  14.154   5.192   9.797 -0.1337 -0.1241 -0.0384
  569ERGO    R1 8252  14.293   5.215   9.551 -0.1319 -0.0480 -0.0304
  569ERGO    R2 8253  14.263   5.032   9.346 -0.0316 -0.0557 -0.0370
  569ERGO    R3 8254  14.205   5.254   9.200 -0.1325 -0.0798 -0.0341
  569ERGO    R4 8255  14.274   5.050   9.001  0.1892  0.0163 -0.0280
  569ERGO    R5 8256  14.361   5.249   9.019 -0.0011  0.0943  0.0710
  569ERGO    C1 8257  14.225   5.269   8.663  0.2232  0.0357 -0.0199
  569ERGO    C2 8258  14.153   5.393   8.327  0.1599 -0.0177 -0.0612
  570ERGO   ROH 8259   8.159  14.816  10.600  0.0729 -0.0309  0.2234
  570ERGO    R1 8260   8.084  14.977  10.379 -0.0942 -0.1296  0.2076
  570ERGO    R2 8261   8.270  15.088  10.207 -0.2046  0.1100  0.2465
  570ERGO    R3 8262   8.121  14.962  10.017 -0.0042 -0.0855  0.2135
  570ERGO    R4 8263   8.260  15.175   9.872 -0.1925  0.0613  0.2326
  570ERGO    R5 8264   8.045  15.138   9.874 -0.1581 -0.1823  0.1680
  570ERGO    C1 8265   8.115  15.107   9.500  0.0027 -0.1508  0.1934
  570ERGO    C2 8266   8.153  15.176   9.202  0.2497  0.1968  0.0683
  571ERGO   ROH 8267   2.713  13.827  10.502  0.2901  0.2028  0.0698
  571ERGO    R1 8268   2.661  13.926  10.242  0.0806  0.1489  0.0896
  571ERGO    R2 8269   2.861  14.020  10.075 -0.0738  0.2769 -0.0249
  571ERGO    R3 8270   2.757  13.838   9.902 -0.0414  0.1921  0.0432
  571ERGO    R4 8271   2.901  14.029   9.732  0.0112  0.1006 -0.0209
  571ERGO    R5 8272   2.693  13.969   9.711  0.0113  0.1000 -0.0399
  571ERGO    C1 8273   2.827  13.864   9.370  0.0910 -0.0816  0.0454
  571ERGO    C2 8274   2.817  13.897   9.121  0.0402 -0.0929 -0.0753
  572ERGO   ROH 8275   5.999  10.325  10.764  0.0952  0.0641 -0.1837
  572ERGO    R1 8276   6.165  10.406  10.550  0.2002 -0.0565 -0.1505
  572ERGO    R2 8277   6.325  10.228  10.410 -0.0793 -0.2217 -0.2773
  572ERGO    R3 8278   6.194  10.330  10.195  0.0466  0.1126 -0.1991
  572ERGO    R4 8279   6.455  10.249  10.091 -0.0791 -0.1919 -0.2741
  572ERGO    R5 8280   6.364  10.445  10.071  0.2002 -0.0455 -0.1348
  572ERGO    C1 8281   6.408  10.357   9.703  0.0393  0.1394 -0.1987
  572ERGO    C2 8282   6.415  10.383   9.311 -0.1984  0.2872  0.1569
  573ERGO   ROH 8283  15.096   1.209  10.046 -0.4509 -0.0689 -0.0819
  573ERGO    R1 8284  15.086   1.068   9.801 -0.5044 -0.0441 -0.0941
  573ERGO    R2 8285  14.928   1.148   9.589 -0.2529  0.2066 -0.1942
  573ERGO    R3 8286  15.162   1.139   9.452 -0.1721 -0.1366 -0.0448
  573ERGO    R4 8287  14.954   1.158   9.245 -0.0160  0.2767 -0.1755
  573ERGO    R5 8288  15.112   1.007   9.258 -0.2695  0.0069 -0.1194
  573ERGO    C1 8289  15.190   1.155   8.915  0.1978 -0.0046 -0.0246
  573ERGO    C2 8290  15.119   1.039   8.503 -0.0641  0.1810 -0.2792
  574ERGO   ROH 8291   7.213   3.413  10.234  0.0431  0.1198  0.0176
  574ERGO    R1 8292   7.143   3.473   9.966  0.0143  0.0002 -0.0014
  574ERGO    R2 8293   7.310   3.613   9.797 -0.0503  0.0165 -0.0468
  574ERGO    R3 8294   7.275   3.398   9.635  0.0431 -0.0515  0.0211
  574ERGO    R4 8295   7.318   3.622   9.452  0.0548 -0.1071 -0.0491
  574ERGO    R5 8296   7.150   3.483   9.449  0.0819 -0.1431 -0.0496
  574ERGO    C1 8297   7.290   3.425   9.099  0.2037 -0.2429  0.0134
  574ERGO    C2 8298   7.493   3.467   8.719  0.1514  0.1839  0.1059
  575ERGO   ROH 8299  15.948   4.387   9.771  0.2298  0.0003  0.0222
  575ERGO    R1 8300  15.995   4.309   9.502  0.0861 -0.2016  0.0532
  575ERGO    R2 8301  15.888   4.078   9.394 -0.3311 -0.0693  0.1554
  575ERGO    R3 8302  15.793   4.249   9.206 -0.0346  0.0264  0.0879
  575ERGO    R4 8303  15.889   4.019   9.053 -0.2485 -0.1096  0.1627
  575ERGO    R5 8304  15.944   4.227   9.022  0.0221 -0.1815  0.1598
  575ERGO    C1 8305  15.800   4.145   8.679  0.0780 -0.0433  0.1037
  575ERGO    C2 8306  15.790   4.063   8.358  0.3818 -0.0568 -0.0650
  576ERGO   ROH 8307   5.969  13.811  10.961 -0.0290 -0.0912 -0.0513
  576ERGO    R1 8308   5.874  13.887  10.706 -0.0902 -0.1914 -0.0587
  576ERGO    R2 8309   5.959  14.117  10.578 -0.2173 -0.1747 -0.1127
  576ERGO    R3 8310   6.017  13.943  10.376 -0.1479 -0.1863 -0.0832
  576ERGO    R4 8311   5.956  14.196  10.241 -0.0051 -0.1656 -0.1139
  576ERGO    R5 8312   5.865  14.003  10.201 -0.0341 -0.1418 -0.1695
  576ERGO    C1 8313   6.009  14.080   9.857  0.1836 -0.1711 -0.0872
  576ERGO    C2 8314   6.034  14.171   9.539  0.3563 -0.1286  0.0840
  577ERGO   ROH 8315  16.682   1.375  10.154  0.0866  0.1242  0.2197
  577ERGO    R1 8316  16.585   1.260   9.914 -0.0495  0.1109  0.2806
  577ERGO    R2 8317  16.430   1.400   9.734  0.0623  0.1814  0.2401
  577ERGO    R3 8318  16.621   1.322   9.558 -0.0290 -0.0768  0.2486
  577ERGO    R4 8319  16.391   1.393   9.391  0.0490  0.1641  0.2412
  577ERGO    R5 8320  16.502   1.205   9.387 -0.1708  0.0315  0.2719
  577ERGO    C1 8321  16.549   1.317   9.025 -0.0445 -0.0884  0.2498
  577ERGO    C2 8322  16.530   1.350   8.600  0.0944  0.1807 -0.2132
  578ERGO   ROH 8323   4.084   2.609   9.729  0.1774 -0.2597 -0.2746
  578ERGO    R1 8324   4.073   2.692   9.459 -0.0573 -0.0476 -0.2035
  578ERGO    R2 8325   4.081   2.515   9.247  0.0703  0.1322 -0.3585
  578ERGO    R3 8326   3.851   2.640   9.175 -0.1292 -0.0966 -0.1366
  578ERGO    R4 8327   3.914   2.466   8.948 -0.2000 -0.0458 -0.1825
  578ERGO    R5 8328   3.875   2.680   8.940 -0.4157 -0.0883 -0.1641
  578ERGO    C1 8329   3.601   2.555   8.707 -0.5446 -0.3641  0.1284
  578ERGO    C2 8330   3.591   2.498   8.393 -0.0747  0.2877 -0.0656
  579ERGO   ROH 8331  13.479   3.380  10.016 -0.0856 -0.1768  0.1544
  579ERGO    R1 8332  13.290   3.303   9.820  0.0273 -0.3241  0.1016
  579ERGO    R2 8333  13.167   3.485   9.652 -0.2573 -0.3809  0.2444
  579ERGO    R3 8334  13.262   3.320   9.458 -0.0035 -0.0923  0.1128
  579ERGO    R4 8335  13.093   3.513   9.315 -0.3222 -0.2452  0.2684
  579ERGO    R5 8336  13.079   3.296   9.306  0.0205 -0.2694  0.1083
  579ERGO    C1 8337  13.139   3.374   8.937 -0.1217  0.1049  0.1587
  579ERGO    C2 8338  13.107   3.569   8.654 -0.1203 -0.1553  0.0873
  580ERGO   ROH 8339   0.159   5.379   9.464 -0.2549  0.0097 -0.0014
  580ERGO    R1 8340   0.140   5.266   9.206 -0.4016 -0.0445  0.0323
  580ERGO    R2 8341  -0.073   5.317   9.036 -0.3108  0.2290 -0.0047
  580ERGO    R3 8342   0.124   5.390   8.864 -0.1773 -0.1249 -0.0083
  580ERGO    R4 8343  -0.124   5.429   8.713 -0.1068  0.2357 -0.0361
  580ERGO    R5 8344   0.048   5.312   8.650 -0.2852 -0.0567  0.0053
  580ERGO    C1 8345   0.031   5.562   8.363  0.1376 -0.0926 -0.0581
  580ERGO    C2 8346   0.001   5.635   8.123 -0.2324  0.1107  0.3870
  581ERGO   ROH 8347  15.528   1.691   9.968 -0.1694  0.2250  0.0379
  581ERGO    R1 8348  15.515   1.512   9.749 -0.1048  0.1682  0.0790
  581ERGO    R2 8349  15.305   1.512   9.570 -0.0995  0.0611  0.0656
  581ERGO    R3 8350  15.504   1.539   9.386 -0.0963  0.0816  0.0736
  581ERGO    R4 8351  15.260   1.501   9.227 -0.0759  0.0572  0.0633
  581ERGO    R5 8352  15.444   1.386   9.211 -0.0676  0.0795  0.0710
  581ERGO    C1 8353  15.420   1.521   8.855 -0.0591  0.0741  0.0694
  581ERGO    C2 8354  15.501   1.390   8.535  0.0628 -0.2141 -0.1675
  582ERGO   ROH 8355  10.704   0.280  11.183 -0.1358  0.1226  0.1174
  582ERGO    R1 8356  10.742   0.191  10.918  0.0088  0.1492  0.1286
  582ERGO    R2 8357  10.532   0.110  10.757  0.1153  0.0024  0.0656
  582ERGO    R3 8358  10.635   0.294  10.586  0.0377  0.0739  0.0946
  582ERGO    R4 8359  10.494   0.102  10.414  0.3095 -0.0930  0.0442
  582ERGO    R5 8360  10.701   0.166  10.394  0.2652  0.1012  0.1501
  582ERGO    C1 8361  10.567   0.271  10.053  0.3497 -0.0814  0.0589
  582ERGO    C2 8362  10.603   0.199   9.737  0.2020 -0.0821  0.1941
  583ERGO   ROH 8363   1.671   3.316   9.747  0.1890 -0.1207 -0.0709
  583ERGO    R1 8364   1.769   3.189   9.514  0.2476 -0.1290 -0.0429
  583ERGO    R2 8365   1.817   3.325   9.279  0.0139 -0.1882 -0.1315
  583ERGO    R3 8366   2.064   3.214   9.302  0.1472  0.0963 -0.1579
  583ERGO    R4 8367   2.016   3.227   9.013  0.0211 -0.1326 -0.1459
  583ERGO    R5 8368   2.073   3.050   9.127  0.2600 -0.0016 -0.0602
  583ERGO    C1 8369   2.363   3.066   8.880  0.1504  0.1668 -0.1790
  583ERGO    C2 8370   2.480   3.070   8.574 -0.0773 -0.2967 -0.0115
  584ERGO   ROH 8371  10.619   2.757   6.395  0.0515  0.0140  0.1435
  584ERGO    R1 8372  10.615   2.753   6.678 -0.0622 -0.0805  0.1431
  584ERGO    R2 8373  10.696   2.969   6.831  0.1597 -0.2269  0.2531
  584ERGO    R3 8374  10.450   2.940   6.943  0.0716  0.0452  0.1363
  584ERGO    R4 8375  10.621   3.031   7.163  0.0125  0.0207  0.1750
  584ERGO    R5 8376  10.494   2.854   7.162 -0.1328  0.1335  0.2076
  584ERGO    C1 8377  10.346   3.040   7.461 -0.1558  0.4203  0.0199
  584ERGO    C2 8378  10.307   3.083   7.786  0.1207  0.1551 -0.2381
  585ERGO   ROH 8379   7.878  10.258  10.412 -0.0555  0.0202 -0.1276
  585ERGO    R1 8380   8.013  10.218  10.167  0.0561  0.0313 -0.0663
  585ERGO    R2 8381   7.952  10.010   9.996  0.2084 -0.0185 -0.0478
  585ERGO    R3 8382   7.924  10.210   9.814  0.2019 -0.0678 -0.1046
  585ERGO    R4 8383   7.945   9.966   9.653 -0.1144 -0.1672 -0.0276
  585ERGO    R5 8384   8.067  10.146   9.633  0.0088 -0.2559 -0.2030
  585ERGO    C1 8385   7.916  10.129   9.283 -0.3085 -0.3001 -0.0692
  585ERGO    C2 8386   7.830  10.172   8.977 -0.2949 -0.0813 -0.0711
  586ERGO   ROH 8387  14.845  11.217  10.077  0.0478  0.2667 -0.1024
  586ERGO    R1 8388  14.849  11.129   9.809 -0.1570  0.2538 -0.1032
  586ERGO    R2 8389  14.768  11.288   9.598  0.0335  0.3803 -0.0859
  586ERGO    R3 8390  15.014  11.228   9.500 -0.0776 -0.0029 -0.1449
  586ERGO    R4 8391  14.861  11.322   9.267  0.0621  0.4010 -0.0754
  586ERGO    R5 8392  14.970  11.134   9.284 -0.2686  0.1947 -0.1937
  586ERGO    C1 8393  15.147  11.286   8.982 -0.0255  0.0532 -0.1247
  586ERGO    C2 8394  15.207  11.342   8.671  0.2182  0.2857 -0.2518
  587ERGO   ROH 8395   3.856  12.633   6.655  0.0588  0.0207  0.0177
  587ERGO    R1 8396   3.916  12.781   6.888  0.1158  0.0291 -0.0018
  587ERGO    R2 8397   3.722  12.860   7.068  0.1354  0.1921 -0.0495
  587ERGO    R3 8398   3.883  12.734   7.247  0.0234  0.1222  0.0022
  587ERGO    R4 8399   3.698  12.891   7.412  0.0518  0.2191 -0.0579
  587ERGO    R5 8400   3.916  12.895   7.422  0.0510  0.1143  0.0040
  587ERGO    C1 8401   3.835  12.791   7.780 -0.1020  0.1694 -0.0142
  587ERGO    C2 8402   3.792  12.928   8.110  0.1464  0.1137 -0.3109
  588ERGO   ROH 8403  15.312  17.019  10.426 -0.1669 -0.3801  0.1021
  588ERGO    R1 8404  15.255  16.891  10.180 -0.2425 -0.1798  0.0135
  588ERGO    R2 8405  15.092  17.005   9.988 -0.0984  0.0930  0.0468
  588ERGO    R3 8406  15.307  16.963   9.827 -0.1054 -0.0171  0.0658
  588ERGO    R4 8407  15.076  16.947   9.647 -0.0957  0.1154  0.0429
  588ERGO    R5 8408  15.233  16.797   9.671 -0.1791  0.0296  0.0519
  588ERGO    C1 8409  15.269  16.873   9.299 -0.1007  0.0251  0.0586
  588ERGO    C2 8410  15.135  16.861   8.940 -0.1439 -0.1550  0.1455
  589ERGO   ROH 8411   8.299   3.657  10.031  0.1871  0.1386  0.0434
  589ERGO    R1 8412   8.241   3.464   9.832  0.0931  0.1386  0.0738
  589ERGO    R2 8413   8.165   3.532   9.576  0.1360  0.1365  0.0717
  589ERGO    R3 8414   8.372   3.371   9.506  0.0503  0.0134  0.0882
  589ERGO    R4 8415   8.241   3.440   9.252  0.3849  0.5060  0.0170
  589ERGO    R5 8416   8.286   3.239   9.325  0.0947  0.3446 -0.1962
  589ERGO    C1 8417   8.481   3.235   8.997  0.4492  0.6056  0.0006
  589ERGO    C2 8418   8.540   3.179   8.559 -0.2276 -0.3436 -0.1983
  590ERGO   ROH 8419  11.862   6.311   9.753 -0.0754  0.1677  0.0218
  590ERGO    R1 8420  11.948   6.161   9.529 -0.0098  0.1462  0.0634
  590ERGO    R2 8421  11.800   6.142   9.297  0.0276  0.0658  0.0543
  590ERGO    R3 8422  12.030   6.229   9.181  0.0213  0.0949  0.0588
  590ERGO    R4 8423  11.874   6.114   8.960 -0.0053  0.1483  0.0384
  590ERGO    R5 8424  12.079   6.063   9.015  0.0041  0.1308  0.0111
  590ERGO    C1 8425  12.133   6.179   8.655 -0.0304  0.2236  0.0333
  590ERGO    C2 8426  12.298   6.231   8.437  0.4105 -0.1685  0.0965
  591ERGO   ROH 8427   3.038   8.370   9.910 -0.0234 -0.0473 -0.0021
  591ERGO    R1 8428   2.980   8.299   9.642 -0.1443 -0.0552  0.0256
  591ERGO    R2 8429   2.722   8.256   9.552 -0.2001  0.1147  0.1002
  591ERGO    R3 8430   2.791   8.442   9.366 -0.1127  0.0311  0.0487
  591ERGO    R4 8431   2.680   8.220   9.211 -0.0989 -0.0108  0.1006
  591ERGO    R5 8432   2.874   8.314   9.182 -0.0754 -0.0534  0.1243
  591ERGO    C1 8433   2.721   8.373   8.838  0.0422 -0.1623  0.0525
  591ERGO    C2 8434   2.771   8.616   8.496  0.3185  0.1910 -0.2422
  592ERGO   ROH 8435  14.944   7.933   9.820  0.0213 -0.2659 -0.1787
  592ERGO    R1 8436  15.098   7.924   9.583  0.0748 -0.0113 -0.1548
  592ERGO    R2 8437  15.019   7.783   9.359  0.2560  0.0094 -0.2233
  592ERGO    R3 8438  15.055   8.022   9.236  0.0475  0.0968 -0.1243
  592ERGO    R4 8439  14.994   7.835   9.019  0.1884  0.1135 -0.2039
  592ERGO    R5 8440  15.167   7.967   9.031  0.0880  0.2623 -0.1582
  592ERGO    C1 8441  15.013   8.089   8.704 -0.0465  0.2560 -0.0997
  592ERGO    C2 8442  14.947   8.033   8.455  0.0583  0.2659  0.2941
  593ERGO   ROH 8443  11.443  16.766  10.519 -0.0331  0.1804  0.0963
  593ERGO    R1 8444  11.544  16.779  10.256 -0.0269 -0.0088  0.0878
  593ERGO    R2 8445  11.511  16.574  10.073 -0.2895 -0.0144  0.1388
  593ERGO    R3 8446  11.407  16.772   9.919 -0.0517  0.0807  0.0957
  593ERGO    R4 8447  11.539  16.594   9.729 -0.1843 -0.0728  0.1434
  593ERGO    R5 8448  11.570  16.808   9.748  0.0291 -0.0998  0.1319
  593ERGO    C1 8449  11.457  16.791   9.384  0.1002 -0.0172  0.1056
  593ERGO    C2 8450  11.400  16.901   8.984 -0.1177  0.1580  0.0593
  594ERGO   ROH 8451  12.802   5.486   9.773  0.2564 -0.0214  0.2228
  594ERGO    R1 8452  12.896   5.335   9.552  0.1619  0.0416  0.1390
  594ERGO    R2 8453  12.731   5.258   9.344  0.0641  0.0692  0.2076
  594ERGO    R3 8454  12.920   5.380   9.192 -0.0305  0.1272  0.1344
  594ERGO    R4 8455  12.720   5.284   9.000 -0.0369 -0.0127  0.2037
  594ERGO    R5 8456  12.935   5.244   8.995 -0.0159  0.0881  0.1604
  594ERGO    C1 8457  12.892   5.415   8.656 -0.1845 -0.0059  0.1327
  594ERGO    C2 8458  12.902   5.392   8.316 -0.0269 -0.2729  0.3655
  595ERGO   ROH 8459  15.623   2.477   6.418  0.0099 -0.2866  0.1318
  595ERGO    R1 8460  15.617   2.685   6.610  0.0465 -0.0702 -0.0953
  595ERGO    R2 8461  15.382   2.808   6.688  0.0510 -0.0350 -0.1305
  595ERGO    R3 8462  15.467   2.738   6.937  0.1759  0.2603 -0.0865
  595ERGO    R4 8463  15.196   2.845   6.977 -0.0119 -0.1764 -0.1529
  595ERGO    R5 8464  15.377   2.909   7.080 -0.1165  0.1993 -0.1910
  595ERGO    C1 8465  15.167   2.800   7.379  0.0687  0.0186 -0.1246
  595ERGO    C2 8466  15.136   2.857   7.711  0.0917 -0.1854 -0.2111
  596ERGO   ROH 8467   9.062   4.421   9.936  0.0792  0.0469  0.1083
  596ERGO    R1 8468   9.058   4.244   9.716  0.0801  0.0550  0.1014
  596ERGO    R2 8469   8.844   4.228   9.541  0.0237 -0.0302  0.1735
  596ERGO    R3 8470   9.036   4.272   9.354 -0.0586  0.0645  0.1106
  596ERGO    R4 8471   8.816   4.146   9.206 -0.0488 -0.0212  0.1773
  596ERGO    R5 8472   9.024   4.081   9.210 -0.0211  0.0701  0.1032
  596ERGO    C1 8473   8.980   4.140   8.836 -0.1683  0.0729  0.1206
  596ERGO    C2 8474   8.821   4.175   8.542 -0.1576  0.2953  0.0794
  597ERGO   ROH 8475  15.837   0.834  10.288  0.0170 -0.0347 -0.0536
  597ERGO    R1 8476  15.909   0.663  10.073  0.0457  0.0377 -0.1016
  597ERGO    R2 8477  15.721   0.537   9.915  0.0650 -0.1510  0.0269
  597ERGO    R3 8478  15.858   0.656   9.713 -0.1904 -0.0119 -0.0701
  597ERGO    R4 8479  15.698   0.450   9.581  0.0237 -0.2758  0.0614
  597ERGO    R5 8480  15.913   0.477   9.564 -0.0143  0.0169 -0.0457
  597ERGO    C1 8481  15.813   0.512   9.197 -0.2402 -0.2178 -0.0096
  597ERGO    C2 8482  15.791   0.561   8.896 -0.3873 -0.1547 -0.0551
  598ERGO   ROH 8483   6.988  15.565  10.797  0.0187 -0.1824 -0.0026
  598ERGO    R1 8484   6.874  15.639  10.549 -0.0081 -0.3517 -0.0427
  598ERGO    R2 8485   6.940  15.875  10.420 -0.3557 -0.2196  0.0091
  598ERGO    R3 8486   6.996  15.708  10.213  0.0200 -0.1098  0.0153
  598ERGO    R4 8487   6.900  15.954  10.086 -0.2994 -0.2391 -0.0020
  598ERGO    R5 8488   6.824  15.753  10.052  0.0329 -0.3587 -0.0712
  598ERGO    C1 8489   6.930  15.843   9.697  0.0861 -0.1476 -0.0026
  598ERGO    C2 8490   6.941  15.859   9.407  0.2159  0.2866  0.0229
  599ERGO   ROH 8491   8.211  11.143  10.293 -0.0857 -0.2922  0.1088
  599ERGO    R1 8492   8.261  11.029  10.039 -0.0266 -0.1036  0.0346
  599ERGO    R2 8493   8.059  10.929   9.879  0.0221 -0.0775 -0.0418
  599ERGO    R3 8494   8.165  11.099   9.695 -0.0356  0.0872  0.0747
  599ERGO    R4 8495   8.013  10.905   9.537  0.0944  0.0948 -0.0648
  599ERGO    R5 8496   8.222  10.959   9.510  0.0723  0.2232  0.0020
  599ERGO    C1 8497   8.085  11.051   9.166  0.0823  0.3498  0.0312
  599ERGO    C2 8498   8.054  10.930   8.876  0.1450 -0.0168  0.1903
  600ERGO   ROH 8499   1.402  15.613  10.485  0.2535  0.0206  0.0422
  600ERGO    R1 8500   1.283  15.588  10.229  0.1952 -0.1665  0.0862
  600ERGO    R2 8501   1.198  15.807  10.083 -0.2286 -0.2965  0.1273
  600ERGO    R3 8502   1.358  15.699   9.891 -0.1176 -0.0206  0.0601
  600ERGO    R4 8503   1.206  15.909   9.752 -0.3803 -0.1281  0.1738
  600ERGO    R5 8504   1.223  15.699   9.693 -0.1397 -0.0865  0.0734
  600ERGO    C1 8505   1.361  15.867   9.380 -0.3644  0.2289  0.1378
  600ERGO    C2 8506   1.551  16.046   9.158  0.1652  0.1292  0.1206
  601ERGO   ROH 8507  13.004   8.779   9.990  0.0354 -0.0971 -0.1276
  601ERGO    R1 8508  12.932   8.824   9.719  0.0163  0.0230 -0.1021
  601ERGO    R2 8509  13.086   8.977   9.548  0.1844 -0.1857 -0.1330
  601ERGO    R3 8510  13.077   8.755   9.393 -0.1815 -0.1639 -0.1547
  601ERGO    R4 8511  13.064   8.978   9.203  0.3748 -0.0954 -0.1470
  601ERGO    R5 8512  12.925   8.811   9.217  0.0176  0.1725 -0.2362
  601ERGO    C1 8513  13.043   8.769   8.857  0.1422 -0.0225 -0.1755
  601ERGO    C2 8514  13.082   8.637   8.562  0.2498 -0.4431  0.1367
  602ERGO   ROH 8515  16.913  15.892  10.662  0.1801 -0.0030  0.0295
  602ERGO    R1 8516  16.859  16.035  10.423  0.0023 -0.0943  0.0130
  602ERGO    R2 8517  17.057  16.111  10.248 -0.0773  0.2069  0.0456
  602ERGO    R3 8518  16.904  15.980  10.066  0.1552 -0.0447  0.0247
  602ERGO    R4 8519  17.041  16.188   9.911 -0.2779  0.2843  0.0719
  602ERGO    R5 8520  16.826  16.152   9.919 -0.2112 -0.1477  0.0908
  602ERGO    C1 8521  16.887  16.109   9.545 -0.1763  0.0933  0.0676
  602ERGO    C2 8522  16.901  16.072   9.193  0.2154  0.1152 -0.1508
  603ERGO   ROH 8523  10.454   6.275   9.799  0.1487  0.3718  0.0471
  603ERGO    R1 8524  10.427   6.156   9.544  0.1568  0.2853  0.0858
  603ERGO    R2 8525  10.313   6.288   9.330  0.2233  0.2368  0.0192
  603ERGO    R3 8526  10.547   6.222   9.207  0.2254  0.1317  0.0790
  603ERGO    R4 8527  10.359   6.274   8.987  0.2199 -0.0827  0.0292
  603ERGO    R5 8528  10.479   6.094   9.016  0.2288 -0.0523  0.1981
  603ERGO    C1 8529  10.605   6.205   8.673  0.2198 -0.3674  0.0911
  603ERGO    C2 8530  10.578   6.248   8.360 -0.1860  0.0787 -0.1368
  604ERGO   ROH 8531   0.765   3.687   9.613  0.1192 -0.2239 -0.0412
  604ERGO    R1 8532   0.913   3.693   9.372  0.0898 -0.2430 -0.0609
  604ERGO    R2 8533   0.929   3.476   9.201 -0.0664 -0.2061 -0.1313
  604ERGO    R3 8534   0.842   3.656   9.017  0.0139 -0.0951 -0.0601
  604ERGO    R4 8535   0.989   3.459   8.861  0.0857  0.0159 -0.1171
  604ERGO    R5 8536   1.021   3.673   8.860  0.0794  0.0126  0.0312
  604ERGO    C1 8537   0.943   3.618   8.491  0.2497  0.2494 -0.0419
  604ERGO    C2 8538   1.141   3.612   8.125 -0.0799 -0.1655 -0.1796
  605ERGO   ROH 8539   3.957   6.711   9.688  0.0436 -0.0257  0.0155
  605ERGO    R1 8540   4.048   6.780   9.429  0.0068  0.2037  0.0631
  605ERGO    R2 8541   4.065   6.597   9.222  0.3462  0.2967  0.0078
  605ERGO    R3 8542   3.911   6.780   9.092  0.0971  0.1061  0.0243
  605ERGO    R4 8543   3.980   6.583   8.887  0.2648  0.1414  0.0332
  605ERGO    R5 8544   4.010   6.798   8.875  0.0188  0.1819 -0.0099
  605ERGO    C1 8545   3.787   6.747   8.570 -0.0164 -0.1280  0.0638
  605ERGO    C2 8546   3.687   6.790   8.285  0.1218 -0.0978  0.0700
  606ERGO   ROH 8547  12.890  13.864  10.526  0.0357  0.0444 -0.0626
  606ERGO    R1 8548  12.871  14.043  10.308 -0.0414  0.0951 -0.0149
  606ERGO    R2 8549  13.028  14.020  10.081  0.0420  0.2829  0.0195
  606ERGO    R3 8550  12.788  14.022   9.954  0.0742  0.1337 -0.0441
  606ERGO    R4 8551  12.986  14.048   9.739  0.1160  0.0602 -0.0093
  606ERGO    R5 8552  12.816  14.180   9.776  0.0694  0.0313 -0.1341
  606ERGO    C1 8553  12.737  14.066   9.421  0.1894 -0.2097 -0.0856
  606ERGO    C2 8554  12.681  14.062   9.156  0.3732 -0.1534  0.0963
  607ERGO   ROH 8555  11.839  16.963  10.656  0.1678  0.0490 -0.0745
  607ERGO    R1 8556  11.851  17.126  10.425 -0.0865  0.0566 -0.0845
  607ERGO    R2 8557  12.029  17.078  10.219 -0.0226  0.3115 -0.0867
  607ERGO    R3 8558  11.803  17.080  10.067 -0.0345 -0.0340 -0.0812
  607ERGO    R4 8559  12.024  17.095   9.874 -0.0465  0.4181 -0.0819
  607ERGO    R5 8560  11.854  17.231   9.888 -0.2942  0.1220 -0.0326
  607ERGO    C1 8561  11.809  17.105   9.530 -0.0716  0.1557 -0.0740
  607ERGO    C2 8562  11.736  17.194   9.225  0.3070 -0.1824 -0.0742
  608ERGO   ROH 8563   5.850   7.901   9.990 -0.1537 -0.2342  0.0844
  608ERGO    R1 8564   5.769   7.875   9.720 -0.1315 -0.2669  0.0774
  608ERGO    R2 8565   5.805   8.077   9.534 -0.3924 -0.1537  0.1124
  608ERGO    R3 8566   5.932   7.882   9.394 -0.1345  0.0308  0.0884
  608ERGO    R4 8567   5.818   8.055   9.189 -0.3117 -0.1348  0.1160
  608ERGO    R5 8568   5.791   7.840   9.206 -0.0340 -0.1441  0.0782
  608ERGO    C1 8569   5.945   7.858   8.858 -0.0226  0.0493  0.0954
  608ERGO    C2 8570   6.097   7.969   8.588  0.1410 -0.1035 -0.1541
  609ERGO   ROH 8571   8.989   7.599  10.082  0.0827  0.1601  0.1473
  609ERGO    R1 8572   8.926   7.746   9.849 -0.1029  0.0774  0.1422
  609ERGO    R2 8573   9.054   7.704   9.608 -0.0006  0.2719  0.1559
  609ERGO    R3 8574   8.800   7.672   9.515  0.0528 -0.1048  0.1231
  609ERGO    R4 8575   8.960   7.730   9.276 -0.0596  0.5297  0.1916
  609ERGO    R5 8576   8.780   7.836   9.341 -0.2702  0.0941  0.3389
  609ERGO    C1 8577   8.667   7.717   8.996 -0.0438  0.3262  0.1818
  609ERGO    C2 8578   8.788   7.587   8.619  0.0174 -0.2935  0.1451
  610ERGO   ROH 8579   8.561   2.073  10.110 -0.1342 -0.0409  0.0132
  610ERGO    R1 8580   8.565   1.950   9.855 -0.1301 -0.0056 -0.0036
  610ERGO    R2 8581   8.349   1.812   9.753 -0.1509  0.0659 -0.0538
  610ERGO    R3 8582   8.381   1.981   9.543 -0.0771  0.0868 -0.0264
  610ERGO    R4 8583   8.275   1.735   9.424 -0.2804  0.1832 -0.0533
  610ERGO    R5 8584   8.456   1.841   9.364 -0.2166  0.0675 -0.0720
  610ERGO    C1 8585   8.262   1.849   9.035 -0.2866  0.2712 -0.0273
  610ERGO    C2 8586   8.134   1.882   8.752  0.1719  0.0226 -0.1968
  611ERGO   ROH 8587   0.154   2.547  10.123  0.3405  0.1963 -0.0658
  611ERGO    R1 8588  -0.021   2.445   9.925  0.1996  0.1740  0.0692
  611ERGO    R2 8589  -0.141   2.607   9.736  0.3193  0.1101 -0.0555
  611ERGO    R3 8590  -0.028   2.432   9.561  0.1080 -0.1700  0.0788
  611ERGO    R4 8591  -0.211   2.592   9.397  0.3341 -0.0237 -0.0540
  611ERGO    R5 8592  -0.205   2.375   9.411  0.0385 -0.0334  0.0997
  611ERGO    C1 8593  -0.145   2.419   9.037  0.1441 -0.3644  0.0730
  611ERGO    C2 8594  -0.051   2.427   8.707 -0.2472  0.1920  0.2144
  612ERGO   ROH 8595  15.379   7.142   9.805 -0.0517  0.1305 -0.0470
  612ERGO    R1 8596  15.369   6.986   9.569 -0.1582  0.0304  0.0205
  612ERGO    R2 8597  15.136   6.950   9.425 -0.1406  0.3526 -0.1167
  612ERGO    R3 8598  15.287   7.043   9.219  0.1616  0.0113 -0.0577
  612ERGO    R4 8599  15.083   6.878   9.091 -0.2150  0.5518 -0.1478
  612ERGO    R5 8600  15.298   6.861   9.065 -0.2486  0.0129 -0.0866
  612ERGO    C1 8601  15.193   6.924   8.703  0.0253  0.3474 -0.1105
  612ERGO    C2 8602  15.153   7.010   8.390 -0.0838 -0.2812  0.0840
  613ERGO   ROH 8603  15.738   5.688   9.852  0.3583 -0.4230 -0.0303
  613ERGO    R1 8604  15.664   5.747   9.585  0.0009 -0.2949  0.0902
  613ERGO    R2 8605  15.849   5.817   9.392 -0.2826  0.0926 -0.0603
  613ERGO    R3 8606  15.735   5.612   9.255 -0.1743  0.0572 -0.0954
  613ERGO    R4 8607  15.897   5.753   9.056  0.0394 -0.0545  0.0110
  613ERGO    R5 8608  15.685   5.704   9.040  0.0532 -0.0279 -0.1821
  613ERGO    C1 8609  15.819   5.523   8.732  0.3287 -0.1733  0.0195
  613ERGO    C2 8610  15.824   5.368   8.421 -0.0893  0.0259  0.3494
  614ERGO   ROH 8611  13.513   9.032   9.867 -0.1102 -0.1336 -0.0376
  614ERGO    R1 8612  13.486   9.014   9.586 -0.0652 -0.0935 -0.0453
  614ERGO    R2 8613  13.465   9.237   9.424 -0.2005 -0.0701 -0.0033
  614ERGO    R3 8614  13.675   9.123   9.294 -0.1042  0.0999  0.0020
  614ERGO    R4 8615  13.541   9.285   9.090 -0.1801  0.0450  0.0178
  614ERGO    R5 8616  13.591   9.073   9.076 -0.0341  0.0851 -0.0182
  614ERGO    C1 8617  13.783   9.205   8.774 -0.0779  0.2716  0.0350
  614ERGO    C2 8618  13.833   9.197   8.391  0.0573 -0.1174 -0.1928
  615ERGO   ROH 8619  12.346  14.789  10.434  0.2292 -0.1974 -0.1815
  615ERGO    R1 8620  12.163  14.686  10.244  0.0646 -0.0719 -0.0934
  615ERGO    R2 8621  12.069  14.835  10.032  0.1996 -0.0596 -0.1421
  615ERGO    R3 8622  12.161  14.626   9.885 -0.0825 -0.2427 -0.0664
  615ERGO    R4 8623  11.999  14.782   9.697  0.3719  0.0957 -0.2048
  615ERGO    R5 8624  11.978  14.570   9.740 -0.0834  0.1220 -0.2226
  615ERGO    C1 8625  12.044  14.555   9.365  0.2073  0.0144 -0.1702
  615ERGO    C2 8626  12.008  14.710   9.139 -0.1044 -0.2927  0.1150
  616ERGO   ROH 8627   1.208   0.091  10.120  0.1410 -0.1114 -0.0332
  616ERGO    R1 8628   1.090   0.150   9.869  0.1400 -0.1101 -0.0315
  616ERGO    R2 8629   1.236   0.253   9.657  0.1488 -0.1676 -0.0468
  616ERGO    R3 8630   1.131   0.039   9.525  0.0902 -0.1537 -0.0252
  616ERGO    R4 8631   1.199   0.230   9.314 -0.3120  0.0223 -0.0179
  616ERGO    R5 8632   1.006   0.135   9.345 -0.2213 -0.1122  0.2003
  616ERGO    C1 8633   1.080   0.017   8.990 -0.6352  0.1459  0.0194
  616ERGO    C2 8634   1.059   0.118   8.670  0.4177 -0.2090  0.1048
  617ERGO   ROH 8635  15.953  10.988  10.238  0.0342 -0.1327  0.1568
  617ERGO    R1 8636  16.054  11.076   9.988 -0.0257  0.0070  0.1811
  617ERGO    R2 8637  16.157  10.902   9.800  0.1046  0.1312  0.1389
  617ERGO    R3 8638  15.975  11.023   9.637  0.0198  0.0415  0.1648
  617ERGO    R4 8639  16.183  10.923   9.456  0.0654  0.1713  0.1378
  617ERGO    R5 8640  16.109  11.127   9.467 -0.0512  0.1310  0.1607
  617ERGO    C1 8641  16.029  11.048   9.103 -0.0369  0.1105  0.1616
  617ERGO    C2 8642  16.191  11.104   8.792  0.1392  0.1793 -0.0640
  618ERGO   ROH 8643  15.012   4.466   9.711  0.0181  0.0813  0.1311
  618ERGO    R1 8644  14.900   4.477   9.451  0.0332  0.0003  0.1213
  618ERGO    R2 8645  15.054   4.510   9.224  0.0472 -0.0954  0.1194
  618ERGO    R3 8646  14.926   4.284   9.144  0.0294 -0.1107  0.1890
  618ERGO    R4 8647  14.960   4.443   8.899 -0.0687 -0.1264  0.1588
  618ERGO    R5 8648  14.773   4.360   8.976 -0.0383 -0.1308  0.2380
  618ERGO    C1 8649  14.784   4.191   8.634 -0.1531 -0.1589  0.2473
  618ERGO    C2 8650  14.848   3.982   8.321 -0.1931 -0.2548  0.2710
  619ERGO   ROH 8651  16.165   5.426   9.872  0.0273 -0.0772  0.0645
  619ERGO    R1 8652  16.073   5.421   9.604 -0.0639 -0.1827  0.0966
  619ERGO    R2 8653  16.213   5.538   9.396 -0.2780 -0.0004  0.0473
  619ERGO    R3 8654  16.192   5.290   9.286 -0.0118 -0.0288  0.0527
  619ERGO    R4 8655  16.221   5.469   9.057 -0.1732 -0.0125  0.0517
  619ERGO    R5 8656  16.063   5.323   9.088 -0.0249 -0.1732  0.0391
  619ERGO    C1 8657  16.205   5.197   8.757  0.1377 -0.0462  0.0594
  619ERGO    C2 8658  16.195   4.941   8.511 -0.1380  0.2898 -0.2309
  620ERGO   ROH 8659   0.166  15.607  10.553  0.1410 -0.1655 -0.0379
  620ERGO    R1 8660   0.137  15.647  10.274  0.1212 -0.0486 -0.0199
  620ERGO    R2 8661   0.254  15.480  10.087  0.0022 -0.0465 -0.0980
  620ERGO    R3 8662  -0.000  15.460   9.994 -0.0236  0.1274 -0.0685
  620ERGO    R4 8663   0.169  15.421   9.758 -0.0639 -0.3587 -0.0278
  620ERGO    R5 8664   0.007  15.565   9.779  0.0979 -0.1437 -0.2020
  620ERGO    C1 8665  -0.120  15.367   9.478 -0.1266 -0.3773  0.0408
  620ERGO    C2 8666  -0.262  15.403   9.279  0.1317 -0.0033  0.2372
  621ERGO   ROH 8667   0.371  13.440  10.309  0.3607  0.2832  0.0317
  621ERGO    R1 8668   0.205  13.405  10.082  0.2253  0.2978  0.1276
  621ERGO    R2 8669   0.112  13.618   9.931  0.1786  0.3050  0.1651
  621ERGO    R3 8670   0.225  13.480   9.726  0.0380  0.2694  0.1108
  621ERGO    R4 8671   0.046  13.672   9.596  0.1483  0.4231  0.1893
  621ERGO    R5 8672   0.048  13.456   9.566 -0.0109  0.4286  0.1412
  621ERGO    C1 8673   0.113  13.573   9.209 -0.0014  0.4586  0.1527
  621ERGO    C2 8674   0.172  13.750   8.896  0.0684  0.1970  0.0978
  622ERGO   ROH 8675  15.705  13.330  10.424  0.0601 -0.1403 -0.0733
  622ERGO    R1 8676  15.852  13.249  10.196 -0.0216 -0.0747 -0.1498
  622ERGO    R2 8677  15.791  13.022  10.052  0.0412 -0.1338 -0.0823
  622ERGO    R3 8678  15.783  13.195   9.842 -0.1952 -0.1664 -0.1034
  622ERGO    R4 8679  15.856  12.936   9.723  0.1317 -0.0937 -0.0750
  622ERGO    R5 8680  15.964  13.125   9.701 -0.1102  0.0467 -0.1050
  622ERGO    C1 8681  15.887  13.049   9.335 -0.0377 -0.1008 -0.0907
  622ERGO    C2 8682  16.111  13.058   8.958 -0.4355  0.0250  0.1425
  623ERGO   ROH 8683  15.565   1.143  10.088  0.1164 -0.0842  0.0528
  623ERGO    R1 8684  15.670   1.048   9.843  0.0559 -0.1517  0.0543
  623ERGO    R2 8685  15.513   0.919   9.655 -0.0522  0.0597  0.0045
  623ERGO    R3 8686  15.612   1.111   9.489  0.1917 -0.0187  0.0533
  623ERGO    R4 8687  15.549   0.886   9.313 -0.3817  0.1942 -0.0478
  623ERGO    R5 8688  15.740   0.989   9.327 -0.1588 -0.1757 -0.1227
  623ERGO    C1 8689  15.663   1.046   8.958 -0.3446  0.1989 -0.0325
  623ERGO    C2 8690  15.660   0.927   8.570 -0.0547  0.1109 -0.0031
  624ERGO   ROH 8691   0.856   1.262  10.024 -0.1667 -0.4185  0.0001
  624ERGO    R1 8692   0.939   1.314   9.759 -0.3612 -0.2176 -0.0248
  624ERGO    R2 8693   1.176   1.216   9.655 -0.1235  0.3720 -0.0790
  624ERGO    R3 8694   1.013   1.117   9.461  0.0676 -0.0588 -0.0311
  624ERGO    R4 8695   1.254   1.204   9.319 -0.1425  0.4844 -0.0870
  624ERGO    R5 8696   1.049   1.263   9.274 -0.3000 -0.0048 -0.0692
  624ERGO    C1 8697   1.147   1.105   8.941  0.0259  0.1455 -0.0467
  624ERGO    C2 8698   1.170   0.989   8.516 -0.1271  0.0480  0.0202
  625ERGO   ROH 8699  17.247  14.696  10.412  0.0787 -0.1203  0.0103
  625ERGO    R1 8700  17.327  14.571  10.172 -0.0536 -0.1050 -0.0423
  625ERGO    R2 8701  17.153  14.526   9.962 -0.0871  0.2290 -0.0884
  625ERGO    R3 8702  17.342  14.659   9.819  0.1089  0.0559  0.0030
  625ERGO    R4 8703  17.206  14.490   9.622 -0.1431  0.3804 -0.1142
  625ERGO    R5 8704  17.421  14.499   9.660 -0.1240  0.0445 -0.1059
  625ERGO    C1 8705  17.414  14.595   9.290  0.0082  0.3059 -0.0434
  625ERGO    C2 8706  17.312  14.540   8.963  0.2053  0.0837  0.1002
  626ERGO   ROH 8707   2.203   0.663  10.325  0.0514 -0.1158 -0.0999
  626ERGO    R1 8708   2.120   0.646  10.054 -0.0493  0.1499 -0.0887
  626ERGO    R2 8709   2.206   0.823   9.860  0.1392  0.1430 -0.0076
  626ERGO    R3 8710   2.280   0.595   9.732 -0.2074  0.1111 -0.1636
  626ERGO    R4 8711   2.247   0.793   9.518  0.1821  0.3509 -0.0226
  626ERGO    R5 8712   2.153   0.597   9.529 -0.1566  0.4897 -0.2034
  626ERGO    C1 8713   2.340   0.562   9.199 -0.1183  0.4419 -0.1776
  626ERGO    C2 8714   2.334   0.426   8.910  0.0961 -0.0226  0.0881
  627ERGO   ROH 8715  11.111  14.858  10.165  0.0652  0.0533  0.0838
  627ERGO    R1 8716  11.016  14.935   9.910  0.1313  0.1062  0.0745
  627ERGO    R2 8717  11.174  15.068   9.726  0.2706 -0.1107  0.0327
  627ERGO    R3 8718  11.102  14.863   9.563  0.0247 -0.0672  0.0829
  627ERGO    R4 8719  11.160  15.085   9.381  0.0652 -0.1081  0.0402
  627ERGO    R5 8720  10.977  14.967   9.388 -0.0154  0.0171  0.1594
  627ERGO    C1 8721  11.084  14.902   9.028 -0.2853 -0.0657  0.0918
  627ERGO    C2 8722  11.153  14.892   8.708  0.1240  0.0585  0.0675
  628ERGO   ROH 8723   8.749   6.126   9.752  0.0480 -0.3088 -0.0817
  628ERGO    R1 8724   8.853   6.033   9.506  0.1044 -0.2159 -0.0930
  628ERGO    R2 8725   8.698   6.010   9.278  0.1193 -0.2807 -0.0936
  628ERGO    R3 8726   8.892   6.165   9.169  0.0267 -0.1512 -0.0780
  628ERGO    R4 8727   8.785   6.010   8.944  0.0290 -0.1043 -0.1184
  628ERGO    R5 8728   8.994   6.025   9.003  0.0421 -0.0422 -0.1658
  628ERGO    C1 8729   9.019   6.156   8.646 -0.1105  0.1200 -0.1184
  628ERGO    C2 8730   9.012   6.199   8.330 -0.3058  0.0909  0.0679
  629ERGO   ROH 8731  10.681  13.964  10.459 -0.1824  0.1246 -0.1932
  629ERGO    R1 8732  10.846  13.958  10.229 -0.1614  0.0804 -0.1774
  629ERGO    R2 8733  10.787  13.804  10.007 -0.1953  0.1166 -0.1946
  629ERGO    R3 8734  10.811  14.042   9.876 -0.0968  0.1173 -0.1751
  629ERGO    R4 8735  10.820  13.840   9.664 -0.1046  0.1273 -0.1847
  629ERGO    R5 8736  10.966  13.997   9.700 -0.0680  0.0834 -0.1411
  629ERGO    C1 8737  10.862  14.083   9.343  0.0407  0.1340 -0.1606
  629ERGO    C2 8738  10.860  14.041   8.997  0.0962 -0.1126 -0.0011
  630ERGO   ROH 8739  13.569  12.113  10.127  0.3608  0.0971 -0.2099
  630ERGO    R1 8740  13.633  12.052   9.858  0.0951 -0.0876 -0.2352
  630ERGO    R2 8741  13.454  11.929   9.686 -0.2277  0.1701 -0.0948
  630ERGO    R3 8742  13.507  12.145   9.529  0.0506  0.0439 -0.1815
  630ERGO    R4 8743  13.462  11.925   9.341 -0.3662  0.0508 -0.0975
  630ERGO    R5 8744  13.635  12.056   9.348 -0.1540 -0.2153 -0.2057
  630ERGO    C1 8745  13.516  12.124   8.992 -0.1855 -0.1371 -0.1805
  630ERGO    C2 8746  13.515  12.258   8.675 -0.1336  0.1554 -0.0433
  631ERGO   ROH 8747   2.867   5.895   9.855  0.1032 -0.1841  0.0418
  631ERGO    R1 8748   2.912   5.968   9.585 -0.0370 -0.0216  0.0613
  631ERGO    R2 8749   3.063   5.813   9.413 -0.0619  0.1247 -0.0849
  631ERGO    R3 8750   2.840   5.825   9.258 -0.1292  0.1359  0.0100
  631ERGO    R4 8751   3.061   5.802   9.067 -0.2077  0.0149 -0.0825
  631ERGO    R5 8752   2.906   5.955   9.068 -0.1704  0.0619 -0.0616
  631ERGO    C1 8753   2.850   5.808   8.721 -0.3558 -0.0385  0.0080
  631ERGO    C2 8754   2.719   5.971   8.380 -0.0208 -0.1771 -0.2176
  632ERGO   ROH 8755  12.151   1.211  10.355  0.0639 -0.1495 -0.0578
  632ERGO    R1 8756  12.113   1.322  10.098  0.1885  0.0147 -0.0080
  632ERGO    R2 8757  12.303   1.306   9.899  0.1738 -0.1108 -0.0145
  632ERGO    R3 8758  12.100   1.198   9.756  0.0477  0.1846 -0.0654
  632ERGO    R4 8759  12.303   1.267   9.556  0.1894 -0.0798 -0.0177
  632ERGO    R5 8760  12.094   1.328   9.554  0.2698  0.2140 -0.0556
  632ERGO    C1 8761  12.112   1.143   9.221  0.0801  0.2154 -0.0675
  632ERGO    C2 8762  12.195   0.978   8.862  0.3150 -0.0919  0.0679
  633ERGO   ROH 8763   3.984   3.982   6.014 -0.0853 -0.3715 -0.2113
  633ERGO    R1 8764   3.938   4.026   6.290 -0.0764 -0.1128 -0.2485
  633ERGO    R2 8765   3.689   3.998   6.406 -0.0363 -0.1925 -0.1807
  633ERGO    R3 8766   3.821   3.829   6.573  0.1284  0.0918 -0.0175
  633ERGO    R4 8767   3.600   3.938   6.734 -0.0524 -0.0654 -0.1610
  633ERGO    R5 8768   3.812   3.939   6.786 -0.0679  0.2369 -0.0986
  633ERGO    C1 8769   3.672   3.745   7.083  0.0929  0.2755  0.0037
  633ERGO    C2 8770   3.568   3.522   7.213 -0.0136  0.1833  0.2854
  634ERGO   ROH 8771  14.711  13.417  10.302  0.1161 -0.0662 -0.0344
  634ERGO    R1 8772  14.850  13.352  10.064  0.0580 -0.1856 -0.0360
  634ERGO    R2 8773  14.761  13.159   9.889 -0.1633 -0.0425 -0.0830
  634ERGO    R3 8774  14.781  13.360   9.707  0.0967 -0.0269 -0.0410
  634ERGO    R4 8775  14.876  13.123   9.565 -0.2810 -0.1456 -0.1144
  634ERGO    R5 8776  14.982  13.312   9.586  0.0064 -0.3002 -0.0923
  634ERGO    C1 8777  14.961  13.291   9.206 -0.1054 -0.1908 -0.0933
  634ERGO    C2 8778  15.054  13.311   8.883  0.2956  0.0235  0.1571
  635ERGO   ROH 8779  12.821  10.935   9.968 -0.1199 -0.1726 -0.0238
  635ERGO    R1 8780  12.755  10.983   9.696 -0.0393 -0.0937 -0.0302
  635ERGO    R2 8781  12.833  11.211   9.562  0.0230 -0.0651  0.0513
  635ERGO    R3 8782  12.937  11.033   9.385  0.0537 -0.0306  0.0345
  635ERGO    R4 8783  12.897  11.278   9.229 -0.0160 -0.0371  0.0493
  635ERGO    R5 8784  12.823  11.079   9.180  0.0297 -0.0507  0.0453
  635ERGO    C1 8785  13.033  11.149   8.869 -0.0099  0.0116  0.0323
  635ERGO    C2 8786  13.057  11.466   8.679 -0.0570 -0.1790 -0.1486
  636ERGO   ROH 8787  17.626   6.584   9.786 -0.0837 -0.1012 -0.0615
  636ERGO    R1 8788  17.621   6.564   9.503  0.0371  0.0031 -0.0708
  636ERGO    R2 8789  17.498   6.753   9.343  0.0621  0.0339 -0.0495
  636ERGO    R3 8790  17.742   6.763   9.223  0.1085  0.1339  0.0505
  636ERGO    R4 8791  17.563   6.899   9.036  0.1157  0.0235 -0.0438
  636ERGO    R5 8792  17.696   6.733   8.990  0.2164  0.0785  0.0334
  636ERGO    C1 8793  17.829   6.993   8.746  0.1907  0.1114  0.0534
  636ERGO    C2 8794  17.883   7.076   8.426  0.0764  0.0875 -0.1835
  637ERGO   ROH 8795  14.075  11.044   6.408  0.0962  0.1055 -0.0846
  637ERGO    R1 8796  14.099  10.885   6.642  0.2072  0.0961 -0.1024
  637ERGO    R2 8797  14.343  10.830   6.760  0.2438  0.2761 -0.0942
  637ERGO    R3 8798  14.222  10.932   6.981  0.1488  0.1531 -0.0885
  637ERGO    R4 8799  14.430  10.753   7.085  0.1695  0.1693 -0.0989
  637ERGO    R5 8800  14.218  10.749   7.135  0.1546  0.0886 -0.1631
  637ERGO    C1 8801  14.367  10.803   7.482  0.0371 -0.0083 -0.0964
  637ERGO    C2 8802  14.211  10.791   7.733 -0.1821 -0.2688 -0.0069
  638ERGO   ROH 8803  17.297   0.398   6.593  0.0200  0.2462 -0.0115
  638ERGO    R1 8804  17.171   0.448   6.841 -0.0216  0.1872 -0.0203
  638ERGO    R2 8805  17.213   0.291   7.064 -0.1750  0.0408 -0.0882
  638ERGO    R3 8806  17.275   0.529   7.180 -0.0677 -0.0546  0.0522
  638ERGO    R4 8807  17.074   0.408   7.358 -0.3382  0.0673 -0.1749
  638ERGO    R5 8808  17.066   0.607   7.268 -0.0767  0.1045 -0.1127
  638ERGO    C1 8809  17.051   0.699   7.638 -0.3324 -0.0068 -0.0936
  638ERGO    C2 8810  17.055   0.925   7.892 -0.1718  0.3819 -0.1739
  639ERGO   ROH 8811  11.383   3.759   9.830 -0.1246  0.0332  0.1219
  639ERGO    R1 8812  11.331   3.679   9.564 -0.0713  0.0246  0.1134
  639ERGO    R2 8813  11.174   3.828   9.392 -0.0684  0.0020  0.0865
  639ERGO    R3 8814  11.392   3.814   9.231 -0.0391  0.0347  0.1242
  639ERGO    R4 8815  11.167   3.847   9.047 -0.0157 -0.0729  0.0816
  639ERGO    R5 8816  11.318   3.690   9.040  0.0316 -0.0267  0.1384
  639ERGO    C1 8817  11.368   3.845   8.695  0.0425 -0.0858  0.1140
  639ERGO    C2 8818  11.618   3.960   8.430  0.1967  0.2751  0.2612
  640ERGO   ROH 8819  16.741   8.844   9.986 -0.0335  0.0129 -0.0644
  640ERGO    R1 8820  16.645   8.968   9.749 -0.0209 -0.0358 -0.0958
  640ERGO    R2 8821  16.803   9.134   9.594 -0.0195 -0.0455 -0.1088
  640ERGO    R3 8822  16.730   8.962   9.396  0.0181 -0.0879 -0.0852
  640ERGO    R4 8823  16.776   9.218   9.260  0.0519 -0.1235 -0.1341
  640ERGO    R5 8824  16.596   9.095   9.248  0.0530 -0.1203 -0.1440
  640ERGO    C1 8825  16.691   9.106   8.879  0.1288 -0.2089 -0.1268
  640ERGO    C2 8826  16.795   9.074   8.604 -0.1982  0.0368  0.1252
  641ERGO   ROH 8827  17.702   4.040   9.654 -0.0005  0.0467 -0.0045
  641ERGO    R1 8828  17.774   3.923   9.407 -0.1567 -0.0804  0.0097
  641ERGO    R2 8829  17.589   3.859   9.212 -0.2298  0.2944 -0.0464
  641ERGO    R3 8830  17.750   4.011   9.054  0.1177 -0.0047  0.0071
  641ERGO    R4 8831  17.573   3.872   8.867 -0.1952  0.4411 -0.0441
  641ERGO    R5 8832  17.791   3.875   8.862 -0.1781 -0.0399 -0.0355
  641ERGO    C1 8833  17.715   4.022   8.518  0.1513  0.2457  0.0077
  641ERGO    C2 8834  17.848   4.090   8.238 -0.0293 -0.2514  0.3978
  642ERGO   ROH 8835   0.420   8.324  10.000 -0.1749 -0.3524 -0.0806
  642ERGO    R1 8836   0.360   8.234   9.738 -0.0650 -0.1338 -0.1846
  642ERGO    R2 8837   0.175   8.359   9.576 -0.1095 -0.0842 -0.1029
  642ERGO    R3 8838   0.383   8.368   9.401 -0.0734  0.2146 -0.0495
  642ERGO    R4 8839   0.143   8.360   9.232 -0.0125 -0.2248 -0.1125
  642ERGO    R5 8840   0.315   8.226   9.221  0.2135  0.0553 -0.0332
  642ERGO    C1 8841   0.320   8.368   8.867  0.0779 -0.0262 -0.0680
  642ERGO    C2 8842   0.230   8.389   8.545  0.1802 -0.2680 -0.1220
  643ERGO   ROH 8843   9.086  14.811  10.321 -0.1674  0.1219 -0.1123
  643ERGO    R1 8844   9.174  14.894  10.065 -0.0101  0.0232 -0.0922
  643ERGO    R2 8845   9.249  14.715   9.869 -0.1875 -0.0686 -0.0843
  643ERGO    R3 8846   9.065  14.849   9.721  0.0032  0.1662 -0.1142
  643ERGO    R4 8847   9.291  14.807   9.538  0.0079 -0.0309 -0.0502
  643ERGO    R5 8848   9.195  14.997   9.584  0.2004  0.0592 -0.0395
  643ERGO    C1 8849   9.142  14.986   9.207  0.3006  0.2114 -0.0584
  643ERGO    C2 8850   9.240  14.949   8.745  0.0283  0.1892 -0.1209
  644ERGO   ROH 8851   0.990   6.402   9.780  0.0096 -0.0151 -0.0053
  644ERGO    R1 8852   0.943   6.530   9.532 -0.0041  0.0282  0.0196
  644ERGO    R2 8853   1.139   6.672   9.398  0.0131 -0.0231 -0.0092
  644ERGO    R3 8854   1.073   6.505   9.193 -0.0897  0.0218 -0.0133
  644ERGO    R4 8855   1.160   6.753   9.063  0.0085 -0.0065 -0.0053
  644ERGO    R5 8856   0.972   6.648   9.030 -0.0448  0.0821  0.0106
  644ERGO    C1 8857   1.111   6.644   8.675 -0.0907  0.0453 -0.0070
  644ERGO    C2 8858   1.071   6.589   8.306  0.2821  0.1649 -0.0307
  645ERGO   ROH 8859   5.893   2.530  10.049 -0.1531  0.0810  0.0300
  645ERGO    R1 8860   5.986   2.651   9.811 -0.0113 -0.0005  0.0432
  645ERGO    R2 8861   6.108   2.507   9.609 -0.1399 -0.1153  0.0458
  645ERGO    R3 8862   5.916   2.622   9.455 -0.0133  0.0877  0.0363
  645ERGO    R4 8863   6.095   2.490   9.264 -0.0807 -0.0065  0.0381
  645ERGO    R5 8864   6.034   2.699   9.261  0.0921  0.0464  0.0834
  645ERGO    C1 8865   5.908   2.589   8.919  0.0726  0.2475  0.0246
  645ERGO    C2 8866   5.886   2.634   8.568 -0.1986 -0.0494  0.2020
  646ERGO   ROH 8867  10.931   6.339   9.762  0.0989  0.1867 -0.1098
  646ERGO    R1 8868  10.869   6.377   9.489  0.0076 -0.0723 -0.1269
  646ERGO    R2 8869  11.010   6.550   9.327 -0.2504  0.0187 -0.2548
  646ERGO    R3 8870  11.038   6.330   9.170  0.0280 -0.0457 -0.1213
  646ERGO    R4 8871  11.023   6.555   8.981 -0.1950 -0.1620 -0.2563
  646ERGO    R5 8872  10.900   6.375   8.979  0.0059 -0.3096 -0.1746
  646ERGO    C1 8873  11.058   6.350   8.633  0.0986 -0.3277 -0.1317
  646ERGO    C2 8874  11.174   6.205   8.272  0.0108 -0.1452 -0.0033
  647ERGO   ROH 8875  16.086   3.184  10.147 -0.3431 -0.1297 -0.1587
  647ERGO    R1 8876  16.169   3.010   9.940 -0.1071  0.0139 -0.1871
  647ERGO    R2 8877  15.992   2.853   9.797  0.0992 -0.1685 -0.2421
  647ERGO    R3 8878  16.106   2.976   9.583 -0.0199  0.0148 -0.2035
  647ERGO    R4 8879  15.959   2.750   9.469  0.1450 -0.0603 -0.2816
  647ERGO    R5 8880  16.170   2.796   9.438  0.1088  0.1219 -0.2853
  647ERGO    C1 8881  16.048   2.805   9.077  0.0598  0.1749 -0.2682
  647ERGO    C2 8882  15.992   2.646   8.784  0.0195  0.0707 -0.3457
  648ERGO   ROH 8883   5.093   5.401  10.002  0.2351 -0.2477  0.0317
  648ERGO    R1 8884   5.065   5.514   9.744  0.0935 -0.2298  0.0547
  648ERGO    R2 8885   5.281   5.563   9.579  0.0142 -0.0994 -0.0086
  648ERGO    R3 8886   5.139   5.414   9.402  0.0332 -0.1493  0.0174
  648ERGO    R4 8887   5.293   5.600   9.235 -0.1614 -0.0021 -0.0057
  648ERGO    R5 8888   5.077   5.569   9.230 -0.1461 -0.1434  0.0834
  648ERGO    C1 8889   5.165   5.481   8.869 -0.2459  0.0078  0.0204
  648ERGO    C2 8890   5.112   5.459   8.501  0.0539  0.1665  0.0333
  649ERGO   ROH 8891   0.964  14.583  10.444  0.3083  0.2250  0.1604
  649ERGO    R1 8892   0.940  14.707  10.191  0.1410  0.1845  0.1560
  649ERGO    R2 8893   1.159  14.796  10.047  0.0439  0.1774  0.0063
  649ERGO    R3 8894   1.053  14.639   9.852 -0.0672  0.1422  0.0928
  649ERGO    R4 8895   1.224  14.831   9.710  0.1182 -0.0867 -0.0093
  649ERGO    R5 8896   1.013  14.790   9.670  0.0838  0.0671 -0.0073
  649ERGO    C1 8897   1.162  14.704   9.329  0.0572 -0.2736  0.0631
  649ERGO    C2 8898   1.080  14.640   8.947  0.0327  0.2500 -0.1904
  650ERGO   ROH 8899   2.907   6.553   9.872 -0.1514  0.0370  0.0606
  650ERGO    R1 8900   2.960   6.576   9.594 -0.2192  0.0264  0.0456
  650ERGO    R2 8901   3.116   6.394   9.456 -0.0399  0.1535  0.0639
  650ERGO    R3 8902   2.897   6.379   9.296 -0.0558 -0.1194  0.1081
  650ERGO    R4 8903   3.123   6.370   9.111 -0.0930  0.3321  0.0503
  650ERGO    R5 8904   2.955   6.507   9.103 -0.3126  0.0654  0.1556
  650ERGO    C1 8905   2.922   6.343   8.760 -0.1390  0.1800  0.0837
  650ERGO    C2 8906   2.832   6.485   8.449  0.1341 -0.1836 -0.1294
  651ERGO   ROH 8907  12.418   4.510   9.914 -0.1032  0.0049  0.0164
  651ERGO    R1 8908  12.463   4.368   9.674 -0.2553 -0.0648  0.0286
  651ERGO    R2 8909  12.270   4.344   9.477 -0.2426  0.2297 -0.0217
  651ERGO    R3 8910  12.467   4.444   9.318 -0.0429 -0.0678  0.0283
  651ERGO    R4 8911  12.296   4.289   9.136 -0.3460  0.3281 -0.0462
  651ERGO    R5 8912  12.512   4.269   9.161 -0.3745 -0.0933 -0.0494
  651ERGO    C1 8913  12.496   4.352   8.789 -0.2190  0.1060 -0.0134
  651ERGO    C2 8914  12.616   4.272   8.557 -0.3068 -0.2921 -0.2856
  652ERGO   ROH 8915  15.014   2.535   9.881  0.0444  0.0595  0.0465
  652ERGO    R1 8916  15.082   2.439   9.624 -0.2137 -0.0892  0.0299
  652ERGO    R2 8917  14.903   2.437   9.413 -0.2799  0.2720  0.0757
  652ERGO    R3 8918  15.099   2.576   9.287 -0.0202 -0.1251  0.0242
  652ERGO    R4 8919  14.948   2.448   9.071 -0.4178  0.2693  0.0567
  652ERGO    R5 8920  15.163   2.436   9.104 -0.4192 -0.2222 -0.0489
  652ERGO    C1 8921  15.159   2.584   8.753 -0.2541 -0.1050 -0.0027
  652ERGO    C2 8922  15.053   2.713   8.438  0.0243  0.1703  0.1919
  653ERGO   ROH 8923   5.602   0.062  10.610 -0.2044 -0.1177 -0.0208
  653ERGO    R1 8924   5.425   0.032  10.391 -0.0867 -0.0366 -0.1294
  653ERGO    R2 8925   5.419   0.209  10.179  0.0912 -0.0064 -0.1147
  653ERGO    R3 8926   5.455  -0.017  10.032  0.1106 -0.0004 -0.1179
  653ERGO    R4 8927   5.395   0.191   9.835 -0.3930 -0.1061 -0.0822
  653ERGO    R5 8928   5.293  -0.001   9.857 -0.1653 -0.2065  0.1106
  653ERGO    C1 8929   5.415  -0.032   9.496 -0.6569 -0.1584 -0.0662
  653ERGO    C2 8930   5.494  -0.132   9.202  0.0865 -0.1371 -0.0252
  654ERGO   ROH 8931   7.249   5.905   9.815 -0.0403  0.3236  0.0466
  654ERGO    R1 8932   7.205   5.790   9.560  0.0916  0.1421  0.1036
  654ERGO    R2 8933   7.026   5.896   9.377 -0.0139 -0.1419  0.0388
  654ERGO    R3 8934   7.243   5.894   9.213 -0.0036  0.0009  0.0496
  654ERGO    R4 8935   7.027   6.002   9.048 -0.0357 -0.0038  0.0828
  654ERGO    R5 8936   7.155   5.834   8.999  0.0263  0.0591  0.0193
  654ERGO    C1 8937   7.231   6.062   8.703 -0.0388  0.2106  0.1186
  654ERGO    C2 8938   7.250   6.304   8.501  0.1292  0.0751  0.1767
  655ERGO   ROH 8939  16.056   8.185   9.607  0.1545 -0.0002  0.0500
  655ERGO    R1 8940  15.923   8.189   9.357  0.1224 -0.0297  0.0670
  655ERGO    R2 8941  15.983   8.373   9.160  0.0427 -0.0052  0.0688
  655ERGO    R3 8942  16.016   8.151   9.007  0.0889  0.0119  0.0527
  655ERGO    R4 8943  16.015   8.373   8.816 -0.1203  0.0193  0.0524
  655ERGO    R5 8944  15.889   8.196   8.809 -0.0315 -0.0507  0.1120
  655ERGO    C1 8945  16.065   8.164   8.472 -0.1720  0.0497  0.0276
  655ERGO    C2 8946  16.297   7.944   8.260  0.3139  0.2522  0.0274
  656ERGO   ROH 8947   2.466   2.083   9.917  0.2558  0.0724  0.0715
  656ERGO    R1 8948   2.430   2.146   9.644  0.2719  0.0236  0.0582
  656ERGO    R2 8949   2.611   2.299   9.501  0.3092 -0.0525  0.0266
  656ERGO    R3 8950   2.609   2.085   9.333  0.2567 -0.0861  0.0693
  656ERGO    R4 8951   2.702   2.308   9.168 -0.1351 -0.0334 -0.1014
  656ERGO    R5 8952   2.537   2.174   9.123 -0.0944 -0.1771  0.1431
  656ERGO    C1 8953   2.754   2.112   8.816 -0.4432 -0.0539 -0.1359
  656ERGO    C2 8954   2.748   2.264   8.505 -0.3013  0.3594  0.2507
  657ERGO   ROH 8955   0.372   9.703  10.289 -0.0938  0.0791 -0.0957
  657ERGO    R1 8956   0.173   9.727  10.089 -0.0950  0.0143 -0.1024
  657ERGO    R2 8957   0.173   9.931   9.902 -0.1491  0.0079 -0.1086
  657ERGO    R3 8958   0.162   9.725   9.725 -0.0841 -0.0011 -0.1029
  657ERGO    R4 8959   0.204   9.963   9.560 -0.2097  0.0161 -0.1133
  657ERGO    R5 8960   0.046   9.815   9.536 -0.1497 -0.0540 -0.0889
  657ERGO    C1 8961   0.211   9.789   9.193 -0.1840  0.0124 -0.1107
  657ERGO    C2 8962   0.295   9.819   8.867 -0.3681  0.2308  0.1831
  658ERGO   ROH 8963   3.686  12.300  10.124  0.0791  0.2463 -0.0954
  658ERGO    R1 8964   3.755  12.373   9.859  0.0373  0.1425 -0.1356
  658ERGO    R2 8965   3.948  12.240   9.713 -0.0261  0.0500 -0.1343
  658ERGO    R3 8966   3.748  12.216   9.531 -0.0710  0.0348 -0.0829
  658ERGO    R4 8967   3.992  12.234   9.370 -0.1323  0.3290 -0.1550
  658ERGO    R5 8968   3.814  12.358   9.350 -0.2329  0.2162 -0.0049
  658ERGO    C1 8969   3.829  12.208   9.000 -0.2364  0.4772 -0.1188
  658ERGO    C2 8970   3.622  12.262   8.673  0.2120 -0.2612  0.0913
  659ERGO   ROH 8971  11.472   0.190  10.889  0.0050  0.0652 -0.0949
  659ERGO    R1 8972  11.617   0.156  10.648 -0.0424  0.0549 -0.1221
  659ERGO    R2 8973  11.643  -0.090  10.523  0.0761  0.0169 -0.0250
  659ERGO    R3 8974  11.544   0.045  10.309 -0.0714 -0.1350 -0.0549
  659ERGO    R4 8975  11.701  -0.172  10.193  0.0256 -0.0898 -0.0081
  659ERGO    R5 8976  11.720   0.040  10.148 -0.1169 -0.0963 -0.1058
  659ERGO    C1 8977  11.641  -0.092   9.799 -0.1425 -0.2943 -0.0262
  659ERGO    C2 8978  11.601   0.001   9.483  0.0474  0.0648 -0.0306
  660ERGO   ROH 8979  13.267  16.383  10.592  0.0017 -0.0854 -0.0871
  660ERGO    R1 8980  13.428  16.295  10.377  0.0972  0.0914 -0.0892
  660ERGO    R2 8981  13.321  16.188  10.146  0.2156 -0.1563 -0.0279
  660ERGO    R3 8982  13.469  16.381  10.025 -0.1094  0.0371 -0.1290
  660ERGO    R4 8983  13.418  16.183   9.814  0.3249 -0.2411  0.0044
  660ERGO    R5 8984  13.612  16.261   9.875  0.1695  0.1802  0.0107
  660ERGO    C1 8985  13.613  16.362   9.508  0.0836 -0.1087 -0.0719
  660ERGO    C2 8986  13.506  16.359   9.155 -0.0076 -0.1548  0.0564
  661ERGO   ROH 8987   3.989   2.040  10.005 -0.2606 -0.0116 -0.1067
  661ERGO    R1 8988   3.914   2.055   9.732 -0.2718 -0.0857 -0.1084
  661ERGO    R2 8989   4.081   2.160   9.537 -0.3262 -0.0242 -0.1267
  661ERGO    R3 8990   4.038   1.921   9.417 -0.2046 -0.0646 -0.0895
  661ERGO    R4 8991   4.195   2.073   9.223 -0.3111 -0.0155 -0.1235
  661ERGO    R5 8992   4.005   1.974   9.187 -0.2553 -0.1230 -0.0918
  661ERGO    C1 8993   4.221   1.797   8.927 -0.1883 -0.0484 -0.0868
  661ERGO    C2 8994   4.091   1.610   8.611 -0.1047 -0.1597  0.0638
  662ERGO   ROH 8995  14.777   0.878  10.124 -0.0294 -0.1342 -0.0808
  662ERGO    R1 8996  14.756   0.706   9.900 -0.0679 -0.1351 -0.0768
  662ERGO    R2 8997  14.595   0.764   9.683 -0.0219 -0.0834 -0.0973
  662ERGO    R3 8998  14.825   0.728   9.543 -0.0197 -0.1746 -0.0703
  662ERGO    R4 8999  14.613   0.708   9.342 -0.0179 -0.2667 -0.0678
  662ERGO    R5 9000  14.770   0.562   9.379 -0.0285 -0.2594  0.0162
  662ERGO    C1 9001  14.839   0.641   9.013 -0.0137 -0.4591 -0.0250
  662ERGO    C2 9002  14.849   0.654   8.716 -0.0184 -0.0482 -0.3490
  663ERGO   ROH 9003   4.076   8.411   9.884  0.0221 -0.1372 -0.0512
  663ERGO    R1 9004   3.938   8.584   9.708 -0.0994 -0.1573  0.0229
  663ERGO    R2 9005   4.045   8.668   9.467 -0.1026  0.1187  0.1112
  663ERGO    R3 9006   3.812   8.570   9.367  0.0291 -0.0575 -0.0290
  663ERGO    R4 9007   3.929   8.722   9.146 -0.0601  0.2148  0.1117
  663ERGO    R5 9008   3.729   8.745   9.227 -0.1105 -0.0495  0.0651
  663ERGO    C1 9009   3.644   8.661   8.865  0.0884  0.1056 -0.0195
  663ERGO    C2 9010   3.720   8.641   8.549 -0.1507  0.2975  0.1193
  664ERGO   ROH 9011  14.066  13.947  10.461 -0.0712  0.1069  0.0391
  664ERGO    R1 9012  13.959  14.036  10.214  0.0149  0.0545 -0.0168
  664ERGO    R2 9013  14.050  14.263  10.086  0.1734 -0.0704 -0.1158
  664ERGO    R3 9014  14.083  14.092   9.877  0.0874 -0.1892 -0.0349
  664ERGO    R4 9015  14.069  14.359   9.755  0.2982 -0.2159 -0.1527
  664ERGO    R5 9016  13.947  14.185   9.703  0.1773 -0.1589 -0.0976
  664ERGO    C1 9017  14.111  14.255   9.365  0.2900 -0.4121 -0.0982
  664ERGO    C2 9018  14.114  14.335   9.024 -0.1113 -0.1524  0.0916
  665ERGO   ROH 9019   1.478  11.795  10.334  0.0695  0.0195 -0.1038
  665ERGO    R1 9020   1.628  11.805  10.094  0.0808 -0.1405 -0.1062
  665ERGO    R2 9021   1.580  11.634   9.881 -0.0763 -0.1221 -0.0965
  665ERGO    R3 9022   1.560  11.867   9.742  0.1326 -0.1110 -0.1090
  665ERGO    R4 9023   1.543  11.656   9.539 -0.2635 -0.1036 -0.0744
  665ERGO    R5 9024   1.680  11.825   9.539 -0.0498 -0.2817 -0.1792
  665ERGO    C1 9025   1.501  11.888   9.208 -0.1765 -0.0822 -0.0733
  665ERGO    C2 9026   1.388  11.917   8.907 -0.1506 -0.0216  0.1859
  666ERGO   ROH 9027   6.781  17.051  10.622 -0.1193  0.3337 -0.0223
  666ERGO    R1 9028   6.678  16.913  10.397  0.1355 -0.0030  0.0594
  666ERGO    R2 9029   6.518  17.035  10.207 -0.3359 -0.4733  0.1260
  666ERGO    R3 9030   6.705  16.939  10.035 -0.1439  0.0269  0.0383
  666ERGO    R4 9031   6.468  16.982   9.869 -0.3618 -0.6270  0.1537
  666ERGO    R5 9032   6.582  16.798   9.886  0.1603 -0.3253  0.1078
  666ERGO    C1 9033   6.614  16.861   9.511 -0.1968 -0.2471  0.0876
  666ERGO    C2 9034   6.540  16.860   9.153  0.5330 -0.2380 -0.1084
  667ERGO   ROH 9035  16.098  14.378  10.539 -0.1401 -0.0762  0.0282
  667ERGO    R1 9036  16.159  14.316  10.269 -0.1876 -0.1637  0.0369
  667ERGO    R2 9037  15.977  14.194  10.100 -0.3037 -0.0026  0.0384
  667ERGO    R3 9038  16.030  14.409   9.942 -0.0823 -0.0671  0.0232
  667ERGO    R4 9039  16.003  14.185   9.755 -0.4065 -0.0316  0.0315
  667ERGO    R5 9040  16.171  14.322   9.769 -0.2344 -0.2383 -0.0146
  667ERGO    C1 9041  16.068  14.380   9.406 -0.2584 -0.1091  0.0132
  667ERGO    C2 9042  15.939  14.488   9.091 -0.4817  0.1144  0.4425
  668ERGO   ROH 9043   2.939   3.090   9.897  0.2487 -0.2743  0.1318
  668ERGO    R1 9044   2.982   3.240   9.662  0.0899 -0.0592  0.2398
  668ERGO    R2 9045   3.234   3.311   9.575  0.0238 -0.0152  0.1222
  668ERGO    R3 9046   3.153   3.192   9.344 -0.1555  0.2217  0.0545
  668ERGO    R4 9047   3.306   3.428   9.258  0.6141 -0.1697  0.1847
  668ERGO    R5 9048   3.102   3.375   9.198  0.4755  0.4119  0.0263
  668ERGO    C1 9049   3.272   3.384   8.856  0.7895 -0.0372  0.1574
  668ERGO    C2 9050   3.230   3.451   8.616  0.1016 -0.1083 -0.0025
  669ERGO   ROH 9051   3.604   4.021  10.024 -0.0830  0.1211  0.0818
  669ERGO    R1 9052   3.587   4.112   9.757  0.0251  0.1691  0.0896
  669ERGO    R2 9053   3.801   4.228   9.625  0.1686 -0.0637  0.1002
  669ERGO    R3 9054   3.751   4.035   9.441 -0.0582  0.0070  0.0867
  669ERGO    R4 9055   3.803   4.276   9.283  0.1691 -0.0386  0.1046
  669ERGO    R5 9056   3.628   4.147   9.269  0.0358  0.1469  0.1148
  669ERGO    C1 9057   3.757   4.122   8.911 -0.0436  0.0425  0.0945
  669ERGO    C2 9058   3.671   3.900   8.579  0.0161 -0.2109 -0.1154
  670ERGO   ROH 9059  10.726  15.785  10.356 -0.0288  0.1791  0.0784
  670ERGO    R1 9060  10.760  15.940  10.122 -0.1407  0.1492  0.0419
  670ERGO    R2 9061  10.949  15.879   9.929 -0.0880  0.2467  0.0624
  670ERGO    R3 9062  10.734  15.885   9.763 -0.0892  0.0422  0.0540
  670ERGO    R4 9063  10.955  15.987   9.601 -0.1302  0.0302 -0.0110
  670ERGO    R5 9064  10.763  16.084   9.634 -0.1735 -0.0298 -0.0794
  670ERGO    C1 9065  10.757  16.055   9.254 -0.1558 -0.2879 -0.0617
  670ERGO    C2 9066  10.821  15.982   8.913  0.0908  0.1575 -0.2898
  671ERGO   ROH 9067   0.699  16.724  10.177  0.0889  0.0916  0.1818
  671ERGO    R1 9068   0.578  16.830   9.944  0.0526  0.1222  0.2141
  671ERGO    R2 9069   0.701  17.021   9.786  0.0907  0.0390  0.1398
  671ERGO    R3 9070   0.654  16.841   9.588 -0.0786  0.0342  0.1831
  671ERGO    R4 9071   0.642  17.102   9.455  0.3695  0.0093  0.0807
  671ERGO    R5 9072   0.490  16.946   9.449  0.1406  0.2289  0.0654
  671ERGO    C1 9073   0.564  16.981   9.077  0.3728 -0.0123  0.0870
  671ERGO    C2 9074   0.653  17.096   8.789 -0.0378  0.2482  0.1370
  672ERGO   ROH 9075  12.146   2.228  10.344  0.1816  0.0884  0.0331
  672ERGO    R1 9076  12.075   2.227  10.070  0.0154 -0.0362  0.0708
  672ERGO    R2 9077  12.132   2.439   9.900 -0.2822 -0.0027 -0.0249
  672ERGO    R3 9078  12.250   2.244   9.752 -0.1814  0.0663 -0.0278
  672ERGO    R4 9079  12.138   2.430   9.555 -0.3459 -0.0667 -0.0209
  672ERGO    R5 9080  12.104   2.215   9.565 -0.1862 -0.0727  0.0143
  672ERGO    C1 9081  12.252   2.242   9.214 -0.2886 -0.0391 -0.0213
  672ERGO    C2 9082  12.360   2.007   8.922  0.1076 -0.1693 -0.1988
  673ERGO   ROH 9083  13.576   9.167   6.264  0.2838  0.1050  0.0409
  673ERGO    R1 9084  13.684   9.157   6.526  0.2300  0.1321  0.0652
  673ERGO    R2 9085  13.723   9.382   6.680  0.0722  0.1373  0.1043
  673ERGO    R3 9086  13.574   9.245   6.861  0.1031  0.0326  0.0498
  673ERGO    R4 9087  13.725   9.439   7.021  0.0247  0.0305  0.1221
  673ERGO    R5 9088  13.717   9.224   7.052  0.0926  0.0200  0.0543
  673ERGO    C1 9089  13.586   9.344   7.389  0.0260 -0.1300  0.0812
  673ERGO    C2 9090  13.466   9.355   7.681 -0.2009 -0.1135  0.0649
  674ERGO   ROH 9091   6.497   0.922  10.390  0.1995  0.0146  0.0835
  674ERGO    R1 9092   6.630   0.871  10.145  0.1602  0.0294  0.0589
  674ERGO    R2 9093   6.615   0.627  10.016  0.1704  0.0258  0.0665
  674ERGO    R3 9094   6.535   0.780   9.806  0.1094  0.0097  0.0780
  674ERGO    R4 9095   6.590   0.517   9.689  0.2769  0.0527  0.0489
  674ERGO    R5 9096   6.672   0.708   9.624  0.1768  0.1116  0.0858
  674ERGO    C1 9097   6.500   0.596   9.302  0.2815  0.0533  0.0497
  674ERGO    C2 9098   6.459   0.443   9.025 -0.1521  0.0863  0.1839
  675PSPI    C1 9099   6.103  10.401   5.974 -0.2196 -0.0471  0.1154
  675PSPI    C2 9100   5.940  10.395   5.609 -0.0533  0.3525  0.0284
  675PSPI    C3 9101   6.166  10.089   5.733 -0.2733  0.1244 -0.1239
  675PSPI   PO4 9102   5.914  10.468   6.173  0.1740 -0.3031  0.2408
  675PSPI   GL1 9103   5.719  10.729   6.458 -0.1088 -0.0321  0.1672
  675PSPI   GL2 9104   5.727  11.011   6.433 -0.0661 -0.2186 -0.1766
  675PSPI   C1A 9105   5.831  10.602   6.830  0.2173  0.2325  0.1809
  675PSPI   C2A 9106   5.853  10.378   7.321 -0.2375 -0.1697  0.0572
  675PSPI   C3A 9107   5.869  10.252   7.731  0.2240  0.0431 -0.1881
  675PSPI   C4A 9108   5.876   9.907   7.983 -0.1267 -0.0356 -0.2187
  675PSPI   C1B 9109   5.763  11.211   6.814 -0.0524  0.4148  0.2658
  675PSPI   C2B 9110   5.787  11.401   7.200 -0.1007  0.0603 -0.0625
  675PSPI   C3B 9111   5.892  11.553   7.546 -0.1372  0.0411 -0.1539
  675PSPI   C4B 9112   5.999  11.715   7.859 -0.1681  0.2121 -0.2286
  676PSPI    C1 9113  11.431  15.916   6.258 -0.2978 -0.0647 -0.4671
  676PSPI    C2 9114  11.784  16.086   6.180 -0.1749 -0.0497  0.0806
  676PSPI    C3 9115  11.446  16.286   6.108 -0.0734 -0.0176 -0.3323
  676PSPI   PO4 9116  11.438  15.825   6.519  0.2356 -0.2046 -0.0478
  676PSPI   GL1 9117  11.580  15.783   6.919 -0.0864  0.2732  0.0293
  676PSPI   GL2 9118  11.379  16.010   7.016 -0.0038 -0.2290 -0.0070
  676PSPI   C1A 9119  11.460  15.618   7.253 -0.0781 -0.0033 -0.3931
  676PSPI   C2A 9120  11.563  15.501   7.670  0.0318 -0.0328 -0.0090
  676PSPI   C3A 9121  11.686  15.476   8.083  0.0234  0.1979 -0.4095
  676PSPI   C4A 9122  11.523  15.362   8.476 -0.1116 -0.1871  0.0837
  676PSPI   C1B 9123  11.389  16.160   7.396  0.1492  0.0294  0.0049
  676PSPI   C2B 9124  11.457  15.997   7.785 -0.0103  0.0662 -0.0057
  676PSPI   C3B 9125  11.518  16.095   8.198 -0.2271 -0.0046  0.2013
  676PSPI   C4B 9126  11.731  15.801   8.507 -0.0018 -0.1131  0.1606
  677PSPI    C1 9127  12.747   6.922   5.793 -0.0397 -0.3570 -0.1001
  677PSPI    C2 9128  12.743   7.071   5.421  0.1081 -0.0864  0.0035
  677PSPI    C3 9129  12.406   6.932   5.585 -0.0087  0.0232 -0.1412
  677PSPI   PO4 9130  12.881   6.797   5.845 -0.1646  0.0523 -0.0741
  677PSPI   GL1 9131  12.799   6.546   6.187 -0.0018  0.0440  0.1562
  677PSPI   GL2 9132  12.726   6.221   6.181 -0.1781  0.2480 -0.0277
  677PSPI   C1A 9133  12.750   6.554   6.691  0.1919 -0.0157 -0.2266
  677PSPI   C2A 9134  12.696   6.495   7.209 -0.0416 -0.0284 -0.1957
  677PSPI   C3A 9135  12.902   6.608   7.569 -0.1619 -0.1574 -0.0909
  677PSPI   C4A 9136  13.236   6.519   7.814 -0.1799  0.1288 -0.1385
  677PSPI   C1B 9137  12.540   6.083   6.490 -0.1729 -0.2444  0.1189
  677PSPI   C2B 9138  12.707   6.051   6.902  0.0305  0.1350 -0.1065
  677PSPI   C3B 9139  12.786   5.780   7.207  0.1312  0.2449 -0.1053
  677PSPI   C4B 9140  13.091   5.552   7.385  0.2468  0.3463  0.3161
  678PSPI    C1 9141   3.094  17.134   6.181 -0.2521  0.0376  0.1633
  678PSPI    C2 9142   3.444  17.023   6.023 -0.2364  0.2248  0.0642
  678PSPI    C3 9143   3.127  17.081   5.786 -0.3235  0.0988  0.1488
  678PSPI   PO4 9144   3.100  16.979   6.399 -0.1841 -0.1884  0.0406
  678PSPI   GL1 9145   3.253  16.842   6.835 -0.1714  0.3171 -0.0525
  678PSPI   GL2 9146   2.973  16.827   6.867 -0.0140  0.0357  0.2646
  678PSPI   C1A 9147   3.348  16.663   7.191 -0.0210  0.1954  0.0794
  678PSPI   C2A 9148   3.344  16.742   7.593  0.3115  0.1478 -0.3297
  678PSPI   C3A 9149   3.332  16.883   7.991 -0.1775 -0.2991 -0.0571
  678PSPI   C4A 9150   3.078  16.622   8.172 -0.0337 -0.0783  0.3475
  678PSPI   C1B 9151   2.989  16.986   7.315  0.1963 -0.0788  0.0181
  678PSPI   C2B 9152   2.993  17.073   7.752  0.0069  0.0291  0.0665
  678PSPI   C3B 9153   2.905  17.105   8.206  0.2423 -0.0749  0.1115
  678PSPI   C4B 9154   2.689  16.900   8.622  0.2065 -0.1324 -0.0715
  679PSPI    C1 9155   8.138   7.481   5.848  0.0052 -0.2071 -0.1667
  679PSPI    C2 9156   7.839   7.405   5.593 -0.2444  0.0700  0.0378
  679PSPI    C3 9157   8.126   7.666   5.494 -0.1577 -0.0738 -0.0926
  679PSPI   PO4 9158   8.046   7.494   6.084 -0.2077 -0.0123 -0.2420
  679PSPI   GL1 9159   7.845   7.737   6.363  0.1646  0.1259 -0.2604
  679PSPI   GL2 9160   8.047   7.711   6.570  0.1280  0.2847  0.0577
  679PSPI   C1A 9161   7.502   7.571   6.616  0.0217  0.0640  0.0415
  679PSPI   C2A 9162   7.348   7.743   7.007 -0.0552  0.2862 -0.0037
  679PSPI   C3A 9163   7.336   7.724   7.445  0.0120 -0.1324  0.0309
  679PSPI   C4A 9164   7.348   7.673   7.807 -0.0282  0.0021  0.2230
  679PSPI   C1B 9165   8.303   7.454   6.804 -0.0309  0.3395 -0.2438
  679PSPI   C2B 9166   8.570   7.111   7.084 -0.0541 -0.1221 -0.1163
  679PSPI   C3B 9167   8.598   7.152   7.511  0.1729 -0.1248 -0.1873
  679PSPI   C4B 9168   8.788   7.008   7.938 -0.2733  0.0932 -0.0589
  680PSPI    C1 9169   1.786  10.617   6.245  0.0927 -0.1435  0.1003
  680PSPI    C2 9170   1.485  10.502   6.008  0.0192 -0.1722  0.2071
  680PSPI    C3 9171   1.825  10.292   6.015  0.0631 -0.1079  0.0447
  680PSPI   PO4 9172   1.701  10.664   6.472  0.1690  0.0791 -0.0225
  680PSPI   GL1 9173   1.820  10.786   6.811  0.0053 -0.3813  0.1825
  680PSPI   GL2 9174   1.660  10.946   6.876 -0.2316  0.1989  0.7063
  680PSPI   C1A 9175   2.116  10.723   7.137 -0.0039  0.2444 -0.0009
  680PSPI   C2A 9176   2.163  10.773   7.499 -0.0410  0.0482 -0.2347
  680PSPI   C3A 9177   2.235  10.575   7.912  0.1904 -0.2087 -0.0979
  680PSPI   C4A 9178   2.213  10.275   8.207  0.0961  0.5014  0.0252
  680PSPI   C1B 9179   1.681  10.954   7.278 -0.0106 -0.0525  0.1488
  680PSPI   C2B 9180   1.713  10.872   7.597 -0.1102  0.2971 -0.0412
  680PSPI   C3B 9181   1.999  10.971   8.031  0.0788  0.1094  0.2105
  680PSPI   C4B 9182   2.105  11.226   8.305 -0.0412 -0.0418  0.3647
  681PSPI    C1 9183  16.880  16.071   6.170 -0.1421  0.1919 -0.1604
  681PSPI    C2 9184  16.606  15.905   5.931 -0.2273  0.0005  0.0663
  681PSPI    C3 9185  16.987  15.783   5.913 -0.1999  0.1064 -0.0894
  681PSPI   PO4 9186  16.817  16.010   6.390  0.3394  0.3258  0.0381
  681PSPI   GL1 9187  16.515  15.937   6.705  0.3506 -0.0083 -0.0477
  681PSPI   GL2 9188  16.323  15.918   6.979 -0.0506 -0.0775 -0.0933
  681PSPI   C1A 9189  16.747  16.235   7.069 -0.2000  0.3305 -0.1005
  681PSPI   C2A 9190  16.793  16.394   7.566  0.0633  0.3662 -0.0473
  681PSPI   C3A 9191  16.781  16.509   8.066 -0.0574  0.4265 -0.0286
  681PSPI   C4A 9192  17.036  16.774   8.495  0.1799 -0.1830  0.1907
  681PSPI   C1B 9193  16.391  16.002   7.438  0.2637  0.0308  0.1588
  681PSPI   C2B 9194  16.409  16.141   7.887  0.1122  0.0096  0.1684
  681PSPI   C3B 9195  16.336  16.251   8.307 -0.2943  0.1082  0.0925
  681PSPI   C4B 9196  15.992  16.505   8.529  0.0100  0.3025 -0.0424
  682PSPI    C1 9197   3.988  12.337   6.257  0.0886 -0.0223 -0.1195
  682PSPI    C2 9198   3.843  12.144   6.576  0.1538  0.0496 -0.0461
  682PSPI    C3 9199   3.819  11.977   6.213 -0.0147  0.0135 -0.0189
  682PSPI   PO4 9200   4.249  12.402   6.343  0.0866 -0.3769 -0.2309
  682PSPI   GL1 9201   4.358  12.418   6.781 -0.0897  0.0601  0.0560
  682PSPI   GL2 9202   4.117  12.288   6.934 -0.3141 -0.1502  0.1547
  682PSPI   C1A 9203   4.409  12.614   7.216 -0.0843 -0.1477  0.3044
  682PSPI   C2A 9204   4.329  12.576   7.598 -0.0976 -0.1170  0.2957
  682PSPI   C3A 9205   4.294  12.601   8.016  0.1317  0.0626  0.1219
  682PSPI   C4A 9206   3.978  12.510   8.275 -0.2661  0.1643  0.0830
  682PSPI   C1B 9207   4.237  12.124   7.339 -0.0535 -0.0659 -0.0551
  682PSPI   C2B 9208   4.229  12.110   7.783  0.0977  0.0199 -0.1176
  682PSPI   C3B 9209   4.311  12.164   8.177 -0.1590  0.0574 -0.0070
  682PSPI   C4B 9210   4.189  12.076   8.601  0.0284 -0.3885 -0.5792
  683PSPI    C1 9211   9.962  14.151   6.245  0.0273  0.0482  0.2034
  683PSPI    C2 9212  10.215  14.113   5.938 -0.0830 -0.0133  0.1195
  683PSPI    C3 9213   9.900  14.357   5.907  0.0954  0.2465  0.3097
  683PSPI   PO4 9214  10.101  14.241   6.461 -0.1059  0.1345  0.3411
  683PSPI   GL1 9215  10.184  14.219   6.896  0.0268  0.0142  0.3298
  683PSPI   GL2 9216  10.237  13.898   6.823 -0.2907  0.2144  0.1271
  683PSPI   C1A 9217  10.223  14.121   7.376  0.0040  0.0286  0.0473
  683PSPI   C2A 9218  10.474  13.787   7.670  0.2244  0.3277 -0.0915
  683PSPI   C3A 9219  10.712  13.800   8.104  0.2654 -0.3916 -0.5137
  683PSPI   C4A 9220  10.817  13.668   8.529  0.1573 -0.1858  0.1294
  683PSPI   C1B 9221  10.526  13.784   7.141  0.0746 -0.2092  0.0307
  683PSPI   C2B 9222  10.824  13.647   7.333 -0.0758  0.0837  0.1802
  683PSPI   C3B 9223  10.853  13.418   7.716  0.1788 -0.0427 -0.1421
  683PSPI   C4B 9224  11.124  13.517   8.074 -0.0774  0.1270 -0.1159
  684PSPI    C1 9225   8.617   3.718   5.440  0.1559 -0.2080 -0.0008
  684PSPI    C2 9226   8.798   3.602   5.102  0.2740  0.0744 -0.0367
  684PSPI    C3 9227   8.399   3.612   5.122  0.2609 -0.3196 -0.0365
  684PSPI   PO4 9228   8.653   3.635   5.664  0.0157  0.0620  0.1858
  684PSPI   GL1 9229   8.470   3.723   6.002 -0.0233 -0.0470  0.1520
  684PSPI   GL2 9230   8.448   4.068   6.050 -0.2889  0.1327 -0.2254
  684PSPI   C1A 9231   8.782   3.500   6.304  0.1787 -0.1334 -0.0025
  684PSPI   C2A 9232   9.160   3.369   6.231 -0.2137  0.2740 -0.2201
  684PSPI   C3A 9233   9.465   3.388   6.516  0.0920  0.0328 -0.1266
  684PSPI   C4A 9234   9.632   3.354   6.953 -0.0547  0.0414  0.0992
  684PSPI   C1B 9235   8.722   4.026   6.375  0.0946  0.0051 -0.0761
  684PSPI   C2B 9236   8.889   4.147   6.793  0.1197  0.1032 -0.0455
  684PSPI   C3B 9237   8.927   4.107   7.240 -0.0319  0.0723  0.2984
  684PSPI   C4B 9238   8.890   3.939   7.617 -0.4199 -0.0812 -0.0263
  685PSPI    C1 9239  13.668   3.391   5.558 -0.1375  0.0958 -0.2508
  685PSPI    C2 9240  13.582   3.002   5.525  0.1458 -0.0059  0.1332
  685PSPI    C3 9241  13.607   3.230   5.197  0.0386 -0.3221 -0.1004
  685PSPI   PO4 9242  13.512   3.479   5.763  0.1746  0.0068 -0.0462
  685PSPI   GL1 9243  13.563   3.580   6.155 -0.4252 -0.3976 -0.1951
  685PSPI   GL2 9244  13.431   3.827   6.295 -0.3858 -0.1013 -0.1401
  685PSPI   C1A 9245  13.423   3.430   6.554 -0.1874  0.2053 -0.1390
  685PSPI   C2A 9246  13.313   3.513   6.915  0.0544 -0.0121  0.2474
  685PSPI   C3A 9247  13.651   3.540   7.283  0.1551  0.1558  0.0830
  685PSPI   C4A 9248  13.720   3.757   7.489 -0.0406  0.0521  0.1203
  685PSPI   C1B 9249  13.142   3.846   6.587  0.2283 -0.0690 -0.2164
  685PSPI   C2B 9250  12.906   3.863   6.933  0.1352  0.4205 -0.2174
  685PSPI   C3B 9251  12.929   3.602   7.214  0.0292 -0.0472  0.0702
  685PSPI   C4B 9252  13.160   3.489   7.495 -0.0768  0.0612  0.0179
  686PSPI    C1 9253   8.351   8.574   5.911 -0.2602  0.2605  0.1774
  686PSPI    C2 9254   8.685   8.416   6.064 -0.3338 -0.0214  0.0523
  686PSPI    C3 9255   8.684   8.794   5.934 -0.0703 -0.0110  0.0757
  686PSPI   PO4 9256   8.184   8.571   6.089  0.0072  0.0548 -0.0624
  686PSPI   GL1 9257   8.059   8.597   6.582  0.2242  0.0397  0.0704
  686PSPI   GL2 9258   8.145   8.299   6.590 -0.2012  0.1339  0.0864
  686PSPI   C1A 9259   8.346   8.510   6.995  0.1195  0.0414  0.0141
  686PSPI   C2A 9260   8.133   8.509   7.457 -0.0255  0.1999 -0.1712
  686PSPI   C3A 9261   8.277   8.485   7.894  0.0145 -0.1391 -0.2340
  686PSPI   C4A 9262   8.368   8.302   8.261  0.2183  0.0083  0.0184
  686PSPI   C1B 9263   8.355   8.010   6.840  0.0449  0.0153 -0.1070
  686PSPI   C2B 9264   8.396   8.025   7.259  0.2340  0.1491 -0.0450
  686PSPI   C3B 9265   8.523   8.062   7.717  0.2781  0.0333  0.2402
  686PSPI   C4B 9266   8.576   7.894   8.076  0.0647 -0.1892 -0.0889
  687PSPI    C1 9267   0.932   1.641   5.736  0.0451  0.1202 -0.1202
  687PSPI    C2 9268   0.884   1.976   5.523  0.0640  0.0891 -0.1733
  687PSPI    C3 9269   1.015   1.642   5.345  0.1752  0.0895 -0.0932
  687PSPI   PO4 9270   0.884   1.794   5.983 -0.0999 -0.1879 -0.3610
  687PSPI   GL1 9271   0.724   1.781   6.347  0.2502  0.2588 -0.2023
  687PSPI   GL2 9272   0.865   2.072   6.410 -0.2042  0.1044  0.1639
  687PSPI   C1A 9273   0.844   1.669   6.735 -0.0166  0.0382 -0.1745
  687PSPI   C2A 9274   1.039   1.717   7.137  0.3281  0.2709 -0.0908
  687PSPI   C3A 9275   1.107   1.625   7.492 -0.2104  0.1499  0.0098
  687PSPI   C4A 9276   1.175   1.523   7.875  0.0837 -0.2323  0.0392
  687PSPI   C1B 9277   0.843   2.394   6.730  0.1169  0.1624 -0.1294
  687PSPI   C2B 9278   0.927   2.514   7.162 -0.1469 -0.1661  0.2283
  687PSPI   C3B 9279   0.846   2.438   7.569 -0.0146 -0.0309 -0.0004
  687PSPI   C4B 9280   0.897   2.398   8.104  0.1478 -0.0286  0.0213
  688PSPI    C1 9281   4.027   9.745   6.016  0.1232  0.0745  0.1085
  688PSPI    C2 9282   4.156   9.483   5.743 -0.0264 -0.0307  0.1377
  688PSPI    C3 9283   4.377   9.559   6.067  0.0290 -0.1025  0.1171
  688PSPI   PO4 9284   3.778   9.662   6.075  0.1051  0.0983  0.1249
  688PSPI   GL1 9285   3.721   9.452   6.501  0.1155 -0.0352  0.2382
  688PSPI   GL2 9286   4.090   9.472   6.450 -0.1660  0.1772  0.0455
  688PSPI   C1A 9287   3.729   9.422   7.060 -0.1966  0.2005 -0.0750
  688PSPI   C2A 9288   3.720   9.381   7.580 -0.0725 -0.0915  0.3271
  688PSPI   C3A 9289   3.773   9.514   8.016 -0.2247  0.1139 -0.1229
  688PSPI   C4A 9290   3.625   9.759   8.288 -0.2515 -0.0801  0.0164
  688PSPI   C1B 9291   4.133   9.175   6.768  0.1046  0.2469  0.2512
  688PSPI   C2B 9292   4.102   8.944   7.200  0.1428 -0.1979  0.0034
  688PSPI   C3B 9293   3.959   8.921   7.544  0.1941  0.0228 -0.1860
  688PSPI   C4B 9294   3.832   9.059   7.974 -0.0230 -0.5869 -0.0801
  689PSPI    C1 9295   7.899   8.927   6.239 -0.2017 -0.0984  0.0052
  689PSPI    C2 9296   7.690   8.586   6.256  0.0006 -0.2327 -0.1614
  689PSPI    C3 9297   7.634   8.840   5.952 -0.2132 -0.0738  0.0085
  689PSPI   PO4 9298   7.889   9.048   6.424  0.2823  0.1524 -0.3234
  689PSPI   GL1 9299   7.818   8.966   6.867 -0.0919 -0.0989  0.0847
  689PSPI   GL2 9300   7.904   9.278   6.867 -0.1432 -0.2317  0.2347
  689PSPI   C1A 9301   7.847   8.470   7.021 -0.2514  0.0295  0.3383
  689PSPI   C2A 9302   7.888   8.097   7.349 -0.1675  0.1934  0.1523
  689PSPI   C3A 9303   8.031   8.045   7.718  0.0959  0.2895  0.0000
  689PSPI   C4A 9304   7.901   8.201   8.086  0.0690  0.0272  0.0023
  689PSPI   C1B 9305   8.242   8.943   7.136  0.2191 -0.2769 -0.2671
  689PSPI   C2B 9306   8.364   8.958   7.655 -0.2543 -0.0916  0.2747
  689PSPI   C3B 9307   8.459   8.979   8.085 -0.0166 -0.1175 -0.1271
  689PSPI   C4B 9308   8.504   9.250   8.381 -0.0622 -0.0651  0.0104
  690PSPI    C1 9309   2.024   2.717   5.914  0.3804  0.0225 -0.1050
  690PSPI    C2 9310   1.846   2.636   5.565  0.2342 -0.0176 -0.0220
  690PSPI    C3 9311   2.243   2.596   5.601  0.2309 -0.1653 -0.1386
  690PSPI   PO4 9312   1.895   2.591   6.058 -0.0022 -0.1955  0.0567
  690PSPI   GL1 9313   1.625   2.421   6.167 -0.0492  0.2548 -0.2825
  690PSPI   GL2 9314   1.351   2.332   6.378  0.0946  0.1126 -0.0722
  690PSPI   C1A 9315   1.717   2.010   6.463 -0.0506 -0.1376  0.1532
  690PSPI   C2A 9316   1.779   1.867   6.898  0.2281  0.1296  0.0469
  690PSPI   C3A 9317   1.680   1.691   7.243 -0.1877 -0.1604 -0.0332
  690PSPI   C4A 9318   1.635   1.702   7.615  0.0183  0.3756  0.2932
  690PSPI   C1B 9319   1.326   2.677   6.755 -0.1623 -0.2315  0.1102
  690PSPI   C2B 9320   1.509   3.042   6.762  0.1488  0.1497 -0.1280
  690PSPI   C3B 9321   1.811   3.334   6.901 -0.0079  0.0314 -0.0624
  690PSPI   C4B 9322   1.911   3.476   7.249 -0.1111  0.0674  0.1173
  691PSPI    C1 9323   6.106  12.782   5.971 -0.1721 -0.3155 -0.1480
  691PSPI    C2 9324   6.259  13.151   5.951 -0.1252 -0.3112  0.2193
  691PSPI    C3 9325   5.978  13.036   5.691 -0.0981 -0.0376  0.0661
  691PSPI   PO4 9326   6.060  12.792   6.244 -0.5459 -0.0286 -0.0706
  691PSPI   GL1 9327   6.005  12.847   6.630  0.1205  0.1944  0.0629
  691PSPI   GL2 9328   6.309  13.135   6.599  0.0352  0.0248  0.2653
  691PSPI   C1A 9329   6.072  12.908   7.026  0.1294  0.1030  0.1410
  691PSPI   C2A 9330   5.935  12.819   7.460  0.0750 -0.1712 -0.2467
  691PSPI   C3A 9331   5.747  13.146   7.674 -0.3940 -0.1779  0.0983
  691PSPI   C4A 9332   5.541  13.104   8.088  0.0955  0.0884  0.0345
  691PSPI   C1B 9333   6.387  13.410   6.952 -0.2157 -0.3024  0.0481
  691PSPI   C2B 9334   6.583  13.497   7.342  0.0893  0.0676 -0.0154
  691PSPI   C3B 9335   6.908  13.695   7.585  0.1819  0.0564 -0.0651
  691PSPI   C4B 9336   7.057  14.096   7.476 -0.0561  0.1768 -0.1049
  692PSPI    C1 9337  12.170  15.796   6.351 -0.0482  0.1781 -0.0285
  692PSPI    C2 9338  12.420  15.540   6.528  0.0938  0.1716 -0.2354
  692PSPI    C3 9339  12.355  15.516   6.134 -0.0252  0.3449 -0.2274
  692PSPI   PO4 9340  11.996  15.812   6.574 -0.1784 -0.3064  0.0292
  692PSPI   GL1 9341  12.045  15.687   6.916  0.0218  0.0887  0.1122
  692PSPI   GL2 9342  12.105  15.405   6.899  0.3343  0.0946  0.4186
  692PSPI   C1A 9343  12.294  15.705   7.340 -0.0848 -0.0481  0.3387
  692PSPI   C2A 9344  12.458  15.696   7.842  0.0406  0.1245  0.1582
  692PSPI   C3A 9345  12.503  15.469   8.150 -0.2110 -0.0185  0.0949
  692PSPI   C4A 9346  12.547  15.276   8.520  0.2226 -0.1752 -0.1516
  692PSPI   C1B 9347  11.870  15.384   7.251 -0.0767 -0.0540  0.3779
  692PSPI   C2B 9348  12.038  15.358   7.607  0.0247  0.1772 -0.1874
  692PSPI   C3B 9349  12.130  15.169   7.971  0.0809  0.2983 -0.5125
  692PSPI   C4B 9350  12.095  15.247   8.409 -0.2495 -0.0318 -0.0306
  693PSPI    C1 9351   2.354  10.959   6.121  0.3081  0.2486 -0.0692
  693PSPI    C2 9352   1.984  11.026   5.984  0.2122  0.0937  0.1091
  693PSPI    C3 9353   2.284  11.269   5.878  0.1022  0.0950 -0.2094
  693PSPI   PO4 9354   2.199  10.805   6.468  0.0190 -0.1026 -0.0138
  693PSPI   GL1 9355   2.391  10.642   6.764  0.0368  0.1244  0.3846
  693PSPI   GL2 9356   2.636  10.782   6.880  0.4209 -0.1917  0.0175
  693PSPI   C1A 9357   2.466  10.341   7.045 -0.1936  0.3433  0.3896
  693PSPI   C2A 9358   2.449  10.295   7.400 -0.2996  0.3330  0.1295
  693PSPI   C3A 9359   2.382  10.018   7.785 -0.1341 -0.1164  0.0535
  693PSPI   C4A 9360   2.595   9.899   8.136  0.0726 -0.1380 -0.0797
  693PSPI   C1B 9361   2.629  10.799   7.265 -0.0566 -0.2021 -0.1199
  693PSPI   C2B 9362   2.691  10.710   7.790 -0.0450  0.0533 -0.0140
  693PSPI   C3B 9363   2.887  10.847   8.220  0.1582  0.0224  0.0351
  693PSPI   C4B 9364   2.904  10.889   8.652 -0.2220 -0.2768  0.0803
  694PSPI    C1 9365  13.599   9.436   5.855  0.0431 -0.1226  0.0335
  694PSPI    C2 9366  13.403   9.469   5.508  0.0539  0.0140  0.0401
  694PSPI    C3 9367  13.261   9.231   5.795 -0.1849  0.2252  0.1009
  694PSPI   PO4 9368  13.601   9.600   5.975 -0.0345 -0.3762  0.1921
  694PSPI   GL1 9369  13.910   9.691   6.271  0.2175  0.0220  0.0127
  694PSPI   GL2 9370  14.003   9.450   6.237 -0.2045  0.0926 -0.0279
  694PSPI   C1A 9371  13.736   9.855   6.653 -0.0747 -0.2319  0.1076
  694PSPI   C2A 9372  13.983   9.816   7.040 -0.0320  0.1185  0.0200
  694PSPI   C3A 9373  14.048  10.211   7.174 -0.1396  0.0049  0.1696
  694PSPI   C4A 9374  14.081  10.389   7.443  0.0495 -0.1011 -0.0077
  694PSPI   C1B 9375  14.241   9.363   6.637  0.0830  0.2816  0.0021
  694PSPI   C2B 9376  14.262   9.354   7.112 -0.1366  0.0170 -0.1890
  694PSPI   C3B 9377  14.059   9.447   7.518 -0.0799  0.0645  0.1555
  694PSPI   C4B 9378  14.011   9.422   8.004 -0.2500 -0.0511 -0.2700
  695POPI    C1 9379   0.935   9.692   5.834  0.0015  0.1384 -0.0623
  695POPI    C2 9380   1.089   9.906   5.534 -0.0204  0.0930 -0.1061
  695POPI    C3 9381   1.232   9.541   5.612 -0.0097  0.1078 -0.0565
  695POPI   PO4 9382   0.724   9.834   5.922  0.1625  0.3809  0.1321
  695POPI   GL1 9383   0.610   9.667   6.314  0.0266 -0.0945  0.3923
  695POPI   GL2 9384   0.647  10.087   6.300 -0.1226  0.0453 -0.1985
  695POPI   C1A 9385   0.825   9.443   6.708 -0.0196 -0.0434 -0.2771
  695POPI   D2A 9386   0.829   9.275   7.083  0.3797  0.1197 -0.1307
  695POPI   C3A 9387   0.964   8.732   7.028  0.2583  0.1674 -0.3379
  695POPI   C4A 9388   1.234   8.522   7.364 -0.2903 -0.2303  0.3348
  695POPI   C1B 9389   0.924  10.050   6.627  0.0594 -0.2830  0.1799
  695POPI   C2B 9390   0.809   9.875   6.990  0.1444 -0.1852 -0.3073
  695POPI   C3B 9391   1.132   9.683   7.098  0.0473 -0.1756 -0.0197
  695POPI   C4B 9392   1.352   9.577   6.693  0.2627  0.1406  0.0666
  696POPI    C1 9393   9.272   6.898   5.935  0.2348  0.1505 -0.2020
  696POPI    C2 9394   9.022   7.194   6.032  0.0432 -0.0484 -0.0804
  696POPI    C3 9395   9.012   7.036   5.664 -0.0579 -0.1015 -0.0553
  696POPI   PO4 9396   9.408   6.758   6.103  0.3041 -0.0120 -0.1201
  696POPI   GL1 9397   9.527   7.028   6.378 -0.2527 -0.0736 -0.2032
  696POPI   GL2 9398   9.220   7.101   6.442 -0.2894 -0.3044 -0.2504
  696POPI   C1A 9399   9.509   6.935   6.804  0.2746 -0.4685  0.2070
  696POPI   D2A 9400   9.552   6.846   7.166 -0.0895  0.2559 -0.3686
  696POPI   C3A 9401   9.532   6.367   7.323  0.0228 -0.1566  0.1612
  696POPI   C4A 9402   9.365   6.058   7.456 -0.1290  0.1093 -0.0705
  696POPI   C1B 9403   9.211   7.270   6.890  0.0404 -0.2718 -0.3159
  696POPI   C2B 9404   9.042   7.299   7.266 -0.0261  0.3977  0.0263
  696POPI   C3B 9405   9.225   7.207   7.607 -0.1460  0.0375 -0.1256
  696POPI   C4B 9406   9.264   6.943   8.028 -0.2177  0.1254 -0.1222
  697POPI    C1 9407  10.750   4.308   5.623 -0.0171  0.0943  0.1600
  697POPI    C2 9408  10.912   4.424   5.277 -0.0686 -0.1741  0.0434
  697POPI    C3 9409  10.564   4.581   5.396  0.1514  0.2258  0.1784
  697POPI   PO4 9410  10.993   4.354   5.768  0.0216  0.0103  0.0762
  697POPI   GL1 9411  10.961   4.530   6.235 -0.0799 -0.1412  0.0352
  697POPI   GL2 9412  10.682   4.424   6.254 -0.1426 -0.1146  0.2212
  697POPI   C1A 9413  11.235   4.443   6.553 -0.1654 -0.1360 -0.1186
  697POPI   D2A 9414  11.330   4.524   7.013 -0.1901  0.3656  0.2974
  697POPI   C3A 9415  11.195   4.747   7.332 -0.1222  0.0321 -0.0620
  697POPI   C4A 9416  11.129   4.771   7.815  0.0667 -0.0528  0.1568
  697POPI   C1B 9417  10.589   4.790   6.471  0.0910  0.0010  0.0693
  697POPI   C2B 9418  10.629   5.184   6.782 -0.1534 -0.0569  0.0289
  697POPI   C3B 9419  10.741   5.449   7.175  0.1327 -0.2539  0.0469
  697POPI   C4B 9420  10.732   5.604   7.581  0.0517 -0.3359 -0.0932
  698POPI    C1 9421   4.446   9.918   6.458  0.2909 -0.1222 -0.1437
  698POPI    C2 9422   4.618  10.271   6.383 -0.1828  0.1341 -0.0680
  698POPI    C3 9423   4.342  10.127   6.133 -0.1805 -0.0603  0.0391
  698POPI   PO4 9424   4.347   9.930   6.709  0.0543  0.1204  0.0030
  698POPI   GL1 9425   4.195   9.653   6.905 -0.1964  0.3508  0.0224
  698POPI   GL2 9426   4.588   9.631   6.989  0.2052  0.2938 -0.2178
  698POPI   C1A 9427   4.186   9.427   7.334  0.0467  0.2340  0.0873
  698POPI   D2A 9428   4.230   9.494   7.845  0.0957  0.0756 -0.0216
  698POPI   C3A 9429   4.574   9.716   8.073 -0.2428 -0.1638 -0.0859
  698POPI   C4A 9430   4.862   9.562   8.480  0.0396  0.4573  0.1978
  698POPI   C1B 9431   4.479   9.795   7.498 -0.1316 -0.1936  0.1681
  698POPI   C2B 9432   4.425  10.138   7.751  0.0583 -0.2504 -0.2783
  698POPI   C3B 9433   4.493  10.179   8.096  0.0138 -0.0505  0.0270
  698POPI   C4B 9434   4.624  10.019   8.435 -0.0347 -0.0654  0.0000
  699POPI    C1 9435   2.585  17.192   6.230  0.0536 -0.1105  0.0439
  699POPI    C2 9436   2.749  17.535   6.103 -0.0393 -0.1056 -0.0644
  699POPI    C3 9437   2.614  17.267   5.838 -0.3238 -0.0523  0.0230
  699POPI   PO4 9438   2.391  17.254   6.530  0.1257  0.2175  0.0893
  699POPI   GL1 9439   2.444  17.389   6.995  0.2307 -0.0343  0.0968
  699POPI   GL2 9440   2.832  17.511   7.076  0.1003  0.2193 -0.0016
  699POPI   C1A 9441   2.296  17.507   7.360  0.1565 -0.1688 -0.2901
  699POPI   D2A 9442   2.124  17.604   7.741 -0.1842  0.1249 -0.4598
  699POPI   C3A 9443   1.969  18.035   7.884  0.2577  0.2019  0.0833
  699POPI   C4A 9444   1.645  17.952   8.325 -0.2350  0.1523 -0.2786
  699POPI   C1B 9445   2.759  17.455   7.485  0.0691 -0.0015 -0.0576
  699POPI   C2B 9446   2.661  17.486   7.931  0.4439 -0.0406 -0.0248
  699POPI   C3B 9447   2.385  17.777   8.214  0.2806 -0.0338  0.2442
  699POPI   C4B 9448   2.202  18.162   8.410  0.1392  0.0023 -0.0313
  700POPI    C1 9449   8.531  15.110   6.455 -0.1113  0.3023  0.2006
  700POPI    C2 9450   8.583  15.451   6.253 -0.1451  0.1222 -0.1178
  700POPI    C3 9451   8.895  15.274   6.429 -0.1322  0.3289  0.0717
  700POPI   PO4 9452   8.405  15.143   6.616  0.0490 -0.0366  0.1078
  700POPI   GL1 9453   8.566  15.196   7.006 -0.2898 -0.1523 -0.3594
  700POPI   GL2 9454   8.863  15.217   6.927  0.2284 -0.0679  0.0165
  700POPI   C1A 9455   8.697  15.150   7.432  0.4019  0.1036 -0.0486
  700POPI   D2A 9456   8.743  14.995   7.876 -0.0587  0.0997 -0.1757
  700POPI   C3A 9457   8.881  15.139   8.338 -0.1457  0.0055  0.2977
  700POPI   C4A 9458   8.759  15.357   8.630  0.1229  0.0206  0.1927
  700POPI   C1B 9459   9.169  15.196   7.297 -0.1312  0.2510  0.2166
  700POPI   C2B 9460   9.208  15.022   7.651  0.1521 -0.1647 -0.2173
  700POPI   C3B 9461   9.338  14.943   8.119  0.0694 -0.1672  0.1226
  700POPI   C4B 9462   9.604  15.079   8.444 -0.1545 -0.0211  0.0298
  701POPI    C1 9463  11.821   9.642   5.868  0.0030  0.0914 -0.0306
  701POPI    C2 9464  11.513   9.608   5.615 -0.1031  0.0772  0.0995
  701POPI    C3 9465  11.811   9.342   5.603  0.0474  0.2545 -0.2191
  701POPI   PO4 9466  11.726   9.776   6.118 -0.0836 -0.2244  0.0256
  701POPI   GL1 9467  11.816   9.668   6.516  0.3444  0.4057  0.0618
  701POPI   GL2 9468  11.700  10.012   6.698 -0.1220  0.0096 -0.2090
  701POPI   C1A 9469  11.863   9.443   6.972  0.0469 -0.1974 -0.2582
  701POPI   D2A 9470  12.011   9.289   7.415 -0.4221 -0.0412 -0.1174
  701POPI   C3A 9471  12.282   9.381   7.657  0.0645 -0.0386  0.1346
  701POPI   C4A 9472  12.483   9.701   7.992 -0.0421  0.0256  0.2079
  701POPI   C1B 9473  11.789   9.968   7.112 -0.1247  0.0769 -0.0755
  701POPI   C2B 9474  11.690   9.912   7.521  0.1269 -0.1667 -0.0617
  701POPI   C3B 9475  11.896   9.640   7.821  0.3203  0.0952  0.0492
  701POPI   C4B 9476  12.062   9.642   8.249 -0.4814 -0.0497  0.1099
  702POPI    C1 9477   5.654  15.715   6.358  0.0067 -0.0372  0.0237
  702POPI    C2 9478   5.487  15.987   6.598  0.0568 -0.0333  0.0542
  702POPI    C3 9479   5.386  15.602   6.632 -0.0229 -0.0172  0.0031
  702POPI   PO4 9480   5.913  15.870   6.391 -0.1627 -0.2203 -0.3965
  702POPI   GL1 9481   6.010  16.032   6.893  0.1170  0.1516 -0.0831
  702POPI   GL2 9482   5.799  16.254   6.897 -0.1156  0.0842  0.0289
  702POPI   C1A 9483   5.909  15.843   7.229  0.0738  0.1269  0.3338
  702POPI   D2A 9484   5.952  15.898   7.694  0.1227  0.2465 -0.2083
  702POPI   C3A 9485   6.011  16.283   8.001  0.0910 -0.0150  0.0756
  702POPI   C4A 9486   6.021  16.219   8.479 -0.0396 -0.1291 -0.0844
  702POPI   C1B 9487   5.662  16.355   7.313  0.0652  0.1339  0.2580
  702POPI   C2B 9488   5.637  16.283   7.670 -0.0884  0.0186  0.2180
  702POPI   C3B 9489   5.552  16.153   8.075  0.0727 -0.2233 -0.1348
  702POPI   C4B 9490   5.428  16.151   8.557  0.0100 -0.2519  0.0861
  703POPI    C1 9491  15.910  12.166   5.999 -0.0032  0.1585 -0.1954
  703POPI    C2 9492  15.667  11.933   5.784  0.1087 -0.1507  0.0066
  703POPI    C3 9493  15.875  12.223   5.605 -0.1455 -0.1060 -0.2231
  703POPI   PO4 9494  16.000  12.004   6.175  0.1479  0.4000 -0.2285
  703POPI   GL1 9495  16.007  11.977   6.634 -0.0004 -0.3335  0.1312
  703POPI   GL2 9496  15.884  11.630   6.502 -0.2682 -0.0069  0.1002
  703POPI   C1A 9497  15.769  11.916   6.997  0.1853 -0.1286 -0.0366
  703POPI   D2A 9498  15.527  11.545   7.258 -0.0704 -0.2007 -0.0011
  703POPI   C3A 9499  15.604  11.330   7.639 -0.0473 -0.2914 -0.2609
  703POPI   C4A 9500  15.576  11.044   7.960  0.0145  0.2606 -0.1783
  703POPI   C1B 9501  15.894  11.328   6.936 -0.2222  0.1580 -0.1016
  703POPI   C2B 9502  15.873  11.090   7.331 -0.0078  0.0167 -0.1110
  703POPI   C3B 9503  16.108  11.102   7.780  0.1623  0.1544  0.0890
  703POPI   C4B 9504  16.040  11.086   8.280 -0.0732  0.0148  0.3754
  704POPI    C1 9505  17.674  10.592   5.671  0.0993  0.0416 -0.1056
  704POPI    C2 9506  17.746  10.216   5.554 -0.1812 -0.0137 -0.1095
  704POPI    C3 9507  17.942  10.521   5.383  0.0771 -0.1590 -0.0781
  704POPI   PO4 9508  17.694  10.593   5.923 -0.1172  0.1541  0.0066
  704POPI   GL1 9509  17.782  10.438   6.308 -0.0728  0.1326  0.0912
  704POPI   GL2 9510  17.593  10.557   6.597  0.0950  0.2110  0.1653
  704POPI   C1A 9511  18.115  10.532   6.564  0.0208 -0.2182 -0.0081
  704POPI   D2A 9512  18.494  10.519   6.692 -0.0590 -0.1028  0.0416
  704POPI   C3A 9513  18.628  10.387   7.127  0.2886 -0.1359  0.1540
  704POPI   C4A 9514  18.621  10.101   7.507 -0.1628  0.3540 -0.2213
  704POPI   C1B 9515  17.675  10.670   7.071 -0.1460  0.1288 -0.0890
  704POPI   C2B 9516  17.527  10.593   7.401  0.0734  0.1502  0.1147
  704POPI   C3B 9517  17.568  10.482   7.812  0.0722 -0.1172 -0.4372
  704POPI   C4B 9518  17.639  10.758   8.050  0.0417 -0.2566  0.0944
  705POPI    C1 9519   1.293   0.809   5.688  0.1381 -0.0077 -0.0353
  705POPI    C2 9520   1.534   1.118   5.611 -0.0972  0.1796 -0.0309
  705POPI    C3 9521   1.488   0.828   5.339 -0.0090  0.2362 -0.1070
  705POPI   PO4 9522   1.303   0.878   6.012 -0.1094 -0.0147  0.1064
  705POPI   GL1 9523   1.335   1.116   6.427  0.0214  0.0087  0.0267
  705POPI   GL2 9524   1.100   1.314   6.435  0.0423 -0.0136 -0.0808
  705POPI   C1A 9525   1.378   0.927   6.873 -0.0142 -0.2494  0.1190
  705POPI   D2A 9526   1.264   0.759   7.325  0.2372 -0.4895 -0.0119
  705POPI   C3A 9527   1.488   0.710   7.665  0.3242 -0.3054 -0.0095
  705POPI   C4A 9528   1.630   0.692   8.133  0.0006 -0.2174 -0.1153
  705POPI   C1B 9529   0.944   1.197   6.841 -0.2623 -0.0384 -0.4941
  705POPI   C2B 9530   0.927   1.144   7.236  0.1377  0.0091 -0.1519
  705POPI   C3B 9531   0.903   1.001   7.601  0.4006 -0.0403 -0.0577
  705POPI   C4B 9532   1.112   0.889   8.013  0.0643 -0.1196 -0.3884
  706POPI    C1 9533   5.194  12.304   5.977 -0.2883  0.0134  0.1642
  706POPI    C2 9534   4.965  11.986   5.898 -0.2716 -0.0135  0.2241
  706POPI    C3 9535   5.349  11.989   5.785 -0.2885  0.0114  0.1672
  706POPI   PO4 9536   5.186  12.322   6.243 -0.4068  0.0710  0.1822
  706POPI   GL1 9537   5.322  12.387   6.712  0.0464  0.0090  0.1633
  706POPI   GL2 9538   5.379  12.070   6.646 -0.2307  0.1167  0.0944
  706POPI   C1A 9539   5.238  12.277   7.110  0.0482  0.1777 -0.3696
  706POPI   D2A 9540   5.225  12.290   7.569 -0.1700  0.1613  0.2461
  706POPI   C3A 9541   5.363  12.200   8.011 -0.0471  0.0449  0.0531
  706POPI   C4A 9542   5.498  12.393   8.466  0.2394  0.1500  0.0103
  706POPI   C1B 9543   5.504  11.788   6.888 -0.0717 -0.0023  0.2994
  706POPI   C2B 9544   5.460  11.783   7.311 -0.1864  0.0612  0.2791
  706POPI   C3B 9545   5.483  11.714   7.765  0.3410  0.1872 -0.2522
  706POPI   C4B 9546   5.321  11.432   8.113  0.3643  0.0739 -0.0569
  707POPI    C1 9547   2.164  14.543   5.822  0.0590 -0.0379  0.0098
  707POPI    C2 9548   2.324  14.728   6.139 -0.0004  0.0505 -0.0114
  707POPI    C3 9549   2.446  14.822   5.770 -0.0125  0.0289 -0.0209
  707POPI   PO4 9550   1.977  14.331   6.118 -0.1091 -0.1579  0.4609
  707POPI   GL1 9551   1.920  14.403   6.498  0.2856 -0.2951 -0.1572
  707POPI   GL2 9552   1.718  14.201   6.607 -0.0853 -0.1116 -0.0223
  707POPI   C1A 9553   1.684  14.720   6.808 -0.2333  0.3116  0.2051
  707POPI   D2A 9554   1.692  14.936   7.161 -0.0173 -0.2604 -0.0138
  707POPI   C3A 9555   1.703  14.764   7.602  0.1524  0.0789 -0.0254
  707POPI   C4A 9556   1.953  14.582   7.928 -0.0253  0.1238  0.0266
  707POPI   C1B 9557   1.918  14.313   7.011 -0.2647  0.1610 -0.0935
  707POPI   C2B 9558   1.815  14.250   7.461  0.0141 -0.0561  0.4451
  707POPI   C3B 9559   1.684  14.118   7.926 -0.0127 -0.2153 -0.0381
  707POPI   C4B 9560   1.661  13.723   8.147  0.0373 -0.0695  0.1066
  708POPI    C1 9561   3.502   8.155   5.908 -0.2059 -0.0476  0.1497
  708POPI    C2 9562   3.590   8.076   5.526 -0.0511 -0.2436  0.2241
  708POPI    C3 9563   3.427   8.428   5.625 -0.0010 -0.1529 -0.0089
  708POPI   PO4 9564   3.336   7.837   5.947  0.0636  0.2097 -0.1752
  708POPI   GL1 9565   3.209   7.584   6.308 -0.0151  0.2536  0.0917
  708POPI   GL2 9566   3.596   7.604   6.371 -0.1745  0.4464  0.1262
  708POPI   C1A 9567   3.103   7.550   6.711 -0.1253  0.1090  0.0008
  708POPI   D2A 9568   3.120   7.539   7.141  0.1301  0.0030  0.2878
  708POPI   C3A 9569   2.875   7.666   7.556 -0.1288  0.0468  0.0425
  708POPI   C4A 9570   3.127   7.718   7.867  0.1506 -0.1694 -0.0218
  708POPI   C1B 9571   3.538   7.776   6.778 -0.3551  0.1879  0.0488
  708POPI   C2B 9572   3.514   7.802   7.137  0.1496 -0.4253 -0.0753
  708POPI   C3B 9573   3.445   7.643   7.502  0.1372 -0.2922 -0.0618
  708POPI   C4B 9574   3.582   7.571   7.937  0.0445 -0.2683  0.1929
  709POPI    C1 9575  13.260  11.061   6.128  0.2264 -0.1582  0.2266
  709POPI    C2 9576  13.163  11.301   6.432  0.3152  0.0191  0.1166
  709POPI    C3 9577  13.278  11.458   6.083 -0.0870 -0.1768 -0.1109
  709POPI   PO4 9578  13.234  10.726   6.218 -0.1480 -0.1704  0.3251
  709POPI   GL1 9579  13.230  10.580   6.545  0.0693 -0.2013  0.2825
  709POPI   GL2 9580  13.584  10.497   6.509 -0.0531 -0.0513  0.1314
  709POPI   C1A 9581  13.242  10.775   6.858 -0.2501  0.0528 -0.1910
  709POPI   D2A 9582  13.068  10.811   7.339  0.2006 -0.2644  0.3351
  709POPI   C3A 9583  13.244  10.723   7.763  0.0692 -0.0832  0.0440
  709POPI   C4A 9584  13.476  10.646   8.134 -0.0415 -0.2440 -0.0322
  709POPI   C1B 9585  13.622  10.200   6.971  0.2410 -0.0649 -0.0812
  709POPI   C2B 9586  13.465   9.917   7.214 -0.0994 -0.2361 -0.1600
  709POPI   C3B 9587  13.239   9.752   7.508 -0.0187  0.2033 -0.0278
  709POPI   C4B 9588  12.975   9.574   7.860 -0.0945  0.0119 -0.1187
  710POPI    C1 9589  10.627   5.151   5.299  0.0049  0.2594  0.0586
  710POPI    C2 9590  10.356   4.926   5.108  0.0004  0.1769  0.1607
  710POPI    C3 9591  10.388   5.316   5.025  0.3266  0.0500 -0.3612
  710POPI   PO4 9592  10.497   5.074   5.601 -0.2513 -0.1805  0.0738
  710POPI   GL1 9593  10.570   5.137   6.078  0.0747  0.1151  0.2677
  710POPI   GL2 9594  10.286   5.014   6.076 -0.0910  0.0076  0.1641
  710POPI   C1A 9595  10.863   5.334   6.271  0.3043 -0.1151 -0.2039
  710POPI   D2A 9596  10.991   5.511   6.734  0.2705  0.0526 -0.0481
  710POPI   C3A 9597  11.439   5.354   6.668  0.0095  0.0774 -0.1833
  710POPI   C4A 9598  11.870   5.415   6.699 -0.2184 -0.0735  0.2468
  710POPI   C1B 9599  10.330   5.406   6.429  0.1486  0.1716 -0.2242
  710POPI   C2B 9600  10.474   5.706   6.772  0.0073 -0.0673 -0.5541
  710POPI   C3B 9601  10.197   5.584   7.141  0.0369 -0.2879 -0.0519
  710POPI   C4B 9602  10.053   5.491   7.524 -0.0578  0.2476  0.2120
  711POPI    C1 9603  10.823   2.602   5.868 -0.0532  0.0334 -0.0446
  711POPI    C2 9604  11.072   2.555   5.558  0.0739  0.0837  0.0488
  711POPI    C3 9605  10.794   2.843   5.550  0.0927  0.1005 -0.0081
  711POPI   PO4 9606  10.952   2.595   6.037 -0.5311 -0.1462 -0.2391
  711POPI   GL1 9607  11.282   2.584   6.383  0.0363  0.0475 -0.0264
  711POPI   GL2 9608  11.048   2.534   6.693 -0.1626  0.0523 -0.0587
  711POPI   C1A 9609  11.540   2.743   6.763 -0.1414 -0.0578  0.1992
  711POPI   D2A 9610  11.433   2.875   7.190  0.0183  0.2121 -0.1388
  711POPI   C3A 9611  11.526   2.629   7.634 -0.2855 -0.0403 -0.2200
  711POPI   C4A 9612  11.568   2.582   8.084 -0.2664 -0.0821  0.1045
  711POPI   C1B 9613  10.955   2.633   7.091  0.2516 -0.1867 -0.2077
  711POPI   C2B 9614  10.984   2.926   7.439 -0.0148 -0.1864 -0.1349
  711POPI   C3B 9615  10.827   3.098   7.845 -0.0217 -0.0171 -0.3299
  711POPI   C4B 9616  11.015   3.301   8.194 -0.0369  0.0012  0.1607
  712POPI    C1 9617   7.242   4.540   5.812 -0.2964  0.1336 -0.1368
  712POPI    C2 9618   7.412   4.747   5.516 -0.1430  0.0754 -0.0901
  712POPI    C3 9619   7.178   4.434   5.432 -0.0142 -0.0063 -0.1473
  712POPI   PO4 9620   7.477   4.778   6.024 -0.0636 -0.1476 -0.1395
  712POPI   GL1 9621   7.669   4.835   6.375  0.0194  0.3008 -0.2359
  712POPI   GL2 9622   7.948   4.666   6.287 -0.2541  0.1496 -0.0330
  712POPI   C1A 9623   7.493   4.675   6.775 -0.0250  0.2831  0.2433
  712POPI   D2A 9624   7.654   4.304   7.005  0.0680 -0.1439 -0.2043
  712POPI   C3A 9625   7.504   4.182   7.384  0.1960  0.0315  0.1731
  712POPI   C4A 9626   7.421   4.180   7.783 -0.3741  0.0640 -0.3316
  712POPI   C1B 9627   7.984   4.610   6.691 -0.0847  0.1750  0.0223
  712POPI   C2B 9628   8.080   4.539   7.036  0.3114 -0.0728  0.4281
  712POPI   C3B 9629   8.064   4.480   7.512 -0.0235  0.0057  0.1824
  712POPI   C4B 9630   8.349   4.468   7.961 -0.2748  0.2667  0.1395
  713POPI    C1 9631   4.811   9.290   6.099  0.0195 -0.0928 -0.0868
  713POPI    C2 9632   5.158   9.359   5.912 -0.0542  0.3267 -0.0783
  713POPI    C3 9633   4.816   9.495   5.755 -0.1552  0.3792  0.1827
  713POPI   PO4 9634   4.924   9.075   6.271  0.0237  0.3594  0.4262
  713POPI   GL1 9635   4.714   8.807   6.649  0.1392  0.0098  0.0340
  713POPI   GL2 9636   4.706   9.059   6.761 -0.2282 -0.0025 -0.3529
  713POPI   C1A 9637   5.020   8.737   7.023 -0.2249 -0.0997 -0.3206
  713POPI   D2A 9638   5.084   8.961   7.302  0.1530  0.3571 -0.1591
  713POPI   C3A 9639   4.946   9.324   7.234 -0.2349  0.0090  0.0999
  713POPI   C4A 9640   4.849   9.399   7.622 -0.2972 -0.0253  0.0783
  713POPI   C1B 9641   4.572   8.941   7.143  0.4117 -0.2751  0.1307
  713POPI   C2B 9642   4.469   8.993   7.527 -0.0154 -0.1026  0.0669
  713POPI   C3B 9643   4.311   8.953   7.898 -0.1512  0.3159  0.1784
  713POPI   C4B 9644   4.113   8.665   8.145 -0.2953  0.0445 -0.0493
  714POPI    C1 9645   4.392  16.369   6.268 -0.1943  0.0560 -0.1474
  714POPI    C2 9646   4.242  16.636   6.011  0.0304 -0.0299 -0.3726
  714POPI    C3 9647   4.116  16.257   6.002 -0.1496  0.0234 -0.1803
  714POPI   PO4 9648   4.433  16.465   6.478  0.1481  0.0061 -0.1269
  714POPI   GL1 9649   4.341  16.546   6.797 -0.1966 -0.0265  0.1043
  714POPI   GL2 9650   4.176  16.846   6.733 -0.3261  0.0328 -0.0549
  714POPI   C1A 9651   4.248  16.354   7.152  0.1656 -0.0976 -0.2145
  714POPI   D2A 9652   4.342  16.058   7.575  0.0163  0.2365  0.1245
  714POPI   C3A 9653   4.095  15.705   7.765 -0.1249 -0.2664  0.0564
  714POPI   C4A 9654   3.955  15.658   8.164 -0.0982  0.0454 -0.0682
  714POPI   C1B 9655   4.238  16.972   7.163  0.1100 -0.2355  0.3911
  714POPI   C2B 9656   4.227  16.707   7.525 -0.2444 -0.1611 -0.0018
  714POPI   C3B 9657   4.316  16.835   7.917 -0.1904  0.0718 -0.2921
  714POPI   C4B 9658   4.246  17.107   8.173 -0.2470  0.0073 -0.0003
  715POPI    C1 9659  13.684  11.231   5.903  0.0052 -0.0082 -0.0988
  715POPI    C2 9660  14.015  11.125   5.704  0.1822  0.4016 -0.0317
  715POPI    C3 9661  13.657  11.090   5.529  0.2521 -0.0780 -0.0922
  715POPI   PO4 9662  13.767  11.340   6.130  0.4133 -0.0646  0.1803
  715POPI   GL1 9663  14.010  11.561   6.466 -0.0900 -0.0495 -0.2606
  715POPI   GL2 9664  13.638  11.519   6.586 -0.0963  0.2327  0.2092
  715POPI   C1A 9665  13.924  11.870   6.831 -0.2255 -0.0135  0.0840
  715POPI   D2A 9666  13.787  12.064   7.195 -0.0124  0.1974 -0.0643
  715POPI   C3A 9667  13.819  11.779   7.552  0.4044  0.1465 -0.0369
  715POPI   C4A 9668  13.661  11.466   7.918  0.1392  0.0244 -0.1257
  715POPI   C1B 9669  13.951  11.375   6.935 -0.0895  0.1558 -0.2353
  715POPI   C2B 9670  14.113  11.347   7.243 -0.1584  0.0012  0.2247
  715POPI   C3B 9671  13.945  11.180   7.645  0.3247 -0.2050  0.0661
  715POPI   C4B 9672  13.749  10.980   7.969 -0.1190 -0.1442 -0.1472
  716POPI    C1 9673  10.182   3.481   5.849  0.1699 -0.2324  0.0345
  716POPI    C2 9674   9.817   3.576   5.718  0.1846 -0.1086  0.0823
  716POPI    C3 9675  10.117   3.530   5.457  0.1427 -0.1778  0.0459
  716POPI   PO4 9676  10.251   3.654   6.064 -0.2379 -0.0885 -0.1726
  716POPI   GL1 9677  10.101   3.754   6.408  0.1103  0.0174  0.4413
  716POPI   GL2 9678   9.771   3.896   6.439  0.1316 -0.3800  0.2208
  716POPI   C1A 9679  10.184   3.687   6.872  0.0624 -0.2386 -0.1827
  716POPI   D2A 9680  10.373   3.945   7.189 -0.1378 -0.1244  0.0420
  716POPI   C3A 9681  10.326   4.365   7.365  0.2469  0.1383  0.0585
  716POPI   C4A 9682  10.227   4.470   7.791 -0.1479 -0.1712  0.2361
  716POPI   C1B 9683   9.665   3.838   6.820  0.1000  0.2349 -0.1496
  716POPI   C2B 9684   9.852   3.780   7.257  0.3358 -0.1280  0.1583
  716POPI   C3B 9685  10.123   3.572   7.565  0.0827 -0.2276  0.0597
  716POPI   C4B 9686  10.143   3.681   7.941  0.0356  0.3641  0.0034
  717POPI    C1 9687  12.387  10.751   6.376  0.0192  0.2807 -0.0999
  717POPI    C2 9688  12.705  10.942   6.528  0.0911 -0.1509  0.3169
  717POPI    C3 9689  12.743  10.569   6.388 -0.1527 -0.0579 -0.0127
  717POPI   PO4 9690  12.187  10.903   6.548  0.1013  0.0024 -0.3737
  717POPI   GL1 9691  12.116  11.045   7.020  0.1631 -0.1645 -0.3607
  717POPI   GL2 9692  12.387  10.879   7.034 -0.0588  0.0445 -0.0447
  717POPI   C1A 9693  12.042  11.144   7.486 -0.2917  0.1969 -0.2066
  717POPI   D2A 9694  12.078  11.278   7.816  0.0726  0.1311 -0.0376
  717POPI   C3A 9695  11.763  11.319   8.108 -0.2115  0.0460 -0.0368
  717POPI   C4A 9696  11.625  11.437   8.570  0.1468 -0.0855  0.0735
  717POPI   C1B 9697  12.565  10.977   7.457 -0.2402  0.1122 -0.3219
  717POPI   C2B 9698  12.761  10.642   7.829  0.3113  0.1324 -0.0032
  717POPI   C3B 9699  12.869  10.420   8.079  0.0496 -0.2338 -0.0298
  717POPI   C4B 9700  12.805  10.052   8.194 -0.1839 -0.1095  0.2153
  718POPI    C1 9701  14.381  12.019   5.995  0.2077 -0.1375 -0.0138
  718POPI    C2 9702  14.750  12.120   5.879  0.2223 -0.0057  0.1445
  718POPI    C3 9703  14.438  12.349   5.776  0.1686 -0.1794 -0.0876
  718POPI   PO4 9704  14.322  11.977   6.273  0.0905  0.0014  0.0357
  718POPI   GL1 9705  14.562  11.580   6.504  0.1545 -0.0848  0.0910
  718POPI   GL2 9706  14.486  11.273   6.562 -0.1989 -0.1282 -0.0347
  718POPI   C1A 9707  14.415  11.656   6.873  0.0905  0.2127 -0.2091
  718POPI   D2A 9708  14.247  11.805   7.243 -0.1389 -0.0375  0.1077
  718POPI   C3A 9709  14.274  11.590   7.648  0.1241  0.0196 -0.0954
  718POPI   C4A 9710  14.315  11.291   7.929 -0.1599 -0.1592  0.1355
  718POPI   C1B 9711  14.598  11.242   7.022  0.1419  0.2206 -0.0003
  718POPI   C2B 9712  14.657  11.324   7.473 -0.0300  0.1339  0.2402
  718POPI   C3B 9713  14.756  11.530   7.788 -0.0660  0.1626 -0.1153
  718POPI   C4B 9714  15.121  11.514   8.127 -0.0872 -0.0376  0.1384
  719POPI    C1 9715   2.450   2.180   5.553 -0.0015 -0.2414  0.0098
  719POPI    C2 9716   2.795   1.982   5.594  0.1539 -0.0004 -0.1051
  719POPI    C3 9717   2.791   2.381   5.611 -0.1093  0.0023 -0.1836
  719POPI   PO4 9718   2.306   2.058   5.762 -0.0917  0.3249  0.2524
  719POPI   GL1 9719   2.057   2.014   6.141 -0.0983 -0.0530 -0.0274
  719POPI   GL2 9720   2.198   2.218   6.355  0.0803  0.2313 -0.0935
  719POPI   C1A 9721   2.075   1.636   6.524  0.0483  0.1159  0.0994
  719POPI   D2A 9722   2.290   1.267   6.785 -0.2278  0.4172 -0.1931
  719POPI   C3A 9723   2.239   1.313   7.262  0.0444  0.2132 -0.4457
  719POPI   C4A 9724   1.906   1.302   7.512  0.2276  0.4519  0.0020
  719POPI   C1B 9725   2.214   2.052   6.681  0.0292 -0.1382 -0.2309
  719POPI   C2B 9726   2.204   1.799   7.072 -0.2116 -0.0965  0.1199
  719POPI   C3B 9727   2.144   1.731   7.539 -0.0093  0.2466  0.0596
  719POPI   C4B 9728   2.000   1.670   7.928 -0.1679 -0.1110 -0.0170
  720POPI    C1 9729   5.332  17.569   6.250 -0.0184 -0.2146 -0.2160
  720POPI    C2 9730   5.333  17.216   6.062  0.1368 -0.1803 -0.2813
  720POPI    C3 9731   5.618  17.486   5.983  0.1276 -0.1140 -0.0930
  720POPI   PO4 9732   5.285  17.521   6.540 -0.0687  0.2465  0.3297
  720POPI   GL1 9733   5.397  17.683   6.870  0.1203 -0.1276  0.0676
  720POPI   GL2 9734   5.618  17.378   6.872 -0.1368 -0.3148 -0.1961
  720POPI   C1A 9735   5.429  17.773   7.309 -0.3041  0.1521 -0.1766
  720POPI   D2A 9736   5.514  17.689   7.734 -0.0125  0.1392  0.3310
  720POPI   C3A 9737   5.920  17.502   7.783 -0.1857 -0.2578  0.0492
  720POPI   C4A 9738   6.135  17.105   7.932  0.0796 -0.1895 -0.0878
  720POPI   C1B 9739   5.563  17.308   7.296  0.0219 -0.1085  0.0914
  720POPI   C2B 9740   5.588  17.114   7.726 -0.2829  0.1905 -0.0974
  720POPI   C3B 9741   5.587  17.158   8.149  0.1196 -0.0978  0.3257
  720POPI   C4B 9742   5.979  17.162   8.437 -0.1423  0.2578  0.2739
  721POPI    C1 9743  11.712  14.197   6.203 -0.0900 -0.1077 -0.3983
  721POPI    C2 9744  11.731  14.569   6.056 -0.0176 -0.0645 -0.2805
  721POPI    C3 9745  12.026  14.309   5.982  0.0785 -0.0051 -0.1124
  721POPI   PO4 9746  11.748  14.228   6.424  0.1821 -0.0178 -0.3221
  721POPI   GL1 9747  11.893  14.072   6.782  0.0032 -0.0642  0.1223
  721POPI   GL2 9748  11.677  13.899   6.826  0.0956  0.0449 -0.3135
  721POPI   C1A 9749  12.292  13.890   6.887  0.0948 -0.1453 -0.0047
  721POPI   D2A 9750  12.549  13.548   6.808 -0.0814  0.1536 -0.0547
  721POPI   C3A 9751  12.538  13.085   6.917 -0.1121 -0.3046 -0.1484
  721POPI   C4A 9752  12.522  12.838   7.135  0.0218  0.1096  0.2121
  721POPI   C1B 9753  11.754  13.651   7.179 -0.3225  0.0909  0.0067
  721POPI   C2B 9754  11.955  13.466   7.619 -0.1468  0.2979  0.4474
  721POPI   C3B 9755  11.979  13.714   8.029  0.0409  0.2773 -0.1671
  721POPI   C4B 9756  12.033  13.773   8.535  0.0828  0.3428 -0.1806
  722POPI    C1 9757   9.380  14.779   6.139  0.2111  0.0422  0.1656
  722POPI    C2 9758   9.565  15.039   5.898  0.2312  0.0620  0.2023
  722POPI    C3 9759   9.189  15.107   6.015  0.0579 -0.1767 -0.1932
  722POPI   PO4 9760   9.617  14.564   6.264  0.1400 -0.0752 -0.0019
  722POPI   GL1 9761   9.614  14.374   6.631 -0.2509 -0.0796 -0.4168
  722POPI   GL2 9762   9.799  14.578   6.769 -0.0524 -0.0984 -0.4668
  722POPI   C1A 9763   9.429  14.313   7.063  0.3336  0.0498 -0.2575
  722POPI   D2A 9764   9.332  14.394   7.428 -0.1196 -0.0779 -0.1789
  722POPI   C3A 9765   9.355  14.213   7.759 -0.0070  0.2437  0.2306
  722POPI   C4A 9766   9.560  13.991   8.079 -0.1382 -0.2427  0.1584
  722POPI   C1B 9767   9.842  14.399   7.249  0.1772 -0.0876 -0.1462
  722POPI   C2B 9768   9.870  14.290   7.618 -0.2130  0.0719  0.0036
  722POPI   C3B 9769  10.068  13.995   7.967 -0.0029  0.2548  0.1883
  722POPI   C4B 9770  10.115  13.696   8.341  0.0061 -0.1000  0.1311
  723POPI    C1 9771   7.648   2.154   5.549 -0.1765  0.0835  0.0602
  723POPI    C2 9772   7.682   2.537   5.439 -0.0059 -0.0492 -0.3681
  723POPI    C3 9773   8.006   2.302   5.447 -0.1462 -0.2428 -0.3298
  723POPI   PO4 9774   7.587   2.181   5.831  0.0002 -0.0684 -0.2191
  723POPI   GL1 9775   7.572   2.319   6.282  0.4571  0.1621 -0.1530
  723POPI   GL2 9776   7.442   2.533   6.421  0.0736 -0.2790 -0.0864
  723POPI   C1A 9777   7.858   2.261   6.575  0.1168  0.0620  0.0873
  723POPI   D2A 9778   8.058   2.155   6.867  0.1547  0.0022 -0.0979
  723POPI   C3A 9779   7.995   2.404   7.230  0.1088 -0.1203 -0.1052
  723POPI   C4A 9780   7.983   2.439   7.722  0.1284  0.3308 -0.2187
  723POPI   C1B 9781   7.451   2.619   6.819 -0.0347 -0.0075 -0.1433
  723POPI   C2B 9782   7.610   2.790   7.167  0.1509  0.0781  0.1088
  723POPI   C3B 9783   7.491   2.959   7.580  0.2717  0.0724  0.1015
  723POPI   C4B 9784   7.597   3.194   7.875 -0.4273  0.0403 -0.3646
  724POPI    C1 9785  14.273   8.151   5.745  0.1189 -0.1157 -0.0005
  724POPI    C2 9786  14.098   8.259   5.402 -0.0500 -0.1764  0.0657
  724POPI    C3 9787  14.491   8.190   5.412  0.0145  0.1566 -0.0403
  724POPI   PO4 9788  14.301   8.310   5.927 -0.0864 -0.3263 -0.0362
  724POPI   GL1 9789  14.213   8.419   6.397 -0.2802 -0.0934  0.0518
  724POPI   GL2 9790  14.103   8.168   6.389 -0.0679 -0.2975 -0.3382
  724POPI   C1A 9791  14.173   8.481   6.862 -0.0380 -0.1788 -0.1920
  724POPI   D2A 9792  13.898   8.301   7.136 -0.1527  0.2237  0.1316
  724POPI   C3A 9793  13.750   8.413   7.472 -0.0584  0.0940  0.5912
  724POPI   C4A 9794  13.650   8.429   7.897 -0.0485 -0.0522 -0.2008
  724POPI   C1B 9795  14.065   8.036   6.777  0.1876  0.2445  0.0030
  724POPI   C2B 9796  14.193   7.934   7.100  0.5005  0.0417 -0.0140
  724POPI   C3B 9797  14.000   7.823   7.458 -0.0085  0.0745 -0.0968
  724POPI   C4B 9798  13.685   7.857   7.720 -0.0266 -0.1426  0.1084
  725POPI    C1 9799   4.959   1.917   5.880 -0.0102 -0.0417  0.3056
  725POPI    C2 9800   5.324   1.866   5.723 -0.2737 -0.0898 -0.3222
  725POPI    C3 9801   5.191   2.234   5.806 -0.0767 -0.0744 -0.0614
  725POPI   PO4 9802   4.899   1.674   6.053 -0.1463 -0.1485  0.2647
  725POPI   GL1 9803   4.962   1.558   6.531  0.4466 -0.1719 -0.1349
  725POPI   GL2 9804   4.763   1.811   6.550  0.1328  0.0231 -0.2422
  725POPI   C1A 9805   5.034   1.770   6.940  0.2483 -0.0213 -0.0141
  725POPI   D2A 9806   4.858   1.734   7.324 -0.0566  0.1792 -0.0196
  725POPI   C3A 9807   4.782   1.424   7.577 -0.3989  0.1965 -0.0932
  725POPI   C4A 9808   4.965   1.377   7.990 -0.4477  0.1181  0.0279
  725POPI   C1B 9809   4.569   1.515   6.913  0.3035 -0.3443  0.1675
  725POPI   C2B 9810   4.465   1.149   7.126 -0.0293  0.0223 -0.2304
  725POPI   C3B 9811   4.370   1.163   7.599  0.3981 -0.2325  0.0713
  725POPI   C4B 9812   4.524   1.204   7.954 -0.1310 -0.1216  0.2925
  726POPI    C1 9813  16.621   4.477   5.523 -0.0833  0.1675  0.0576
  726POPI    C2 9814  16.930   4.226   5.480 -0.1242  0.1336 -0.0393
  726POPI    C3 9815  16.660   4.264   5.187 -0.2098  0.1665  0.0431
  726POPI   PO4 9816  16.610   4.399   5.817  0.0623  0.0683 -0.0953
  726POPI   GL1 9817  16.525   4.123   6.156 -0.2782 -0.0494  0.0538
  726POPI   GL2 9818  16.281   4.223   6.399 -0.0999 -0.0505  0.2802
  726POPI   C1A 9819  16.632   3.905   6.464  0.1177  0.2219  0.1363
  726POPI   D2A 9820  16.757   3.876   6.964  0.0960  0.1218  0.0884
  726POPI   C3A 9821  17.013   3.583   7.136 -0.1300 -0.0449 -0.1664
  726POPI   C4A 9822  17.231   3.232   6.979 -0.0351  0.2605 -0.1404
  726POPI   C1B 9823  16.140   4.497   6.710  0.1397 -0.1632 -0.1122
  726POPI   C2B 9824  16.192   4.409   7.081  0.0262 -0.1121  0.0506
  726POPI   C3B 9825  16.329   4.402   7.447  0.0342 -0.2284 -0.1908
  726POPI   C4B 9826  16.268   4.363   7.859 -0.0152 -0.0608 -0.0693
  727POPI    C1 9827   1.092  15.981   6.269 -0.1475  0.0997  0.0085
  727POPI    C2 9828   0.991  15.671   6.038  0.1480 -0.1717  0.2358
  727POPI    C3 9829   1.056  16.030   5.874 -0.1576 -0.2356 -0.0342
  727POPI   PO4 9830   1.042  15.782   6.503 -0.0184 -0.0006  0.1334
  727POPI   GL1 9831   1.155  15.513   6.874  0.2926 -0.0998  0.1435
  727POPI   GL2 9832   0.840  15.646   6.952  0.1549 -0.3334 -0.0613
  727POPI   C1A 9833   1.311  15.287   7.203 -0.1368 -0.2038 -0.3587
  727POPI   D2A 9834   1.524  15.312   7.530 -0.4684 -0.0647  0.0016
  727POPI   C3A 9835   1.272  14.992   7.708  0.1014 -0.2433 -0.0720
  727POPI   C4A 9836   0.969  14.800   8.036  0.3181  0.0957 -0.0835
  727POPI   C1B 9837   0.814  15.452   7.306 -0.0344 -0.0306 -0.0668
  727POPI   C2B 9838   0.854  15.144   7.480 -0.0814  0.0457  0.1909
  727POPI   C3B 9839   0.845  14.690   7.579  0.1839 -0.0994 -0.3336
  727POPI   C4B 9840   1.267  14.441   7.853  0.1344  0.0924  0.1896
  728POPI    C1 9841  15.431  13.801   6.629  0.2045 -0.1913  0.1159
  728POPI    C2 9842  15.332  13.848   6.244  0.1581  0.1007  0.1614
  728POPI    C3 9843  15.542  13.528   6.358  0.1150 -0.0217 -0.0953
  728POPI   PO4 9844  15.147  13.870   6.751 -0.1190 -0.2434 -0.1184
  728POPI   GL1 9845  15.020  13.617   7.030 -0.4021  0.1166  0.0872
  728POPI   GL2 9846  15.102  13.346   7.036  0.2034  0.1500  0.0680
  728POPI   C1A 9847  15.039  13.716   7.404 -0.0026  0.1168  0.0547
  728POPI   D2A 9848  15.048  13.830   7.881 -0.2391 -0.0288 -0.1249
  728POPI   C3A 9849  14.831  13.949   8.238 -0.1915  0.0008 -0.0618
  728POPI   C4A 9850  14.982  14.329   8.469 -0.3381 -0.0868 -0.0235
  728POPI   C1B 9851  14.936  13.226   7.421 -0.4281  0.0289  0.0681
  728POPI   C2B 9852  14.790  13.430   7.765 -0.3625  0.0025  0.0387
  728POPI   C3B 9853  14.581  13.574   8.066  0.0545  0.0764  0.2768
  728POPI   C4B 9854  14.522  13.712   8.510 -0.0903  0.1120 -0.1440
  729POPI    C1 9855   8.809  17.176   6.490  0.0205 -0.0967 -0.0235
  729POPI    C2 9856   8.862  16.831   6.294 -0.0316 -0.0941 -0.0421
  729POPI    C3 9857   8.743  17.158   6.096 -0.0600 -0.0851 -0.0107
  729POPI   PO4 9858   8.975  17.164   6.692  0.1626 -0.2232 -0.0847
  729POPI   GL1 9859   9.075  17.417   7.004 -0.1309 -0.0358 -0.0781
  729POPI   GL2 9860   8.977  17.725   7.075 -0.0264 -0.1011  0.0929
  729POPI   C1A 9861   9.267  17.252   7.348  0.0770  0.0167 -0.0227
  729POPI   D2A 9862   9.414  17.050   7.738  0.1660  0.0488 -0.1210
  729POPI   C3A 9863   9.239  17.156   8.142  0.3687  0.1491 -0.0920
  729POPI   C4A 9864   9.249  17.104   8.654  0.4199 -0.0726  0.0029
  729POPI   C1B 9865   9.068  17.796   7.513 -0.0241 -0.0411 -0.1431
  729POPI   C2B 9866   9.227  18.092   7.732  0.3013  0.1488 -0.1007
  729POPI   C3B 9867   9.194  18.255   8.222 -0.2652  0.4877  0.1804
  729POPI   C4B 9868   9.182  17.998   8.549  0.0113  0.1332  0.0875
  730POPI    C1 9869   5.084  15.850   6.201 -0.0181 -0.0689 -0.0210
  730POPI    C2 9870   5.367  16.128   6.148  0.0471 -0.1646 -0.1856
  730POPI    C3 9871   5.033  16.137   5.928 -0.2876  0.2099  0.3138
  730POPI   PO4 9872   4.961  15.777   6.454  0.1431 -0.0600  0.2747
  730POPI   GL1 9873   4.951  15.629   6.821  0.0307 -0.0294  0.0337
  730POPI   GL2 9874   4.991  15.538   7.099 -0.0430 -0.3596 -0.1182
  730POPI   C1A 9875   4.497  15.553   6.938 -0.0108 -0.0719  0.0170
  730POPI   D2A 9876   4.280  15.889   7.061 -0.1905 -0.2086 -0.0103
  730POPI   C3A 9877   3.795  15.937   7.287 -0.0284  0.2927  0.0298
  730POPI   C4A 9878   3.623  15.854   7.749 -0.0898 -0.1683  0.2134
  730POPI   C1B 9879   4.743  15.529   7.416 -0.3153  0.1151  0.1691
  730POPI   C2B 9880   4.591  15.395   7.834 -0.1814  0.0116 -0.2517
  730POPI   C3B 9881   4.436  15.548   8.151  0.0345 -0.1124 -0.0876
  730POPI   C4B 9882   4.472  15.503   8.645  0.1709 -0.1737 -0.3423
  731POPI    C1 9883  13.168   4.993   5.638 -0.3201  0.0244  0.0304
  731POPI    C2 9884  12.948   4.748   5.410 -0.1806 -0.1520  0.0823
  731POPI    C3 9885  13.347   4.730   5.395 -0.1685  0.0797  0.0812
  731POPI   PO4 9886  12.968   4.909   5.936 -0.0965  0.1082  0.2359
  731POPI   GL1 9887  12.757   5.161   6.181  0.1961  0.0044 -0.1471
  731POPI   GL2 9888  12.429   5.186   6.305 -0.1811  0.2163 -0.1670
  731POPI   C1A 9889  13.021   5.007   6.529 -0.0231  0.0141  0.2039
  731POPI   D2A 9890  13.008   4.770   6.845  0.2171 -0.0321  0.1204
  731POPI   C3A 9891  12.965   4.854   7.278  0.0216  0.4646  0.1105
  731POPI   C4A 9892  12.855   4.691   7.669  0.0691 -0.2737  0.0693
  731POPI   C1B 9893  12.551   5.092   6.690  0.0619 -0.0822 -0.2121
  731POPI   C2B 9894  12.786   5.233   7.043 -0.0617  0.0497  0.0587
  731POPI   C3B 9895  12.687   5.170   7.506  0.0566 -0.0677  0.0940
  731POPI   C4B 9896  12.830   5.291   7.853 -0.2259  0.0074 -0.1011
  732POPI    C1 9897   7.129   3.413   5.664 -0.0537  0.2435 -0.1582
  732POPI    C2 9898   7.412   3.561   5.422  0.0347  0.1637 -0.1041
  732POPI    C3 9899   7.201   3.239   5.311  0.1831  0.0320 -0.0092
  732POPI   PO4 9900   7.240   3.337   5.931  0.2458  0.1667 -0.0696
  732POPI   GL1 9901   7.454   3.695   6.112  0.2599 -0.0844  0.4139
  732POPI   GL2 9902   7.215   3.938   6.189  0.0132 -0.0309  0.0540
  732POPI   C1A 9903   7.591   3.662   6.589 -0.3457  0.0421  0.0760
  732POPI   D2A 9904   7.533   3.853   7.023 -0.0630 -0.1060  0.0580
  732POPI   C3A 9905   7.532   3.723   7.479  0.0699 -0.1387  0.1568
  732POPI   C4A 9906   7.591   3.683   7.906  0.1151  0.0289  0.2471
  732POPI   C1B 9907   7.231   3.991   6.634 -0.1665  0.0277 -0.0257
  732POPI   C2B 9908   7.128   4.192   6.972 -0.1514  0.0137  0.0525
  732POPI   C3B 9909   7.000   4.039   7.301 -0.1559 -0.2036 -0.0671
  732POPI   C4B 9910   6.979   3.901   7.710  0.1687 -0.1842 -0.2247
  733POPI    C1 9911   2.166  11.478   6.290  0.0294 -0.2649  0.0580
  733POPI    C2 9912   2.194  11.773   6.021  0.1412 -0.1295  0.2161
  733POPI    C3 9913   1.860  11.554   6.044  0.0921 -0.0748  0.0370
  733POPI   PO4 9914   2.182  11.622   6.514  0.1912 -0.1591 -0.1430
  733POPI   GL1 9915   2.460  11.696   6.768 -0.1477  0.0768 -0.1572
  733POPI   GL2 9916   2.355  11.996   6.863 -0.0089 -0.1094  0.0667
  733POPI   C1A 9917   2.490  11.683   7.264 -0.2465  0.0537 -0.0140
  733POPI   D2A 9918   2.532  11.721   7.636  0.1324 -0.2298  0.1173
  733POPI   C3A 9919   2.607  12.001   8.004 -0.1476 -0.0349 -0.0200
  733POPI   C4A 9920   2.822  12.043   8.394  0.1894 -0.1949 -0.0192
  733POPI   C1B 9921   2.276  12.146   7.304 -0.3652  0.0653 -0.1838
  733POPI   C2B 9922   2.326  12.322   7.673 -0.1759 -0.1558 -0.1653
  733POPI   C3B 9923   2.068  12.111   7.932 -0.1941 -0.2326 -0.2660
  733POPI   C4B 9924   1.803  12.166   8.257  0.0924  0.0351  0.3527
  734POPI    C1 9925   4.199  11.689   6.105 -0.0913 -0.1535  0.0320
  734POPI    C2 9926   4.597  11.657   6.103 -0.1034 -0.3085 -0.0942
  734POPI    C3 9927   4.426  12.014   6.051  0.0173 -0.2675 -0.2168
  734POPI   PO4 9928   4.148  11.548   6.325 -0.1345 -0.0437  0.1298
  734POPI   GL1 9929   4.430  11.492   6.703 -0.0047 -0.1491  0.0576
  734POPI   GL2 9930   4.185  11.332   6.773  0.0200  0.2231 -0.2283
  734POPI   C1A 9931   4.493  11.699   7.207  0.2654  0.1707  0.3239
  734POPI   D2A 9932   4.526  11.744   7.597  0.0123 -0.1038  0.3567
  734POPI   C3A 9933   4.366  11.673   7.965  0.0817  0.0048  0.1353
  734POPI   C4A 9934   4.233  11.574   8.356 -0.0025  0.1307 -0.1923
  734POPI   C1B 9935   4.227  11.264   7.138  0.0920  0.3635  0.2190
  734POPI   C2B 9936   4.128  11.055   7.520 -0.1246 -0.0790  0.1633
  734POPI   C3B 9937   4.250  11.119   7.922  0.0606 -0.2622  0.1342
  734POPI   C4B 9938   4.174  11.053   8.384  0.1182 -0.0997  0.0494
  735POPI    C1 9939   8.396  16.879   6.541 -0.0447 -0.0484 -0.0668
  735POPI    C2 9940   8.208  17.193   6.704  0.1659 -0.0307  0.1481
  735POPI    C3 9941   8.247  17.168   6.307 -0.1460  0.0447  0.1098
  735POPI   PO4 9942   8.314  16.701   6.658 -0.2811 -0.1780  0.0121
  735POPI   GL1 9943   8.182  16.811   7.080  0.0101 -0.3727 -0.2931
  735POPI   GL2 9944   8.385  16.541   7.115 -0.3850  0.0025 -0.0267
  735POPI   C1A 9945   8.229  16.996   7.483  0.2702 -0.0553  0.1396
  735POPI   D2A 9946   8.306  17.085   7.923  0.1405  0.1218  0.0854
  735POPI   C3A 9947   7.995  17.105   8.234 -0.0543  0.1482  0.0637
  735POPI   C4A 9948   7.745  16.982   8.602 -0.0047 -0.0021 -0.1893
  735POPI   C1B 9949   8.416  16.499   7.544  0.0464 -0.2871 -0.1035
  735POPI   C2B 9950   8.380  16.598   7.974  0.0294 -0.0870  0.0682
  735POPI   C3B 9951   8.343  16.812   8.378  0.1662  0.2627 -0.1386
  735POPI   C4B 9952   8.228  17.103   8.741  0.2558 -0.0038 -0.0067
  736POPI    C1 9953   0.024   8.985   5.995 -0.2225 -0.1876 -0.1783
  736POPI    C2 9954  -0.306   9.207   5.953 -0.1005  0.0257 -0.0340
  736POPI    C3 9955   0.014   9.281   5.726 -0.0766 -0.0374 -0.0213
  736POPI   PO4 9956   0.160   9.102   6.236  0.1644  0.5679  0.1480
  736POPI   GL1 9957   0.195   9.032   6.575  0.2554  0.1621  0.2959
  736POPI   GL2 9958   0.286   9.383   6.613  0.1775 -0.0013 -0.2521
  736POPI   C1A 9959  -0.007   9.155   6.925  0.1703 -0.1682 -0.0214
  736POPI   D2A 9960  -0.045   9.066   7.329  0.1206 -0.0837 -0.0022
  736POPI   C3A 9961  -0.418   8.756   7.453 -0.1543 -0.1035  0.1857
  736POPI   C4A 9962  -0.462   8.811   7.879  0.0169 -0.2367  0.2150
  736POPI   C1B 9963   0.438   9.572   6.989 -0.1248 -0.0323 -0.2556
  736POPI   C2B 9964   0.591   9.660   7.410  0.0233  0.0829  0.1179
  736POPI   C3B 9965   0.353   9.676   7.852  0.1284  0.3105 -0.0136
  736POPI   C4B 9966   0.313   9.826   8.285  0.0070  0.0000  0.1546
  737POPI    C1 9967   9.102  17.698   6.573 -0.0883 -0.0438 -0.1438
  737POPI    C2 9968   8.860  17.994   6.455 -0.0947 -0.0388 -0.1183
  737POPI    C3 9969   8.874  17.652   6.248 -0.3565 -0.1588  0.0564
  737POPI   PO4 9970   9.404  17.801   6.615 -0.2329  0.0938 -0.1643
  737POPI   GL1 9971   9.462  17.865   7.018  0.0647  0.0835 -0.1544
  737POPI   GL2 9972   9.350  18.123   7.273  0.0840  0.1395  0.1980
  737POPI   C1A 9973   9.535  17.677   7.463 -0.2863  0.0839  0.0958
  737POPI   D2A 9974   9.366  17.503   7.794  0.1797  0.2896 -0.0464
  737POPI   C3A 9975   9.346  17.767   8.091 -0.0113 -0.0389  0.0527
  737POPI   C4A 9976   9.601  17.937   8.305 -0.1220  0.3659  0.0618
  737POPI   C1B 9977   9.587  18.419   7.489 -0.3532  0.3251  0.0800
  737POPI   C2B 9978   9.517  18.520   7.886 -0.2557  0.2214  0.3343
  737POPI   C3B 9979   9.517  18.584   8.265  0.0084  0.1040 -0.3978
  737POPI   C4B 9980   9.227  18.645   8.646  0.1588 -0.3701  0.1617
  738POPI    C1 9981   2.687   3.877   5.627 -0.3012 -0.1681 -0.1721
  738POPI    C2 9982   2.512   4.122   5.364  0.0813  0.2743 -0.0275
  738POPI    C3 9983   2.759   3.835   5.236 -0.2347  0.0666 -0.1861
  738POPI   PO4 9984   2.590   3.876   5.853  0.0198 -0.3006  0.2808
  738POPI   GL1 9985   2.613   4.189   6.083  0.1804  0.0111  0.0035
  738POPI   GL2 9986   2.609   3.890   6.384 -0.1958  0.0548  0.0334
  738POPI   C1A 9987   2.913   4.354   6.408 -0.0206 -0.5314 -0.1268
  738POPI   D2A 9988   2.962   4.624   6.758 -0.2103  0.0975 -0.0667
  738POPI   C3A 9989   2.724   4.534   7.074  0.1079 -0.0881 -0.1461
  738POPI   C4A 9990   2.585   4.402   7.389 -0.1143 -0.2039  0.0970
  738POPI   C1B 9991   2.811   3.547   6.696  0.0115 -0.1528  0.3556
  738POPI   C2B 9992   2.747   3.342   6.990  0.1992 -0.1542 -0.2532
  738POPI   C3B 9993   2.853   3.397   7.423  0.0553  0.0701 -0.0833
  738POPI   C4B 9994   3.011   3.360   7.831 -0.0806  0.1802  0.0156
  739POPI    C1 9995   4.531   0.757   5.988  0.0049  0.2425 -0.1966
  739POPI    C2 9996   4.870   0.606   6.137 -0.1035  0.0736 -0.1175
  739POPI    C3 9997   4.854   0.723   5.755 -0.0391 -0.1917 -0.2036
  739POPI   PO4 9998   4.451   0.833   6.215 -0.2159  0.3736 -0.2952
  739POPI   GL1 9999   4.314   0.860   6.526 -0.0797  0.2831 -0.1802
  739POPI   GL210000   3.963   0.861   6.455  0.1235 -0.3599 -0.0027
  739POPI   C1A10001   4.447   0.572   6.872  0.0998 -0.2858 -0.1432
  739POPI   D2A10002   4.496   0.698   7.344 -0.3011 -0.2785  0.3976
  739POPI   C3A10003   4.309   0.674   7.716  0.1213 -0.0656 -0.2004
  739POPI   C4A10004   4.247   0.773   8.202  0.0025 -0.2475  0.1598
  739POPI   C1B10005   4.046   0.885   6.914  0.1539 -0.0514  0.1135
  739POPI   C2B10006   3.976   0.988   7.322  0.0154 -0.2965  0.1274
  739POPI   C3B10007   3.880   1.029   7.799  0.0595 -0.1529  0.1949
  739POPI   C4B10008   3.747   0.888   8.105 -0.2318  0.1290 -0.3511
  740POPI    C110009  10.554  16.173   6.329  0.1697 -0.2127 -0.1516
  740POPI    C210010  10.173  16.128   6.216  0.1079  0.1665 -0.1082
  740POPI    C310011  10.466  16.109   5.945  0.0462  0.0318 -0.1662
  740POPI   PO410012  10.537  16.058   6.566 -0.1718  0.2158 -0.2940
  740POPI   GL110013  10.805  16.182   6.963  0.1951  0.0566  0.0938
  740POPI   GL210014  10.566  16.312   7.134 -0.1684 -0.0367 -0.0208
  740POPI   C1A10015  10.987  15.862   7.327 -0.2364 -0.1887  0.2674
  740POPI   D2A10016  11.062  15.589   7.669  0.2481  0.4023  0.1570
  740POPI   C3A10017  11.177  15.634   8.074 -0.0860  0.1434  0.0555
  740POPI   C4A10018  10.967  15.387   8.383  0.0268  0.1326  0.0324
  740POPI   C1B10019  10.758  16.248   7.581  0.3509 -0.1521 -0.1582
  740POPI   C2B10020  10.986  16.132   8.025  0.1867  0.0920 -0.0696
  740POPI   C3B10021  11.052  16.150   8.499 -0.1179 -0.0134 -0.0363
  740POPI   C4B10022  11.078  16.530   8.877  0.3254  0.2507 -0.2520
  741POPI    C110023  16.849   3.501   5.479 -0.0235 -0.0816  0.0921
  741POPI    C210024  17.164   3.747   5.464  0.0741 -0.2096  0.0172
  741POPI    C310025  16.882   3.765   5.181  0.0607 -0.1575  0.0337
  741POPI   PO410026  16.814   3.487   5.724 -0.0308  0.0517  0.0328
  741POPI   GL110027  16.931   3.522   6.175 -0.1460 -0.2171  0.0432
  741POPI   GL210028  17.218   3.709   6.266 -0.1560  0.0008 -0.1126
  741POPI   C1A10029  16.945   3.315   6.582 -0.0156  0.1535  0.1855
  741POPI   D2A10030  16.709   3.395   6.812 -0.1957 -0.3750 -0.0372
  741POPI   C3A10031  16.559   3.500   7.350  0.2267 -0.0287  0.0676
  741POPI   C4A10032  16.805   3.508   7.608  0.0896  0.1824  0.0769
  741POPI   C1B10033  17.273   3.659   6.732 -0.0013  0.1317 -0.1785
  741POPI   C2B10034  17.484   3.701   7.150  0.1337  0.1993  0.3045
  741POPI   C3B10035  17.739   3.578   7.520 -0.1777 -0.2915  0.1152
  741POPI   C4B10036  17.879   3.650   7.920 -0.1358  0.0078  0.3126
  742POPS   CNO10037   9.367   8.991   6.566  0.0554  0.4276  0.0533
  742POPS   PO410038   9.648   9.279   6.618  0.1510 -0.1943 -0.1504
  742POPS   GL110039   9.444   9.324   6.963 -0.1433  0.2259  0.1178
  742POPS   GL210040   9.114   9.143   7.051  0.0245  0.1790  0.0288
  742POPS   C1A10041   9.494   9.207   7.356 -0.0715 -0.3521  0.1510
  742POPS   D2A10042   9.349   9.119   7.751  0.0630  0.1727 -0.1133
  742POPS   C3A10043   9.371   8.962   8.046  0.1155  0.1616 -0.1035
  742POPS   C4A10044   9.455   8.731   8.454  0.0886  0.2136  0.1672
  742POPS   C1B10045   8.896   9.056   7.402 -0.0824 -0.0050 -0.1414
  742POPS   C2B10046   8.849   9.069   7.825 -0.1610  0.1180  0.1675
  742POPS   C3B10047   8.962   9.311   8.193  0.0802 -0.1525 -0.0866
  742POPS   C4B10048   8.875   9.513   8.541 -0.0443  0.2199  0.2202
  743POPS   CNO10049  17.000   9.391   6.209  0.1670 -0.3451 -0.0934
  743POPS   PO410050  17.281   9.704   6.199  0.1646  0.2132  0.4625
  743POPS   GL110051  17.523   9.526   6.496 -0.1932  0.0335 -0.1622
  743POPS   GL210052  17.395   9.283   6.500 -0.0440 -0.1121 -0.3061
  743POPS   C1A10053  17.629   9.633   6.995 -0.2951 -0.0188 -0.0378
  743POPS   D2A10054  17.774   9.668   7.380  0.0451  0.0733 -0.1989
  743POPS   C3A10055  17.487   9.431   7.627 -0.1458 -0.1216 -0.4797
  743POPS   C4A10056  17.366   9.310   7.966 -0.3566 -0.2481  0.1274
  743POPS   C1B10057  17.113   9.173   6.728  0.0650 -0.0092  0.2793
  743POPS   C2B10058  17.193   9.172   7.204  0.1434 -0.0203 -0.1108
  743POPS   C3B10059  16.984   9.149   7.616  0.0017  0.0867 -0.1480
  743POPS   C4B10060  16.906   9.098   8.040 -0.1871 -0.0552 -0.1112
  744POPS   CNO10061   7.414  13.804   6.379  0.1486 -0.1260  0.0857
  744POPS   PO410062   7.564  14.166   6.658 -0.0895 -0.0881  0.0631
  744POPS   GL110063   7.550  14.565   6.924  0.0982  0.1725 -0.1684
  744POPS   GL210064   7.632  14.852   6.872  0.2662 -0.0914 -0.0078
  744POPS   C1A10065   7.430  14.478   7.354  0.1713  0.0786 -0.0323
  744POPS   D2A10066   7.301  14.432   7.752 -0.0563  0.0932  0.2018
  744POPS   C3A10067   7.507  14.425   8.121 -0.0713 -0.0593  0.4778
  744POPS   C4A10068   7.503  14.366   8.613 -0.1871 -0.1033  0.2225
  744POPS   C1B10069   7.706  14.896   7.248  0.1643 -0.0763  0.1350
  744POPS   C2B10070   7.682  14.724   7.731 -0.0656 -0.0512 -0.1176
  744POPS   C3B10071   7.647  14.861   8.198 -0.1233 -0.1037  0.1145
  744POPS   C4B10072   7.873  14.677   8.656 -0.0282 -0.0485 -0.1578
  745POPS   CNO10073   2.857  17.420   6.597  0.0235 -0.0643 -0.0133
  745POPS   PO410074   3.118  17.689   6.385 -0.0346 -0.1541 -0.3489
  745POPS   GL110075   3.070  17.858   6.771  0.2301 -0.1164  0.1336
  745POPS   GL210076   2.792  18.024   6.848 -0.0779 -0.0727  0.0060
  745POPS   C1A10077   3.152  17.835   7.200 -0.2537  0.1786 -0.2895
  745POPS   D2A10078   2.982  17.911   7.537  0.0818 -0.1037  0.0435
  745POPS   C3A10079   3.081  17.755   7.901 -0.1521 -0.3114 -0.0239
  745POPS   C4A10080   2.850  17.669   8.360 -0.4858 -0.0518  0.1454
  745POPS   C1B10081   2.564  17.921   7.194  0.0460 -0.1094 -0.0631
  745POPS   C2B10082   2.511  17.965   7.643 -0.0111  0.3016 -0.0993
  745POPS   C3B10083   2.745  18.088   8.054 -0.3062  0.1521 -0.1421
  745POPS   C4B10084   2.721  18.284   8.377  0.0658  0.1634  0.0282
  746POPS   CNO10085   2.323   8.689   5.752 -0.3511  0.3097  0.0895
  746POPS   PO410086   2.512   8.473   6.035 -0.0534  0.2934 -0.1284
  746POPS   GL110087   2.781   8.469   6.367  0.0722  0.3241  0.1863
  746POPS   GL210088   2.734   8.737   6.479  0.0076  0.2996 -0.1816
  746POPS   C1A10089   2.637   8.212   6.784  0.0469  0.0042 -0.1406
  746POPS   D2A10090   2.502   8.087   7.208  0.0907  0.2733 -0.0570
  746POPS   C3A10091   2.747   8.142   7.574 -0.0229  0.1104  0.1028
  746POPS   C4A10092   2.655   7.955   7.903  0.1141  0.0799 -0.0058
  746POPS   C1B10093   2.867   8.962   6.881  0.0628 -0.2182  0.0401
  746POPS   C2B10094   2.888   9.093   7.257  0.2128  0.0212  0.1366
  746POPS   C3B10095   2.955   8.932   7.727  0.2425 -0.3545 -0.2135
  746POPS   C4B10096   2.953   9.058   8.204  0.2744  0.4476 -0.0284
  747POPS   CNO10097   8.901  15.852   6.362  0.0848  0.1168  0.0358
  747POPS   PO410098   9.106  15.724   6.630  0.0687  0.2077  0.0529
  747POPS   GL110099   9.177  15.669   7.023  0.1412 -0.0099  0.1358
  747POPS   GL210100   8.893  15.777   7.135  0.2764  0.0822  0.1677
  747POPS   C1A10101   9.397  15.673   7.391  0.0783  0.2200 -0.0430
  747POPS   D2A10102   9.515  15.568   7.885 -0.1902  0.0282 -0.0572
  747POPS   C3A10103   9.743  15.255   7.940  0.3295  0.0083 -0.2348
  747POPS   C4A10104  10.025  15.041   8.006 -0.2083 -0.0019  0.1050
  747POPS   C1B10105   8.890  15.586   7.445  0.2870 -0.0377 -0.0093
  747POPS   C2B10106   9.003  15.442   7.855  0.0697  0.0944 -0.0464
  747POPS   C3B10107   9.060  15.634   8.293  0.0052  0.0019 -0.1914
  747POPS   C4B10108   9.258  15.430   8.707 -0.3366  0.1242 -0.0364
  748POPS   CNO10109  13.098   9.621   6.039 -0.1094 -0.0350 -0.1576
  748POPS   PO410110  12.781   9.335   6.014 -0.3050  0.1787 -0.0125
  748POPS   GL110111  13.073   9.141   6.221  0.0985  0.0278  0.1560
  748POPS   GL210112  13.085   9.289   6.536  0.0607  0.2213  0.2414
  748POPS   C1A10113  13.251   8.775   6.492 -0.0822  0.2459  0.2226
  748POPS   D2A10114  13.122   8.406   6.653 -0.4062  0.2250 -0.0052
  748POPS   C3A10115  13.329   8.324   7.077 -0.1490  0.0545  0.0922
  748POPS   C4A10116  13.618   7.936   7.095  0.2639 -0.0356 -0.0182
  748POPS   C1B10117  12.821   9.193   6.847  0.0789  0.0321  0.1681
  748POPS   C2B10118  12.714   8.978   7.216  0.1540  0.1191 -0.2735
  748POPS   C3B10119  12.623   8.879   7.595  0.3127 -0.2486  0.2609
  748POPS   C4B10120  12.985   8.708   7.958 -0.1010 -0.1302 -0.1366
  749POPS   CNO10121   2.532   0.553   5.989 -0.0220  0.2332  0.2050
  749POPS   PO410122   2.796   0.805   6.076  0.1552 -0.0169  0.1442
  749POPS   GL110123   2.928   0.711   6.503  0.3010  0.0774 -0.0462
  749POPS   GL210124   3.180   0.485   6.458 -0.0574  0.0141 -0.0365
  749POPS   C1A10125   2.960   0.769   6.927 -0.3346  0.2602 -0.1883
  749POPS   D2A10126   2.859   0.584   7.244  0.1254  0.0528  0.1039
  749POPS   C3A10127   2.613   0.689   7.653 -0.1153  0.0684  0.2567
  749POPS   C4A10128   2.372   0.747   8.050  0.0598  0.0410 -0.0917
  749POPS   C1B10129   3.379   0.479   6.892  0.4177 -0.0636  0.5130
  749POPS   C2B10130   3.375   0.570   7.341  0.2511 -0.0726 -0.1652
  749POPS   C3B10131   3.179   0.670   7.648  0.2084  0.0347  0.0393
  749POPS   C4B10132   3.131   0.701   8.023  0.3357  0.0661 -0.4108
  750POPS   CNO10133  15.104  15.793   6.386  0.0298 -0.0719  0.0240
  750POPS   PO410134  15.004  16.175   6.122 -0.2299  0.2517  0.3131
  750POPS   GL110135  14.837  16.136   6.564 -0.3208 -0.2986  0.2126
  750POPS   GL210136  14.870  15.824   6.805  0.1404  0.4111 -0.1777
  750POPS   C1A10137  14.697  16.282   7.049 -0.0929  0.1759 -0.1905
  750POPS   D2A10138  14.842  16.577   7.258  0.1541 -0.1692 -0.3338
  750POPS   C3A10139  14.824  16.548   7.709 -0.2647  0.1063 -0.1525
  750POPS   C4A10140  14.749  16.538   8.118 -0.0969 -0.2371 -0.0149
  750POPS   C1B10141  14.922  15.874   7.236  0.0615  0.0991 -0.0469
  750POPS   C2B10142  14.818  16.092   7.549 -0.0319 -0.2147 -0.0375
  750POPS   C3B10143  14.694  16.093   7.921 -0.3866  0.0330  0.3834
  750POPS   C4B10144  14.340  16.080   8.141  0.2548  0.0027 -0.2850
  751POPS   CNO10145   9.119  13.853   6.096  0.0583 -0.0531 -0.1403
  751POPS   PO410146   8.670  13.712   6.152 -0.2763  0.2412 -0.0063
  751POPS   GL110147   8.826  13.739   6.539 -0.1925  0.0985  0.0348
  751POPS   GL210148   9.094  13.866   6.625 -0.2298 -0.2690  0.0610
  751POPS   C1A10149   8.708  13.675   6.947  0.0030 -0.2053  0.1624
  751POPS   D2A10150   8.675  13.613   7.360  0.1707  0.0188 -0.0451
  751POPS   C3A10151   8.883  13.299   7.625  0.0197  0.2676  0.2256
  751POPS   C4A10152   9.205  13.096   7.958  0.1356 -0.2667  0.2747
  751POPS   C1B10153   9.197  13.591   7.004  0.1057 -0.4326 -0.2437
  751POPS   C2B10154   9.275  13.414   7.314  0.1577 -0.0471  0.1538
  751POPS   C3B10155   9.504  13.328   7.593 -0.2212 -0.2059 -0.0489
  751POPS   C4B10156   9.800  13.067   7.858  0.1378  0.1616  0.0761
  752POPS   CNO10157   0.959   5.841   5.738 -0.0522  0.1984 -0.2353
  752POPS   PO410158   1.341   5.765   5.826 -0.0282  0.0560 -0.1681
  752POPS   GL110159   1.261   5.487   6.082  0.0132 -0.3231  0.1501
  752POPS   GL210160   1.280   5.177   6.012 -0.0852 -0.0077 -0.0325
  752POPS   C1A10161   1.330   5.361   6.466 -0.0778 -0.1100  0.0122
  752POPS   D2A10162   1.307   5.459   6.862 -0.1407  0.0225  0.2396
  752POPS   C3A10163   1.081   5.589   7.303  0.1623  0.0322 -0.2143
  752POPS   C4A10164   0.883   5.693   7.732  0.0284 -0.1457  0.2352
  752POPS   C1B10165   1.491   4.887   6.396 -0.1639 -0.2303 -0.0087
  752POPS   C2B10166   1.425   4.987   6.827 -0.1928 -0.0561 -0.1623
  752POPS   C3B10167   1.561   5.126   7.209 -0.1156  0.2516 -0.1710
  752POPS   C4B10168   1.672   5.094   7.622 -0.2223  0.1017  0.1283
  753POPS   CNO10169   8.346   4.579   6.001 -0.2034  0.2954 -0.1738
  753POPS   PO410170   8.510   4.838   6.210 -0.1084 -0.1725  0.0343
  753POPS   GL110171   8.397   4.727   6.488  0.0780 -0.0149  0.1014
  753POPS   GL210172   8.238   5.023   6.612  0.2854  0.1866 -0.0681
  753POPS   C1A10173   8.669   4.596   6.865 -0.2119  0.1223 -0.0621
  753POPS   D2A10174   8.546   4.564   7.307  0.3008 -0.0942  0.2028
  753POPS   C3A10175   8.426   4.841   7.658 -0.2117 -0.2773 -0.0638
  753POPS   C4A10176   8.466   5.095   7.975  0.3320 -0.0059  0.0581
  753POPS   C1B10177   8.333   4.932   7.050  0.2898 -0.2024  0.2216
  753POPS   C2B10178   8.024   4.979   7.385  0.0190 -0.0576  0.1056
  753POPS   C3B10179   7.630   5.193   7.526  0.1203 -0.3121 -0.0497
  753POPS   C4B10180   7.651   5.623   7.812 -0.0647  0.0892  0.0367
  754POPS   CNO10181  12.840  11.579   5.633 -0.1528  0.0387  0.1226
  754POPS   PO410182  12.777  11.531   6.062 -0.2876  0.1652 -0.1534
  754POPS   GL110183  12.647  11.609   6.485 -0.1555 -0.3572 -0.1734
  754POPS   GL210184  12.492  11.378   6.626  0.1122 -0.2241  0.1880
  754POPS   C1A10185  12.917  11.617   6.798  0.1558  0.1063  0.0825
  754POPS   D2A10186  12.966  11.882   7.219 -0.2480  0.0594  0.0442
  754POPS   C3A10187  13.291  11.878   7.448  0.0837 -0.0046  0.1887
  754POPS   C4A10188  13.220  11.757   7.842  0.1938 -0.2024  0.0684
  754POPS   C1B10189  12.558  11.465   7.088  0.0830  0.0448 -0.1720
  754POPS   C2B10190  12.981  11.308   7.372  0.1363  0.1576  0.1785
  754POPS   C3B10191  13.133  11.227   7.916 -0.0729 -0.2817  0.1859
  754POPS   C4B10192  13.325  11.318   8.263  0.2236  0.1644  0.3589
  755POPS   CNO10193   9.231   8.847   6.076 -0.1439 -0.0056  0.0297
  755POPS   PO410194   9.048   8.641   6.354  0.1608 -0.0160 -0.0158
  755POPS   GL110195   9.098   8.559   6.773  0.0994  0.1699  0.0866
  755POPS   GL210196   9.332   8.490   6.831  0.2680  0.0175  0.2872
  755POPS   C1A10197   8.850   8.590   7.204 -0.1710 -0.1532  0.0951
  755POPS   D2A10198   8.610   8.534   7.558 -0.1231 -0.0481  0.1110
  755POPS   C3A10199   8.805   8.532   7.912 -0.0335 -0.4740 -0.1341
  755POPS   C4A10200   8.917   8.792   8.272 -0.2106 -0.1012  0.2865
  755POPS   C1B10201   9.330   8.670   7.208 -0.0875 -0.2020 -0.2206
  755POPS   C2B10202   9.212   8.596   7.641 -0.0798  0.0641  0.4023
  755POPS   C3B10203   9.281   8.408   8.046 -0.0932  0.1829  0.5287
  755POPS   C4B10204   9.094   8.324   8.408 -0.4796 -0.5430 -0.0725
  756POPS   CNO10205  14.541   5.521   6.255  0.1071  0.0328 -0.1581
  756POPS   PO410206  14.842   5.377   5.971 -0.2395  0.3822 -0.3338
  756POPS   GL110207  15.060   5.276   6.377 -0.0663 -0.2390 -0.0766
  756POPS   GL210208  15.133   5.535   6.540 -0.1677 -0.0423 -0.2289
  756POPS   C1A10209  15.427   5.193   6.752  0.0554 -0.2209 -0.0383
  756POPS   D2A10210  15.486   5.348   7.193 -0.2307 -0.1675  0.1532
  756POPS   C3A10211  15.855   5.231   7.490  0.0561  0.1578 -0.0147
  756POPS   C4A10212  15.961   5.296   7.853  0.0276  0.1317 -0.1471
  756POPS   C1B10213  14.842   5.750   6.721  0.0932 -0.3127  0.2714
  756POPS   C2B10214  14.616   5.778   7.070 -0.3206 -0.1240 -0.0601
  756POPS   C3B10215  14.488   5.938   7.507  0.0025 -0.0820  0.3159
  756POPS   C4B10216  14.515   5.770   7.934 -0.0105  0.0011 -0.3504
  757POPS   CNO10217   0.778   7.793   6.183 -0.2226 -0.3341 -0.0762
  757POPS   PO410218   0.926   7.312   6.147  0.0649 -0.1752  0.0691
  757POPS   GL110219   0.823   7.337   6.421  0.1908  0.0621 -0.0485
  757POPS   GL210220   1.014   7.492   6.579  0.1469  0.2486 -0.2687
  757POPS   C1A10221   0.727   7.450   6.959  0.5813 -0.1523  0.1008
  757POPS   D2A10222   0.799   7.426   7.377  0.3051  0.0615  0.2063
  757POPS   C3A10223   1.239   7.545   7.530 -0.1098 -0.0095  0.2560
  757POPS   C4A10224   1.750   7.471   7.606 -0.2966 -0.0828  0.1924
  757POPS   C1B10225   1.205   7.653   6.993 -0.0857  0.0376 -0.1079
  757POPS   C2B10226   1.657   7.702   7.217  0.2729  0.1872 -0.0304
  757POPS   C3B10227   1.710   7.962   7.617  0.0158  0.1643  0.2838
  757POPS   C4B10228   1.560   8.298   7.669  0.1294  0.1690 -0.0357
  758POPS   CNO10229  14.509   2.675   5.492  0.1517  0.0821  0.4096
  758POPS   PO410230  14.404   2.366   5.856  0.1474  0.1721 -0.0711
  758POPS   GL110231  14.441   2.525   6.249 -0.0550 -0.0044 -0.0104
  758POPS   GL210232  14.266   2.402   6.499 -0.2254  0.0147 -0.0236
  758POPS   C1A10233  14.419   2.869   6.397 -0.1092  0.3771  0.0893
  758POPS   D2A10234  14.197   2.955   6.746  0.0986  0.0249 -0.0818
  758POPS   C3A10235  14.360   3.297   6.821 -0.2344 -0.1205 -0.1743
  758POPS   C4A10236  14.573   3.534   6.882 -0.0773 -0.1079  0.0464
  758POPS   C1B10237  14.273   2.330   6.954  0.0754  0.1286  0.2116
  758POPS   C2B10238  14.231   2.693   7.199  0.1850 -0.1884  0.0201
  758POPS   C3B10239  14.173   2.864   7.596  0.1626  0.1607  0.0808
  758POPS   C4B10240  14.272   2.887   8.076 -0.1623 -0.1705 -0.0055
  759POPS   CNO10241  11.926   3.458   5.679 -0.1198  0.0923  0.0790
  759POPS   PO410242  12.291   3.523   5.928 -0.0264 -0.1612 -0.2478
  759POPS   GL110243  12.539   3.525   6.255 -0.1167 -0.0570 -0.3556
  759POPS   GL210244  12.694   3.798   6.395  0.0724  0.0622  0.1824
  759POPS   C1A10245  12.476   3.292   6.585 -0.0127 -0.0970 -0.0599
  759POPS   D2A10246  12.306   3.188   6.932  0.0323  0.0431  0.2436
  759POPS   C3A10247  12.011   3.453   7.043 -0.0993 -0.2240  0.0894
  759POPS   C4A10248  12.018   3.847   7.277  0.0041  0.1073  0.1096
  759POPS   C1B10249  12.925   3.381   6.583 -0.1500  0.1977 -0.0067
  759POPS   C2B10250  12.834   3.209   6.963 -0.3135  0.0501  0.0501
  759POPS   C3B10251  12.792   2.916   7.175  0.0196 -0.0770  0.2605
  759POPS   C4B10252  12.858   3.020   7.541 -0.2426  0.1029 -0.1634
  760POPS   CNO10253  13.781   3.910   5.586 -0.0611 -0.1138  0.2670
  760POPS   PO410254  13.638   4.183   5.976 -0.0310  0.1563  0.0799
  760POPS   GL110255  13.368   4.320   6.342  0.1139  0.0747  0.2691
  760POPS   GL210256  13.092   4.545   6.331 -0.0821  0.0158 -0.0523
  760POPS   C1A10257  13.265   4.307   6.811 -0.1186  0.2675  0.0697
  760POPS   D2A10258  13.321   4.488   7.196  0.1550 -0.1820  0.1051
  760POPS   C3A10259  13.276   4.403   7.577 -0.0975 -0.1089  0.0162
  760POPS   C4A10260  13.343   4.553   7.903  0.0366 -0.1057 -0.3411
  760POPS   C1B10261  12.826   4.245   6.592 -0.3912  0.0190  0.0145
  760POPS   C2B10262  12.877   4.332   7.051 -0.1584 -0.0327  0.1777
  760POPS   C3B10263  12.746   4.294   7.421 -0.3054  0.1510  0.0986
  760POPS   C4B10264  12.414   4.214   7.592  0.1469  0.0917 -0.3388
  761POPS   CNO10265  10.686  17.334   6.961 -0.0969  0.2005 -0.0434
  761POPS   PO410266  10.953  17.059   6.662  0.0763 -0.2521  0.2654
  761POPS   GL110267  11.187  16.974   7.015 -0.2552  0.0787 -0.1494
  761POPS   GL210268  11.036  17.047   7.253  0.1167 -0.0699 -0.1860
  761POPS   C1A10269  11.528  16.994   7.453 -0.2651 -0.0682  0.2520
  761POPS   D2A10270  11.495  16.865   7.944 -0.3178  0.0601  0.0120
  761POPS   C3A10271  11.709  17.060   8.286  0.0183 -0.0639 -0.0921
  761POPS   C4A10272  11.731  17.114   8.659  0.4443  0.2151  0.0367
  761POPS   C1B10273  11.083  17.002   7.659  0.1871  0.2482  0.1991
  761POPS   C2B10274  10.994  16.945   8.057 -0.1517 -0.1037 -0.0350
  761POPS   C3B10275  10.955  17.085   8.378 -0.2373  0.0371  0.1686
  761POPS   C4B10276  11.245  17.291   8.576  0.0870  0.1829 -0.1651
  762POPS   CNO10277  12.002   8.528   5.452 -0.2142  0.1550  0.2186
  762POPS   PO410278  12.168   8.455   5.809 -0.2243 -0.0192  0.3274
  762POPS   GL110279  12.373   8.223   6.108 -0.0737  0.1394 -0.0652
  762POPS   GL210280  12.507   8.429   6.216 -0.1584 -0.1127  0.0752
  762POPS   C1A10281  12.373   7.875   6.394 -0.2390 -0.0912  0.2849
  762POPS   D2A10282  12.594   7.660   6.271  0.1649  0.1543  0.0898
  762POPS   C3A10283  12.769   7.537   6.678  0.1225  0.0556  0.3843
  762POPS   C4A10284  12.735   7.511   7.139  0.4198  0.3090 -0.0676
  762POPS   C1B10285  12.419   8.300   6.693 -0.1719 -0.3692 -0.1520
  762POPS   C2B10286  12.340   8.359   7.173 -0.0545  0.1428  0.2839
  762POPS   C3B10287  12.467   8.423   7.557  0.0669 -0.0089  0.1980
  762POPS   C4B10288  12.811   8.236   7.685 -0.0311 -0.2012 -0.4051
  763POPS   CNO10289   3.501   5.444   5.731  0.1090 -0.1257 -0.2845
  763POPS   PO410290   3.439   5.002   5.747  0.1267 -0.2996  0.0841
  763POPS   GL110291   3.698   5.058   6.156  0.0038 -0.1733 -0.0544
  763POPS   GL210292   4.036   4.998   6.216  0.0513 -0.1025 -0.0260
  763POPS   C1A10293   3.845   5.373   6.513  0.4099 -0.1527 -0.0517
  763POPS   D2A10294   3.786   5.330   6.953  0.1903 -0.5058 -0.0994
  763POPS   C3A10295   3.487   5.288   7.321  0.1185  0.0215  0.1138
  763POPS   C4A10296   3.519   5.085   7.650 -0.0661  0.2611 -0.1155
  763POPS   C1B10297   3.987   4.950   6.694 -0.5034 -0.0074  0.0576
  763POPS   C2B10298   4.167   5.020   7.195 -0.1615 -0.1555  0.0829
  763POPS   C3B10299   4.195   5.004   7.646  0.0180 -0.0585 -0.0412
  763POPS   C4B10300   4.393   5.122   8.049  0.0621  0.0662 -0.1088
  764POPS   CNO10301   3.020  12.336   5.997  0.1498 -0.1824 -0.1857
  764POPS   PO410302   2.809  12.419   6.384 -0.0813 -0.0316 -0.1865
  764POPS   GL110303   2.813  12.574   6.761  0.0717 -0.0384  0.2881
  764POPS   GL210304   2.528  12.475   6.841 -0.1388 -0.0967 -0.2841
  764POPS   C1A10305   2.895  12.671   7.191  0.2031  0.0213 -0.0656
  764POPS   D2A10306   2.735  12.699   7.611 -0.2592  0.2463  0.3302
  764POPS   C3A10307   2.945  12.513   7.997  0.0577 -0.1006 -0.1381
  764POPS   C4A10308   3.008  12.603   8.351  0.1090 -0.2988  0.3158
  764POPS   C1B10309   2.370  12.620   7.271 -0.3531 -0.0731 -0.1253
  764POPS   C2B10310   2.156  12.791   7.581 -0.1601 -0.0228 -0.1134
  764POPS   C3B10311   2.044  12.910   7.921 -0.3953 -0.0400 -0.2737
  764POPS   C4B10312   2.108  12.567   8.132  0.0321  0.0145 -0.1944
  765POPS   CNO10313  12.034   0.822   6.088  0.2019  0.0977  0.0291
  765POPS   PO410314  12.305   0.535   6.175  0.0643  0.2464  0.1963
  765POPS   GL110315  12.147   0.633   6.616 -0.0981 -0.2398  0.0234
  765POPS   GL210316  12.354   0.424   6.737  0.1552  0.0955  0.1131
  765POPS   C1A10317  12.070   1.003   6.910 -0.1436 -0.2848 -0.2458
  765POPS   D2A10318  11.971   0.959   7.336 -0.0240  0.0432 -0.3387
  765POPS   C3A10319  11.840   1.172   7.562  0.0408  0.1398 -0.2560
  765POPS   C4A10320  11.775   1.564   7.603 -0.5250 -0.1699 -0.1291
  765POPS   C1B10321  12.221   0.513   7.163 -0.1656  0.2319  0.0395
  765POPS   C2B10322  12.497   0.353   7.557  0.0127  0.0188  0.0033
  765POPS   C3B10323  12.420   0.249   8.074 -0.1538 -0.1021  0.0211
  765POPS   C4B10324  12.259   0.168   8.487 -0.1848 -0.0457 -0.0670
  766POPS   CNO10325   3.683   5.971   5.590  0.1736 -0.1149 -0.2430
  766POPS   PO410326   3.399   6.332   5.719  0.0604  0.1128 -0.1938
  766POPS   GL110327   3.521   6.307   6.142  0.1441 -0.0981  0.0558
  766POPS   GL210328   3.818   6.007   6.210 -0.1421  0.1601 -0.2045
  766POPS   C1A10329   3.662   6.316   6.605 -0.1032 -0.0820  0.0388
  766POPS   D2A10330   3.676   6.254   7.107 -0.1112  0.1509 -0.0757
  766POPS   C3A10331   3.811   6.059   7.488 -0.3199  0.0598 -0.2011
  766POPS   C4A10332   3.938   5.812   7.860 -0.0308 -0.0648  0.4021
  766POPS   C1B10333   4.090   5.899   6.514  0.1432  0.1025 -0.0116
  766POPS   C2B10334   4.086   5.747   6.900 -0.2771  0.2482  0.1141
  766POPS   C3B10335   4.111   5.668   7.327 -0.0289  0.0954 -0.1946
  766POPS   C4B10336   3.897   5.399   7.563  0.1551 -0.2623 -0.0198
  767POPS   CNO10337  13.380   7.977   5.327 -0.2425  0.0832  0.1255
  767POPS   PO410338  13.603   7.544   5.446 -0.2160 -0.0114  0.3272
  767POPS   GL110339  13.595   7.439   5.901  0.0216  0.0647  0.0574
  767POPS   GL210340  13.373   7.269   6.015 -0.1893 -0.1427 -0.4076
  767POPS   C1A10341  14.008   7.309   6.152 -0.0670 -0.1441  0.0650
  767POPS   D2A10342  14.092   7.125   6.456 -0.0827 -0.1898  0.0146
  767POPS   C3A10343  13.877   6.959   6.853  0.0546 -0.1840 -0.0130
  767POPS   C4A10344  13.787   6.611   7.211 -0.1465 -0.1323  0.3703
  767POPS   C1B10345  13.556   7.152   6.308 -0.2657  0.1779 -0.1475
  767POPS   C2B10346  13.415   7.096   6.748  0.0692 -0.1071  0.1368
  767POPS   C3B10347  13.448   7.016   7.136  0.0865 -0.3377 -0.0089
  767POPS   C4B10348  13.225   6.935   7.476 -0.0403  0.0959 -0.0055
  768POPS   CNO10349  11.483  11.312   5.947  0.1562 -0.4090  0.1992
  768POPS   PO410350  11.053  11.316   6.224  0.1310 -0.0708 -0.1418
  768POPS   GL110351  10.995  11.265   6.600  0.4405 -0.1112  0.0253
  768POPS   GL210352  11.105  11.004   6.705  0.0276  0.0002 -0.3768
  768POPS   C1A10353  11.010  11.329   7.110 -0.0445 -0.0148  0.0855
  768POPS   D2A10354  11.045  11.343   7.510 -0.1925 -0.2787  0.3449
  768POPS   C3A10355  10.801  11.300   7.800 -0.0152  0.1011  0.0467
  768POPS   C4A10356  10.742  11.623   8.070  0.0684 -0.0976 -0.2007
  768POPS   C1B10357  11.198  10.875   7.106 -0.0342  0.0260 -0.0082
  768POPS   C2B10358  11.139  10.843   7.567 -0.0974  0.0969  0.1160
  768POPS   C3B10359  11.202  11.057   7.943 -0.3081  0.3960 -0.1353
  768POPS   C4B10360  11.424  10.996   8.332  0.0247 -0.1566  0.1826
  769POPS   CNO10361   9.409   7.830   6.080 -0.0281  0.2690 -0.2110
  769POPS   PO410362   9.117   7.617   6.264  0.0550 -0.1549 -0.1108
  769POPS   GL110363   8.844   7.832   6.574  0.0179  0.2336  0.1375
  769POPS   GL210364   8.708   8.202   6.562  0.3405  0.0219  0.0450
  769POPS   C1A10365   8.753   7.597   6.968  0.3530  0.0474  0.0087
  769POPS   D2A10366   8.740   7.718   7.395 -0.1533  0.0228 -0.1519
  769POPS   C3A10367   8.889   7.554   7.804  0.0597  0.4010 -0.1193
  769POPS   C4A10368   9.065   7.387   8.195 -0.2274  0.0165  0.0547
  769POPS   C1B10369   8.784   8.143   7.041 -0.3989 -0.1100  0.3471
  769POPS   C2B10370   9.024   8.164   7.418  0.0698  0.6333  0.4900
  769POPS   C3B10371   8.959   8.016   7.828  0.0275 -0.1729 -0.1956
  769POPS   C4B10372   9.049   7.869   8.319 -0.1514  0.1210 -0.3482
  770POPS   CNO10373   2.676   5.845   5.826 -0.3346  0.0576  0.0686
  770POPS   PO410374   3.137   5.905   5.650  0.0085  0.2623  0.1131
  770POPS   GL110375   3.168   5.682   6.023 -0.2793 -0.2207 -0.2962
  770POPS   GL210376   3.537   5.578   6.200 -0.0227  0.1716 -0.1639
  770POPS   C1A10377   3.151   5.630   6.512 -0.3418 -0.0632 -0.2152
  770POPS   D2A10378   3.325   5.471   6.838  0.2050 -0.0258  0.2942
  770POPS   C3A10379   3.038   5.613   7.237 -0.0440 -0.2529  0.1292
  770POPS   C4A10380   2.664   5.878   7.352  0.2481 -0.0923  0.1177
  770POPS   C1B10381   3.585   5.797   6.617 -0.3749  0.0726  0.3836
  770POPS   C2B10382   3.521   5.832   7.140  0.1450  0.1956 -0.0430
  770POPS   C3B10383   3.473   5.716   7.582  0.1980 -0.1582 -0.1513
  770POPS   C4B10384   3.490   5.507   7.987  0.4725  0.0333 -0.2135
  771POPS   CNO10385  14.091   7.782   6.089  0.0083  0.1049  0.0650
  771POPS   PO410386  14.499   7.697   5.815  0.0790  0.0585 -0.2870
  771POPS   GL110387  14.543   7.498   6.158  0.0701  0.2932 -0.0212
  771POPS   GL210388  14.561   7.178   6.140 -0.0999  0.0458  0.1804
  771POPS   C1A10389  14.337   7.622   6.483  0.1234  0.3171 -0.0610
  771POPS   D2A10390  14.368   7.495   6.906 -0.0228  0.2208  0.0683
  771POPS   C3A10391  14.242   7.342   7.320  0.1506 -0.1813  0.1880
  771POPS   C4A10392  14.102   7.004   7.439  0.2889  0.0169  0.0342
  771POPS   C1B10393  14.558   7.175   6.553  0.4449 -0.0384  0.0765
  771POPS   C2B10394  14.356   7.042   6.940 -0.0099  0.3269  0.1384
  771POPS   C3B10395  14.379   6.679   7.240  0.0957 -0.0427  0.0132
  771POPS   C4B10396  14.137   6.498   7.619  0.0992 -0.0796 -0.3261
  772POPS   CNO10397   4.536  11.205   6.307  0.1955  0.2538 -0.2437
  772POPS   PO410398   4.985  11.279   6.178  0.0925 -0.1406 -0.0815
  772POPS   GL110399   5.271  11.203   6.457 -0.1303  0.0753 -0.3275
  772POPS   GL210400   5.290  11.447   6.678 -0.0586 -0.0647 -0.0560
  772POPS   C1A10401   5.370  10.889   6.783 -0.2159  0.0506  0.1215
  772POPS   D2A10402   5.573  10.936   7.200  0.1246  0.0638  0.3247
  772POPS   C3A10403   5.566  10.736   7.499  0.1113  0.0342 -0.0535
  772POPS   C4A10404   5.372  10.713   7.888 -0.1069  0.0066  0.2673
  772POPS   C1B10405   5.219  11.287   7.043 -0.0617 -0.0332  0.1042
  772POPS   C2B10406   5.384  11.314   7.414  0.1059  0.1394 -0.1753
  772POPS   C3B10407   5.619  11.152   7.720 -0.1319 -0.0899 -0.2019
  772POPS   C4B10408   5.875  11.304   8.133  0.1426  0.0523  0.0435
  773POPS   CNO10409   5.888   5.800   5.784 -0.0349 -0.1314  0.1402
  773POPS   PO410410   5.507   5.887   5.681 -0.0100 -0.0237  0.0292
  773POPS   GL110411   5.146   5.869   5.954  0.1592 -0.1795  0.1845
  773POPS   GL210412   4.944   6.183   6.009 -0.0562 -0.3906  0.2978
  773POPS   C1A10413   4.796   5.703   6.326  0.0773  0.1241  0.0267
  773POPS   D2A10414   4.606   5.869   6.593  0.0346 -0.0772  0.0322
  773POPS   C3A10415   4.568   5.911   7.010 -0.1303  0.0703  0.1050
  773POPS   C4A10416   4.227   6.104   7.164  0.0266  0.3134 -0.0838
  773POPS   C1B10417   4.607   6.413   6.310  0.0152 -0.0158 -0.0443
  773POPS   C2B10418   4.516   6.840   6.509 -0.0432 -0.0991 -0.1138
  773POPS   C3B10419   4.327   7.136   6.793 -0.1001  0.2233  0.3494
  773POPS   C4B10420   4.137   7.165   7.123  0.3064  0.0657 -0.0924
  774POPS   CNO10421  16.409   5.689   5.899  0.0682 -0.1862  0.2757
  774POPS   PO410422  16.576   6.042   5.843  0.2643  0.0991 -0.0734
  774POPS   GL110423  16.485   6.177   6.247  0.0275  0.1604  0.2197
  774POPS   GL210424  16.643   5.900   6.361  0.0184  0.3787  0.1474
  774POPS   C1A10425  16.171   6.135   6.651  0.0883 -0.0296  0.2522
  774POPS   D2A10426  16.132   6.464   7.047 -0.0090 -0.3656 -0.0991
  774POPS   C3A10427  16.008   6.773   6.946  0.0302 -0.1852 -0.2802
  774POPS   C4A10428  15.910   6.986   6.642 -0.0739  0.1282  0.1688
  774POPS   C1B10429  16.728   5.789   6.799  0.0563  0.1393 -0.0277
  774POPS   C2B10430  16.643   5.548   7.134  0.1607  0.2251 -0.2505
  774POPS   C3B10431  16.252   5.343   7.254 -0.3162 -0.2572  0.0120
  774POPS   C4B10432  15.918   5.249   6.966  0.0442  0.0958  0.0137
  775POPS   CNO10433  14.993  15.104   6.808 -0.2641  0.0347 -0.1690
  775POPS   PO410434  15.071  14.738   6.760  0.1167 -0.0733 -0.0084
  775POPS   GL110435  14.859  14.579   7.066 -0.0413  0.1042 -0.1140
  775POPS   GL210436  15.103  14.252   7.163 -0.2013  0.0718  0.1797
  775POPS   C1A10437  14.729  14.645   7.437  0.3130  0.1996 -0.0093
  775POPS   D2A10438  14.690  14.849   7.726 -0.2227  0.1370  0.0967
  775POPS   C3A10439  14.584  15.104   8.120  0.1379  0.1723  0.0751
  775POPS   C4A10440  14.429  15.173   8.535 -0.0881  0.3660 -0.1974
  775POPS   C1B10441  15.158  14.257   7.616  0.1584 -0.1972  0.0380
  775POPS   C2B10442  15.305  14.243   8.024 -0.0262 -0.1252 -0.4062
  775POPS   C3B10443  15.435  14.504   8.345  0.0463  0.0222  0.0559
  775POPS   C4B10444  15.785  14.610   8.661 -0.0854 -0.3251  0.0699
  776POPS   CNO10445  11.157  14.011   6.521  0.1026  0.2395 -0.1443
  776POPS   PO410446  11.411  13.822   6.391 -0.0800 -0.3312 -0.1810
  776POPS   GL110447  11.450  13.493   6.646  0.0666  0.0257 -0.1838
  776POPS   GL210448  11.547  13.263   6.763 -0.2701  0.0150 -0.1431
  776POPS   C1A10449  11.282  13.608   7.047  0.2714 -0.2087  0.1654
  776POPS   D2A10450  11.367  13.901   7.408  0.0538  0.1963 -0.1597
  776POPS   C3A10451  11.413  13.835   7.870 -0.1187 -0.0417  0.2415
  776POPS   C4A10452  11.273  13.965   8.219  0.2258 -0.3259 -0.2450
  776POPS   C1B10453  11.567  13.148   7.203 -0.3742 -0.3742 -0.1682
  776POPS   C2B10454  11.720  12.974   7.472  0.1085 -0.0550 -0.1799
  776POPS   C3B10455  12.009  12.857   7.958 -0.0482 -0.3596  0.3873
  776POPS   C4B10456  12.063  12.699   8.361  0.0365 -0.0637 -0.1260
  777POPS   CNO10457   9.600   2.754   6.128  0.0629 -0.0978  0.0217
  777POPS   PO410458   9.180   2.694   6.029  0.3776  0.2022 -0.2271
  777POPS   GL110459   9.122   2.903   6.479 -0.2585 -0.2511 -0.2539
  777POPS   GL210460   8.761   3.053   6.444  0.1978  0.2486 -0.1908
  777POPS   C1A10461   8.910   2.853   6.923 -0.2188 -0.0942  0.0327
  777POPS   D2A10462   8.952   2.899   7.456 -0.0397 -0.1035 -0.0643
  777POPS   C3A10463   8.968   3.274   7.656  0.0466 -0.3476 -0.2228
  777POPS   C4A10464   9.139   3.616   7.915 -0.2378  0.1052 -0.0387
  777POPS   C1B10465   9.028   3.298   6.740  0.0732 -0.0180  0.0320
  777POPS   C2B10466   9.214   3.221   7.180  0.1414 -0.1045 -0.1284
  777POPS   C3B10467   9.402   3.336   7.488 -0.1823 -0.1478  0.1518
  777POPS   C4B10468   9.574   3.700   7.697 -0.0030  0.0153  0.0074
  778POPS   CNO10469   7.056   0.490   6.224  0.3887  0.1506 -0.0475
  778POPS   PO410470   6.962   0.927   6.501  0.5077  0.0036 -0.2188
  778POPS   GL110471   7.055   0.612   6.794 -0.2455 -0.1146  0.5732
  778POPS   GL210472   7.369   0.602   6.901  0.1784 -0.1176  0.0924
  778POPS   C1A10473   7.088   0.580   7.280  0.2121 -0.0798 -0.0240
  778POPS   D2A10474   6.948   0.603   7.680  0.0639 -0.0049 -0.1637
  778POPS   C3A10475   7.093   0.796   8.105  0.0740 -0.0282 -0.3681
  778POPS   C4A10476   7.239   0.992   8.500 -0.0260 -0.0750  0.2313
  778POPS   C1B10477   7.487   0.928   7.198 -0.3728  0.0825 -0.1174
  778POPS   C2B10478   7.394   1.022   7.647 -0.0397 -0.1444  0.1894
  778POPS   C3B10479   7.576   1.065   7.970  0.2155  0.0003  0.0904
  778POPS   C4B10480   7.659   1.254   8.411 -0.0278 -0.0466  0.0239
  779POPS   CNO10481  15.699   1.963   6.182  0.0237 -0.0295  0.3882
  779POPS   PO410482  15.330   2.208   6.102 -0.3082 -0.2851  0.1331
  779POPS   GL110483  15.131   2.335   6.485 -0.2017  0.0892 -0.0433
  779POPS   GL210484  14.848   2.213   6.433  0.0253  0.0408 -0.1100
  779POPS   C1A10485  15.210   2.352   6.911  0.0980  0.1289  0.0592
  779POPS   D2A10486  15.140   2.202   7.215  0.0885  0.1454 -0.2353
  779POPS   C3A10487  15.056   2.253   7.631 -0.0408 -0.3314 -0.1676
  779POPS   C4A10488  15.059   2.363   8.050 -0.1885  0.0398 -0.2053
  779POPS   C1B10489  14.710   2.107   6.924 -0.0458 -0.2800  0.0951
  779POPS   C2B10490  14.672   2.035   7.335 -0.1429 -0.1175 -0.1940
  779POPS   C3B10491  14.710   1.928   7.730  0.0497  0.0965 -0.0639
  779POPS   C4B10492  14.677   1.979   8.100 -0.1853  0.1956 -0.0406
  780POPS   CNO10493   0.542  13.570   6.512 -0.1855  0.1896  0.3500
  780POPS   PO410494   0.927  13.831   6.446  0.1098 -0.0750  0.2370
  780POPS   GL110495   1.001  13.843   6.847  0.0896 -0.0868 -0.0157
  780POPS   GL210496   0.775  14.146   6.884  0.1766  0.0807 -0.1459
  780POPS   C1A10497   0.946  13.728   7.214 -0.0331 -0.0289  0.0012
  780POPS   D2A10498   0.930  13.629   7.652 -0.0575 -0.1904 -0.3705
  780POPS   C3A10499   1.227  13.896   7.955  0.0206 -0.0705 -0.0036
  780POPS   C4A10500   1.394  14.208   8.340  0.0894  0.0535 -0.2265
  780POPS   C1B10501   0.932  14.248   7.323  0.0997 -0.1227  0.0111
  780POPS   C2B10502   0.864  14.119   7.748  0.3350 -0.1262  0.5085
  780POPS   C3B10503   0.891  14.199   8.191  0.2623  0.0998  0.0815
  780POPS   C4B10504   0.999  14.548   8.463  0.3908  0.1506 -0.1779
  781POPS   CNO10505   3.056   2.877   5.516 -0.4218 -0.1818 -0.0791
  781POPS   PO410506   3.559   2.898   5.832  0.1030  0.1424  0.2143
  781POPS   GL110507   3.641   3.019   6.207  0.1764  0.1494  0.1371
  781POPS   GL210508   3.450   3.317   6.322  0.3122 -0.1346 -0.2784
  781POPS   C1A10509   3.598   2.864   6.647  0.2101 -0.1346  0.2355
  781POPS   D2A10510   3.397   2.576   6.900  0.3422 -0.3187 -0.0044
  781POPS   C3A10511   3.649   2.441   7.277  0.0010 -0.1283  0.2117
  781POPS   C4A10512   3.836   2.653   7.633  0.0226 -0.1891 -0.2876
  781POPS   C1B10513   3.303   3.483   6.717 -0.1491 -0.2187 -0.3024
  781POPS   C2B10514   3.108   3.641   7.043 -0.2308  0.0319 -0.1350
  781POPS   C3B10515   2.961   4.022   7.290  0.0245  0.2808 -0.0322
  781POPS   C4B10516   3.046   4.218   7.681  0.2052 -0.1934 -0.1570
  782POPS   CNO10517  15.196  12.111   6.078  0.1890 -0.1443 -0.1585
  782POPS   PO410518  15.461  12.160   6.221 -0.0046  0.0771 -0.1030
  782POPS   GL110519  15.470  12.182   6.627  0.0179  0.2312 -0.3108
  782POPS   GL210520  15.322  12.031   6.727  0.1182 -0.1064  0.1658
  782POPS   C1A10521  15.588  12.377   7.113  0.0263 -0.4295 -0.1612
  782POPS   D2A10522  15.795  12.703   7.341 -0.1415  0.0188  0.0936
  782POPS   C3A10523  16.071  12.695   7.650 -0.1589 -0.1303 -0.0525
  782POPS   C4A10524  16.385  12.471   7.407 -0.2057 -0.2118 -0.1405
  782POPS   C1B10525  15.277  11.938   7.129  0.3504 -0.0915 -0.1767
  782POPS   C2B10526  15.512  11.965   7.478 -0.0679 -0.0271 -0.1844
  782POPS   C3B10527  15.570  12.323   7.775 -0.3979 -0.0963 -0.1809
  782POPS   C4B10528  15.686  12.651   8.035  0.0167  0.1820 -0.1777
  783POPS   CNO10529   7.500  11.268   5.917 -0.0370  0.3652  0.0274
  783POPS   PO410530   7.736  11.186   6.194  0.2539 -0.0921  0.0385
  783POPS   GL110531   7.620  11.187   6.656  0.2244  0.2611 -0.1675
  783POPS   GL210532   7.608  10.985   6.738  0.1735  0.1589  0.0095
  783POPS   C1A10533   7.648  11.454   6.947 -0.0130 -0.1768 -0.1353
  783POPS   D2A10534   8.017  11.615   7.132 -0.1218  0.1002 -0.4823
  783POPS   C3A10535   8.062  11.577   7.578 -0.0148 -0.1915 -0.1330
  783POPS   C4A10536   8.383  11.499   7.970 -0.1312 -0.3279  0.4026
  783POPS   C1B10537   7.683  11.006   7.238 -0.1083  0.2055  0.0480
  783POPS   C2B10538   7.826  11.033   7.647 -0.0646  0.0660  0.2693
  783POPS   C3B10539   7.978  11.191   8.110  0.0719  0.0148 -0.0480
  783POPS   C4B10540   7.927  11.064   8.431  0.1144 -0.2924 -0.2016
  784POPS   CNO10541   4.257  14.265   6.014  0.1816 -0.1697 -0.0220
  784POPS   PO410542   4.082  14.086   6.407  0.2675 -0.0147  0.1068
  784POPS   GL110543   4.364  13.739   6.586 -0.1403 -0.1190  0.0165
  784POPS   GL210544   4.500  13.980   6.639 -0.1592 -0.0410  0.0457
  784POPS   C1A10545   4.394  13.602   7.031  0.2593 -0.0181 -0.2010
  784POPS   D2A10546   4.493  13.804   7.436  0.0445  0.0596 -0.0634
  784POPS   C3A10547   4.173  13.742   7.706  0.1701  0.1968  0.1201
  784POPS   C4A10548   4.100  13.693   8.136 -0.2369 -0.4327  0.2248
  784POPS   C1B10549   4.337  14.189   7.037 -0.0571  0.1901  0.1100
  784POPS   C2B10550   4.172  14.230   7.431  0.1436  0.1365  0.0617
  784POPS   C3B10551   4.182  14.194   7.940 -0.1121  0.0028  0.0185
  784POPS   C4B10552   4.423  14.129   8.311  0.0765 -0.3265  0.4159
  785POPS   CNO10553  14.358  13.985   6.259  0.0945 -0.3060 -0.1391
  785POPS   PO410554  14.306  14.264   6.431 -0.4240 -0.3094  0.1558
  785POPS   GL110555  14.263  14.229   6.973 -0.1719 -0.0091 -0.1237
  785POPS   GL210556  14.090  13.954   7.016  0.2553 -0.0357  0.1326
  785POPS   C1A10557  14.503  14.204   7.369 -0.0420  0.1366 -0.1156
  785POPS   D2A10558  14.648  14.149   7.838 -0.3156 -0.0841 -0.0882
  785POPS   C3A10559  14.718  14.475   8.045 -0.2816  0.0090 -0.1106
  785POPS   C4A10560  14.523  14.660   8.367 -0.1185  0.0389 -0.3051
  785POPS   C1B10561  14.035  14.105   7.409 -0.2101 -0.0452  0.0955
  785POPS   C2B10562  14.090  14.178   7.740  0.4236  0.0637  0.0115
  785POPS   C3B10563  13.865  14.241   8.078 -0.0878  0.0107  0.0546
  785POPS   C4B10564  13.946  14.515   8.461  0.1918  0.2177 -0.0274
  786POPS   CNO10565   9.311  11.836   5.664 -0.1378  0.2224 -0.2559
  786POPS   PO410566   9.608  12.072   5.812  0.0318  0.0842 -0.1288
  786POPS   GL110567   9.560  11.919   6.171 -0.0753 -0.0927  0.4101
  786POPS   GL210568   9.840  11.941   6.454 -0.0278  0.1204 -0.0510
  786POPS   C1A10569   9.367  12.051   6.557  0.1073 -0.2500  0.0411
  786POPS   D2A10570   9.197  12.141   6.916  0.0045  0.1685  0.0713
  786POPS   C3A10571   8.879  12.353   6.800 -0.2469  0.3078  0.0892
  786POPS   C4A10572   8.751  12.813   6.724 -0.2078 -0.0018  0.0401
  786POPS   C1B10573  10.099  11.951   6.922  0.1229  0.1561  0.0217
  786POPS   C2B10574  10.112  11.801   7.313  0.0668  0.0745  0.0263
  786POPS   C3B10575  10.147  11.942   7.798  0.3623 -0.0435 -0.1532
  786POPS   C4B10576  10.406  12.031   8.103 -0.1239 -0.0894 -0.0100
  787POPS   CNO10577   7.145   7.558   5.263 -0.1186 -0.0034  0.0996
  787POPS   PO410578   7.310   7.497   5.770  0.0272  0.0135  0.1818
  787POPS   GL110579   7.280   7.672   6.199  0.3765  0.1023  0.1452
  787POPS   GL210580   7.049   7.475   6.358  0.0398  0.0447  0.4060
  787POPS   C1A10581   7.060   7.932   6.594 -0.0350  0.2783 -0.1487
  787POPS   D2A10582   6.902   8.239   6.866 -0.1506  0.1911  0.0338
  787POPS   C3A10583   6.971   8.089   7.361  0.2894  0.1516  0.3908
  787POPS   C4A10584   6.947   7.892   7.770  0.2997  0.0580  0.1030
  787POPS   C1B10585   6.989   7.465   6.738 -0.3223 -0.1775 -0.0353
  787POPS   C2B10586   6.986   7.409   7.224  0.3083  0.0392 -0.0329
  787POPS   C3B10587   6.875   7.461   7.547  0.1690  0.3746  0.0620
  787POPS   C4B10588   7.031   7.369   7.964  0.0623  0.1515  0.1897
  788POPS   CNO10589   3.851  10.211   5.980  0.0077 -0.2007  0.0896
  788POPS   PO410590   3.638  10.361   6.281  0.1998 -0.1533 -0.0174
  788POPS   GL110591   3.435  10.192   6.659 -0.1428 -0.0208  0.0766
  788POPS   GL210592   3.235  10.363   6.628  0.3282 -0.2450 -0.0057
  788POPS   C1A10593   3.554   9.852   6.958 -0.0075  0.2231 -0.0719
  788POPS   D2A10594   3.482   9.831   7.381  0.0348 -0.4354 -0.2901
  788POPS   C3A10595   3.420   9.767   7.781  0.2341 -0.3079 -0.1871
  788POPS   C4A10596   3.097   9.937   8.108 -0.1497  0.1082 -0.4714
  788POPS   C1B10597   2.978  10.440   6.904  0.0087  0.1944 -0.1595
  788POPS   C2B10598   2.907  10.394   7.395 -0.0052 -0.0868  0.1853
  788POPS   C3B10599   2.825  10.239   7.789 -0.0521  0.1005 -0.0586
  788POPS   C4B10600   2.776  10.336   8.205  0.3677  0.0829  0.1138
  789POPS   CNO10601   7.633  16.420   6.042 -0.0468 -0.0205  0.0477
  789POPS   PO410602   7.911  16.844   6.136  0.0982  0.2303  0.0669
  789POPS   GL110603   7.821  16.723   6.589  0.0231 -0.0857  0.0889
  789POPS   GL210604   7.748  16.957   6.864 -0.2216  0.0307 -0.1302
  789POPS   C1A10605   7.773  16.407   6.981  0.1215 -0.0804  0.0865
  789POPS   D2A10606   7.990  16.393   7.349  0.2200  0.0337 -0.1881
  789POPS   C3A10607   8.118  16.126   7.634 -0.1370  0.0081  0.1435
  789POPS   C4A10608   8.228  16.018   7.980 -0.1011 -0.0522  0.1536
  789POPS   C1B10609   7.739  16.786   7.351 -0.0502  0.2054  0.2695
  789POPS   C2B10610   7.818  16.793   7.814 -0.2359  0.1791  0.0215
  789POPS   C3B10611   7.584  16.762   8.193 -0.1034 -0.1270  0.1271
  789POPS   C4B10612   7.221  16.804   8.439  0.1092 -0.2216 -0.2189
  790POPS   CNO10613   1.503  15.793   5.942 -0.0980 -0.0656  0.2236
  790POPS   PO410614   1.943  15.718   6.135 -0.0881 -0.0688 -0.1104
  790POPS   GL110615   1.893  15.449   6.446  0.1851  0.1226  0.1654
  790POPS   GL210616   1.859  15.645   6.812  0.3593 -0.1711  0.1909
  790POPS   C1A10617   1.592  15.254   6.757 -0.0509  0.0079  0.1342
  790POPS   D2A10618   1.202  14.935   6.761  0.0856  0.1636 -0.2002
  790POPS   C3A10619   0.755  15.157   6.945  0.1353  0.0065  0.2513
  790POPS   C4A10620   0.392  14.988   7.158  0.0443  0.1588  0.2651
  790POPS   C1B10621   1.695  15.613   7.124 -0.0440 -0.1567 -0.1259
  790POPS   C2B10622   1.701  15.825   7.466 -0.2457  0.1604  0.0994
  790POPS   C3B10623   1.644  15.703   7.893 -0.0021 -0.1890  0.1062
  790POPS   C4B10624   1.783  15.556   8.323  0.1307  0.1505  0.1486
  791POPS   CNO10625   4.004  13.523   6.294 -0.1878 -0.2049  0.0590
  791POPS   PO410626   3.770  13.201   6.009 -0.0233 -0.1707 -0.0687
  791POPS   GL110627   3.744  13.143   6.506 -0.1487  0.2360  0.0394
  791POPS   GL210628   3.532  13.002   6.625  0.1478 -0.1102 -0.1485
  791POPS   C1A10629   3.804  13.334   6.889 -0.1249  0.2271  0.3841
  791POPS   D2A10630   3.518  13.342   7.235  0.2380 -0.0808  0.6241
  791POPS   C3A10631   3.568  13.680   7.543  0.0908 -0.2250  0.1541
  791POPS   C4A10632   3.692  14.133   7.644  0.2057  0.0454  0.2341
  791POPS   C1B10633   3.320  12.639   6.894  0.3095  0.1399 -0.0014
  791POPS   C2B10634   3.334  12.541   7.369 -0.3107 -0.0913  0.1021
  791POPS   C3B10635   3.407  12.499   7.813  0.1189 -0.1549 -0.2012
  791POPS   C4B10636   3.484  12.472   8.258  0.2676  0.1579  0.0226
  792POPS   CNO10637  11.889   8.058   5.376 -0.0107  0.1473 -0.1463
  792POPS   PO410638  11.791   8.052   5.846  0.0574 -0.1268  0.0337
  792POPS   GL110639  11.813   8.104   6.167 -0.0736  0.2768 -0.2689
  792POPS   GL210640  11.584   8.207   6.340 -0.1245  0.0507  0.0708
  792POPS   C1A10641  11.988   8.079   6.655 -0.2475 -0.2177 -0.0193
  792POPS   D2A10642  12.290   7.842   6.928  0.0223 -0.1110 -0.1868
  792POPS   C3A10643  12.496   7.930   7.303  0.2099  0.1473  0.2001
  792POPS   C4A10644  12.713   7.720   7.613  0.1415  0.1221 -0.0427
  792POPS   C1B10645  11.763   8.478   6.649 -0.2348  0.0478 -0.0536
  792POPS   C2B10646  11.911   8.481   7.139  0.0143 -0.2205  0.0421
  792POPS   C3B10647  11.954   8.359   7.616 -0.3458 -0.0666  0.2161
  792POPS   C4B10648  12.255   8.021   7.765 -0.0725 -0.1503  0.2541
  793POPS   CNO10649   2.197  16.715   6.264 -0.1063 -0.0747  0.0493
  793POPS   PO410650   2.219  16.508   6.622 -0.1512 -0.0101 -0.3294
  793POPS   GL110651   2.086  16.316   7.053 -0.1401 -0.2256  0.3550
  793POPS   GL210652   1.849  16.099   7.047  0.2018  0.0848  0.0881
  793POPS   C1A10653   2.297  16.373   7.400  0.0970 -0.0190  0.0789
  793POPS   D2A10654   2.191  16.497   7.768 -0.1694  0.0493 -0.0471
  793POPS   C3A10655   2.194  16.263   8.072  0.0781  0.1969  0.0575
  793POPS   C4A10656   2.292  15.861   8.446 -0.0315 -0.0339  0.0476
  793POPS   C1B10657   1.680  16.312   7.353  0.2087  0.0540  0.2535
  793POPS   C2B10658   1.768  16.261   7.754 -0.0167  0.0604 -0.1740
  793POPS   C3B10659   1.784  16.055   8.260 -0.1438  0.0009 -0.0209
  793POPS   C4B10660   1.596  15.936   8.666 -0.1030  0.0822 -0.0674
  794POPS   CNO10661  16.690  17.286   5.702  0.2545  0.1212  0.0754
  794POPS   PO410662  16.924  17.641   5.869  0.1041  0.1889  0.1852
  794POPS   GL110663  17.018  17.622   6.400 -0.2129 -0.0741 -0.1098
  794POPS   GL210664  17.334  17.514   6.406 -0.0869  0.2415 -0.0596
  794POPS   C1A10665  16.920  17.746   6.806 -0.3456  0.0212  0.1433
  794POPS   D2A10666  16.685  17.634   7.223 -0.1055  0.1230  0.3092
  794POPS   C3A10667  16.895  17.505   7.627 -0.0157 -0.0101 -0.0612
  794POPS   C4A10668  17.283  17.450   7.780 -0.0485 -0.2590 -0.3100
  794POPS   C1B10669  17.221  17.197   6.609  0.2119 -0.0461  0.0001
  794POPS   C2B10670  17.363  17.002   6.972 -0.1602 -0.0609  0.2271
  794POPS   C3B10671  17.269  17.036   7.401 -0.2092  0.1184  0.0901
  794POPS   C4B10672  17.116  16.722   7.742 -0.2947 -0.2077  0.1253
  795POPS   CNO10673   6.583  12.409   6.006  0.0389 -0.0562 -0.2634
  795POPS   PO410674   6.630  12.141   6.216  0.0290 -0.0590  0.2471
  795POPS   GL110675   6.797  12.178   6.674  0.1194 -0.1449 -0.1544
  795POPS   GL210676   6.804  12.451   6.800 -0.1412 -0.0647 -0.3129
  795POPS   C1A10677   6.796  12.095   7.143 -0.0220  0.0528  0.0990
  795POPS   D2A10678   6.828  11.719   7.271  0.0341  0.1894  0.2692
  795POPS   C3A10679   6.676  11.679   7.744 -0.0261 -0.0331  0.1894
  795POPS   C4A10680   6.640  11.532   8.121  0.0968  0.1148  0.2798
  795POPS   C1B10681   6.368  12.465   7.052  0.0392 -0.1128 -0.0086
  795POPS   C2B10682   6.338  12.506   7.423 -0.3075 -0.0140 -0.1400
  795POPS   C3B10683   6.278  12.452   7.802 -0.1114  0.0536 -0.0006
  795POPS   C4B10684   6.219  12.627   8.241 -0.1706 -0.0372  0.0275
  796POPS   CNO10685   4.603   5.732   5.756  0.2271 -0.0009  0.2101
  796POPS   PO410686   4.901   5.561   5.608  0.2435  0.0589  0.0810
  796POPS   GL110687   4.987   5.335   6.017  0.4906  0.0024  0.1284
  796POPS   GL210688   4.666   5.227   6.109 -0.1789  0.1260 -0.0263
  796POPS   C1A10689   5.258   5.042   6.226 -0.1640  0.1354  0.0841
  796POPS   D2A10690   5.483   4.757   6.257 -0.1475 -0.0892 -0.1369
  796POPS   C3A10691   5.806   4.489   6.523 -0.0530  0.0799 -0.1458
  796POPS   C4A10692   5.668   4.539   6.920 -0.0723 -0.3635  0.0721
  796POPS   C1B10693   4.843   5.148   6.512  0.0555  0.0681  0.0372
  796POPS   C2B10694   5.185   4.887   6.742 -0.0701 -0.0698  0.1615
  796POPS   C3B10695   5.262   4.711   7.143 -0.1499  0.2478  0.0086
  796POPS   C4B10696   5.461   4.791   7.528 -0.0393 -0.2846 -0.0879
  797POPS   CNO10697  11.980   5.169   6.172  0.0855 -0.3261  0.0756
  797POPS   PO410698  12.318   4.904   5.921  0.0752 -0.2765  0.3941
  797POPS   GL110699  12.198   4.711   6.308 -0.0597 -0.0025 -0.3462
  797POPS   GL210700  12.538   4.584   6.510  0.2824 -0.1394  0.0026
  797POPS   C1A10701  12.040   4.946   6.582 -0.0780 -0.2850  0.0354
  797POPS   D2A10702  12.190   5.073   7.012 -0.0460  0.1311  0.2805
  797POPS   C3A10703  12.099   5.082   7.448  0.1013 -0.2586 -0.1974
  797POPS   C4A10704  12.279   5.307   7.790 -0.1139 -0.0407 -0.0198
  797POPS   C1B10705  12.450   4.608   6.805 -0.0718  0.1728 -0.1530
  797POPS   C2B10706  12.467   4.766   7.256  0.2613  0.1029  0.0799
  797POPS   C3B10707  12.382   4.783   7.690 -0.3437  0.0295 -0.0795
  797POPS   C4B10708  12.028   4.770   7.876  0.2725 -0.0061  0.0671
  798POPS   CNO10709  12.824  15.190   6.552 -0.1568 -0.3503  0.0651
  798POPS   PO410710  12.538  14.951   6.361  0.0043 -0.1639  0.0539
  798POPS   GL110711  12.342  14.980   6.774  0.1703  0.1785  0.0620
  798POPS   GL210712  12.296  14.594   6.875 -0.0649  0.2406  0.1825
  798POPS   C1A10713  12.204  14.896   7.218  0.1219 -0.1404  0.1364
  798POPS   D2A10714  12.219  14.760   7.694  0.1184  0.0586  0.4169
  798POPS   C3A10715  11.912  14.495   7.691 -0.0708  0.1667 -0.1048
  798POPS   C4A10716  11.864  14.097   7.822  0.3400 -0.2093  0.4400
  798POPS   C1B10717  12.385  14.364   7.228 -0.3249 -0.0140  0.0080
  798POPS   C2B10718  12.483  14.262   7.641  0.0208  0.0423  0.1482
  798POPS   C3B10719  12.638  14.453   8.020  0.0092 -0.2038 -0.0049
  798POPS   C4B10720  12.716  14.614   8.412 -0.1617  0.0634 -0.1106
  799POPS   CNO10721  16.937   5.661   6.057  0.0076 -0.1772 -0.3375
  799POPS   PO410722  16.811   5.347   5.987 -0.2996  0.2349 -0.0917
  799POPS   GL110723  16.806   5.091   6.286 -0.0294  0.0301 -0.1635
  799POPS   GL210724  17.148   4.959   6.249  0.0990 -0.2413  0.2021
  799POPS   C1A10725  16.827   5.041   6.749 -0.0337 -0.1002 -0.4241
  799POPS   D2A10726  17.013   4.981   7.075  0.0346  0.0186 -0.3650
  799POPS   C3A10727  16.663   4.999   7.387  0.1567 -0.2511 -0.1415
  799POPS   C4A10728  16.298   5.019   7.621 -0.0287  0.0787 -0.0501
  799POPS   C1B10729  17.103   4.653   6.544  0.3387  0.0888  0.1237
  799POPS   C2B10730  17.239   4.610   6.872 -0.0462  0.1872  0.0441
  799POPS   C3B10731  17.404   4.540   7.288  0.1896 -0.1017 -0.1912
  799POPS   C4B10732  17.568   4.449   7.709 -0.0245 -0.3480 -0.2161
  800POPS   CNO10733  12.388   9.257   5.649  0.1006  0.1579 -0.1336
  800POPS   PO410734  12.218   9.335   6.012  0.3942 -0.0901 -0.2427
  800POPS   GL110735  12.223   9.353   6.410 -0.1687  0.4595 -0.0479
  800POPS   GL210736  12.556   9.228   6.451 -0.1295  0.1899 -0.0443
  800POPS   C1A10737  12.308   9.447   6.843  0.0047 -0.3053  0.1563
  800POPS   D2A10738  12.455   9.347   7.175 -0.2661  0.0677 -0.0387
  800POPS   C3A10739  12.815   9.365   7.450 -0.0586  0.1112  0.2269
  800POPS   C4A10740  13.097   9.057   7.647  0.0707 -0.1850 -0.1155
  800POPS   C1B10741  12.681   8.808   6.481 -0.0813  0.2343  0.2426
  800POPS   C2B10742  12.716   8.672   6.785  0.1403  0.1319  0.0811
  800POPS   C3B10743  12.841   8.506   7.130  0.2331  0.1590 -0.2061
  800POPS   C4B10744  13.031   8.638   7.465 -0.0099  0.0609  0.0997
  801POPS   CNO10745  10.665   7.409   5.627  0.1380 -0.2085  0.1604
  801POPS   PO410746  10.415   7.469   6.023  0.0233  0.1450 -0.1144
  801POPS   GL110747  10.707   7.506   6.415 -0.2871 -0.2426 -0.2525
  801POPS   GL210748  11.002   7.275   6.400  0.1533  0.0277  0.0995
  801POPS   C1A10749  10.743   7.225   6.788  0.0357 -0.0759  0.3490
  801POPS   D2A10750  10.944   7.017   7.144 -0.2261 -0.0141 -0.0554
  801POPS   C3A10751  11.168   6.757   7.537  0.0601  0.0973 -0.0560
  801POPS   C4A10752  11.267   6.368   7.755  0.0041  0.1767  0.0445
  801POPS   C1B10753  11.279   7.242   6.879 -0.5664 -0.0894 -0.3613
  801POPS   C2B10754  11.422   6.882   7.011  0.0635  0.1061  0.2120
  801POPS   C3B10755  11.690   6.787   7.292  0.2492  0.3192  0.1106
  801POPS   C4B10756  11.859   6.537   7.703 -0.1082 -0.0158 -0.4491
  802POPS   CNO10757   3.020  13.597   6.415 -0.0898 -0.0180 -0.0640
  802POPS   PO410758   3.337  13.683   6.024 -0.0968 -0.0626  0.0379
  802POPS   GL110759   3.514  13.629   6.416 -0.0010  0.0976  0.0016
  802POPS   GL210760   3.803  13.764   6.670 -0.1374  0.0982 -0.1490
  802POPS   C1A10761   3.313  13.524   6.752 -0.2435 -0.2027 -0.0223
  802POPS   D2A10762   3.145  13.631   7.158 -0.0531  0.1264 -0.1571
  802POPS   C3A10763   2.908  13.968   7.194  0.1326  0.0752  0.1719
  802POPS   C4A10764   3.119  14.195   7.465 -0.1345  0.0748 -0.2602
  802POPS   C1B10765   3.914  13.760   7.125  0.0242  0.1715  0.1490
  802POPS   C2B10766   3.980  13.397   7.447  0.1127  0.0469  0.1475
  802POPS   C3B10767   3.900  13.336   7.833  0.2712 -0.0940 -0.0804
  802POPS   C4B10768   3.467  13.185   7.772  0.0917 -0.0794  0.1038
  803POPS   CNO10769  11.711   1.265   6.041 -0.0509  0.0488  0.0852
  803POPS   PO410770  11.432   1.113   6.342 -0.1072  0.0374  0.0015
  803POPS   GL110771  11.538   0.935   6.814 -0.0804 -0.1235  0.1102
  803POPS   GL210772  11.767   0.611   6.909  0.0520  0.0533 -0.2797
  803POPS   C1A10773  11.395   0.862   7.185  0.1268 -0.1032 -0.0826
  803POPS   D2A10774  11.502   0.778   7.654  0.0744 -0.0075  0.1043
  803POPS   C3A10775  11.787   0.929   7.984  0.0251 -0.0592  0.0643
  803POPS   C4A10776  11.636   1.026   8.273 -0.0671  0.0702 -0.0115
  803POPS   C1B10777  11.765   0.477   7.337  0.0169 -0.1647 -0.0486
  803POPS   C2B10778  12.102   0.607   7.734 -0.0705  0.0103  0.3986
  803POPS   C3B10779  12.257   1.001   7.777  0.1745 -0.2942  0.4124
  803POPS   C4B10780  11.960   1.380   8.005 -0.1945  0.0079  0.0741
  804POPS   CNO10781  12.228  13.246   5.940 -0.2575  0.1540  0.1414
  804POPS   PO410782  11.938  13.273   6.319  0.1346  0.0314  0.0622
  804POPS   GL110783  11.972  13.041   6.720 -0.1589 -0.1212 -0.6335
  804POPS   GL210784  11.756  12.819   6.871 -0.2292 -0.0890 -0.0396
  804POPS   C1A10785  12.082  13.174   7.049  0.1724 -0.1230  0.0047
  804POPS   D2A10786  12.229  13.071   7.510  0.1878  0.1266  0.0278
  804POPS   C3A10787  12.382  13.265   7.781  0.2115  0.0222 -0.0480
  804POPS   C4A10788  12.461  13.155   8.149 -0.0553 -0.0816 -0.2143
  804POPS   C1B10789  12.007  12.699   7.164  0.1395  0.0605 -0.2733
  804POPS   C2B10790  12.157  12.416   7.492 -0.1441 -0.0238 -0.3079
  804POPS   C3B10791  11.877  12.185   7.754 -0.1693  0.2278  0.0302
  804POPS   C4B10792  11.887  12.271   8.170  0.0993  0.0428  0.3343
  805POPS   CNO10793  14.988  12.958   6.659 -0.3659  0.2078  0.2078
  805POPS   PO410794  15.441  13.015   6.539  0.2067  0.1781  0.1799
  805POPS   GL110795  15.543  13.231   6.900 -0.1624 -0.0896  0.1812
  805POPS   GL210796  15.661  13.510   6.928  0.2157  0.2041  0.1459
  805POPS   C1A10797  15.372  13.356   7.416 -0.2999 -0.1122  0.2437
  805POPS   D2A10798  15.315  13.461   7.813 -0.1022  0.0610 -0.0221
  805POPS   C3A10799  15.120  13.407   8.150  0.1866  0.2027  0.2319
  805POPS   C4A10800  14.886  13.388   8.449 -0.0007 -0.1692  0.1446
  805POPS   C1B10801  15.838  13.317   7.272 -0.0892  0.1771  0.0642
  805POPS   C2B10802  15.720  13.181   7.664 -0.0016  0.1014 -0.4366
  805POPS   C3B10803  15.645  13.191   8.108  0.2138 -0.3138 -0.0978
  805POPS   C4B10804  15.507  13.432   8.492 -0.1495 -0.1359 -0.0799
  806POPS   CNO10805   3.405   1.628   5.921 -0.0607 -0.2485  0.0626
  806POPS   PO410806   3.079   1.684   6.027  0.0325  0.1561 -0.3505
  806POPS   GL110807   2.958   1.790   6.469  0.2162 -0.0114 -0.3660
  806POPS   GL210808   2.558   1.651   6.581  0.0386  0.1008 -0.1119
  806POPS   C1A10809   3.049   2.111   6.888 -0.0636 -0.1910  0.0764
  806POPS   D2A10810   3.200   2.268   7.228 -0.1349 -0.2767 -0.1309
  806POPS   C3A10811   3.019   2.293   7.583  0.0556  0.2744  0.0650
  806POPS   C4A10812   2.918   1.930   7.825 -0.0581  0.0832  0.0868
  806POPS   C1B10813   2.705   1.708   6.923 -0.0335  0.0204 -0.3690
  806POPS   C2B10814   2.683   1.711   7.395  0.0967 -0.0960  0.0128
  806POPS   C3B10815   2.625   1.492   7.724  0.2783  0.0966  0.0903
  806POPS   C4B10816   2.375   1.201   7.729 -0.1459  0.0703  0.0505
  807POPS   CNO10817   8.370  17.630   6.104 -0.0369 -0.0413 -0.0782
  807POPS   PO410818   8.076  17.679   6.454 -0.0415 -0.1669 -0.0855
  807POPS   GL110819   8.160  17.904   6.867  0.2323 -0.3049 -0.0753
  807POPS   GL210820   8.514  17.992   6.853 -0.1522 -0.1694  0.0474
  807POPS   C1A10821   8.078  17.820   7.325  0.2118  0.0372  0.3317
  807POPS   D2A10822   8.150  17.457   7.659  0.0260 -0.4495  0.0314
  807POPS   C3A10823   8.217  17.611   8.083 -0.1945 -0.3510  0.1127
  807POPS   C4A10824   8.484  17.396   8.277  0.1088 -0.4072  0.0983
  807POPS   C1B10825   8.559  17.892   7.233  0.2188 -0.1627  0.0824
  807POPS   C2B10826   8.408  17.899   7.711  0.0151 -0.1469  0.0431
  807POPS   C3B10827   8.271  18.107   8.074 -0.2115  0.1406  0.0214
  807POPS   C4B10828   8.023  18.035   8.422  0.2811 -0.2034  0.2555
  808POPS   CNO10829   4.861  16.677   5.970  0.0245 -0.2316  0.1878
  808POPS   PO410830   5.036  16.876   6.311 -0.0539 -0.0721 -0.0694
  808POPS   GL110831   4.842  16.773   6.705 -0.0004 -0.0797  0.1075
  808POPS   GL210832   4.675  16.992   6.763 -0.1075 -0.3856 -0.1610
  808POPS   C1A10833   4.780  16.509   6.991  0.0664  0.1298 -0.1258
  808POPS   D2A10834   4.656  16.437   7.450  0.0682 -0.1230 -0.2480
  808POPS   C3A10835   4.607  16.401   7.831  0.0205  0.0299 -0.0429
  808POPS   C4A10836   4.450  16.477   8.288 -0.1200 -0.1516  0.3102
  808POPS   C1B10837   4.706  16.949   7.253 -0.2990 -0.0835 -0.1550
  808POPS   C2B10838   4.757  16.865   7.724  0.4162  0.2453 -0.1783
  808POPS   C3B10839   4.780  16.805   8.118  0.0232 -0.2741 -0.0173
  808POPS   C4B10840   4.809  16.725   8.494 -0.2218 -0.3078  0.0213
  809POPS   CNO10841  12.046  15.191   6.371 -0.1585  0.2297 -0.3965
  809POPS   PO410842  11.645  14.934   6.408  0.1234  0.0212 -0.1905
  809POPS   GL110843  11.717  14.691   6.739  0.1082  0.1375 -0.0462
  809POPS   GL210844  11.771  14.968   6.911  0.3808  0.2854 -0.1313
  809POPS   C1A10845  11.886  14.480   7.113  0.2088 -0.2399 -0.2075
  809POPS   D2A10846  11.846  14.172   7.300 -0.0129 -0.0635  0.0536
  809POPS   C3A10847  12.129  13.926   7.449 -0.1504 -0.0726  0.3127
  809POPS   C4A10848  12.390  13.745   7.712 -0.0240  0.2200  0.0207
  809POPS   C1B10849  11.701  14.910   7.450  0.0641  0.1950  0.3157
  809POPS   C2B10850  11.658  15.002   7.823 -0.4319  0.2498 -0.3306
  809POPS   C3B10851  11.697  14.909   8.297  0.1384 -0.0311  0.4358
  809POPS   C4B10852  11.816  14.590   8.688 -0.0094  0.0603  0.0513
  810POPS   CNO10853   8.829   4.469   6.051 -0.3202  0.2731  0.0073
  810POPS   PO410854   9.264   4.764   5.952 -0.0612 -0.3336  0.0117
  810POPS   GL110855   9.307   4.786   6.362  0.1997 -0.0167 -0.0149
  810POPS   GL210856   8.990   4.860   6.409 -0.1536  0.0174  0.1892
  810POPS   C1A10857   9.440   5.087   6.650  0.2017 -0.0516  0.2976
  810POPS   D2A10858   9.626   5.483   6.805  0.0784 -0.0253  0.1715
  810POPS   C3A10859   9.679   5.696   7.287  0.2734  0.1288 -0.2522
  810POPS   C4A10860   9.845   5.987   7.493 -0.2238  0.0600  0.1184
  810POPS   C1B10861   9.151   4.632   6.813 -0.0176 -0.1637 -0.0269
  810POPS   C2B10862   9.541   4.720   7.120  0.1109 -0.0994 -0.3565
  810POPS   C3B10863   9.944   4.776   7.063 -0.3679  0.0519 -0.0311
  810POPS   C4B10864  10.266   4.634   6.882  0.2545 -0.3824  0.0728
  811POPS   CNO10865  12.344  16.070   6.872  0.1798  0.0524  0.5408
  811POPS   PO410866  12.593  16.434   6.756  0.0892 -0.1482  0.0467
  811POPS   GL110867  12.770  16.245   7.079 -0.0263 -0.2988 -0.0714
  811POPS   GL210868  13.081  16.209   7.081 -0.1102 -0.3109  0.1780
  811POPS   C1A10869  12.543  16.167   7.458 -0.0402 -0.0017 -0.1617
  811POPS   D2A10870  12.590  16.197   7.971  0.0230  0.1451  0.0738
  811POPS   C3A10871  12.727  15.916   8.196  0.0162 -0.0358 -0.2653
  811POPS   C4A10872  12.788  15.708   8.535  0.2229  0.0021  0.0701
  811POPS   C1B10873  13.041  16.469   7.494 -0.2927  0.1033 -0.2308
  811POPS   C2B10874  13.120  16.405   7.966  0.2087  0.0738 -0.1253
  811POPS   C3B10875  13.026  16.332   8.392  0.1059 -0.0170 -0.0688
  811POPS   C4B10876  13.177  16.402   8.799 -0.1164 -0.0798 -0.2318
  812YOPS   CNO10877  16.723  12.723   6.478  0.1288 -0.1780  0.0712
  812YOPS   PO410878  16.873  12.278   6.450 -0.2568 -0.1399 -0.0362
  812YOPS   GL110879  17.114  12.482   6.690 -0.0981 -0.0038 -0.3153
  812YOPS   GL210880  16.987  12.627   6.968  0.1549 -0.3375  0.0047
  812YOPS   C1A10881  17.308  12.250   7.108 -0.5334 -0.1063  0.0133
  812YOPS   D2A10882  17.282  12.316   7.579  0.2064  0.1851 -0.1320
  812YOPS   C3A10883  17.551  12.140   7.927 -0.1851  0.0279  0.4106
  812YOPS   C4A10884  17.508  12.377   8.284 -0.0591 -0.1181 -0.1159
  812YOPS   C1B10885  16.878  12.372   7.258 -0.0321  0.3112 -0.3350
  812YOPS   C2B10886  16.734  12.299   7.683  0.1855  0.0306 -0.0997
  812YOPS   D3B10887  16.889  12.411   8.077  0.1510 -0.4833 -0.1364
  812YOPS   C4B10888  16.686  12.742   8.276  0.2482  0.2712  0.0377
  813YOPS   CNO10889   7.004   8.345   6.405  0.2825  0.0630 -0.2529
  813YOPS   PO410890   6.528   8.183   6.297  0.0679  0.3316 -0.1169
  813YOPS   GL110891   6.198   8.079   6.581  0.3259 -0.3539  0.1537
  813YOPS   GL210892   5.904   8.335   6.646  0.1311 -0.1393  0.1987
  813YOPS   C1A10893   5.835   7.802   6.749  0.0293 -0.2379 -0.3391
  813YOPS   D2A10894   5.631   7.736   7.124 -0.2404  0.3204 -0.0317
  813YOPS   C3A10895   5.465   7.612   7.496 -0.0115  0.2160 -0.0713
  813YOPS   C4A10896   5.736   7.632   7.809 -0.1288 -0.1463 -0.1054
  813YOPS   C1B10897   5.962   8.173   7.041 -0.3755 -0.0010  0.4092
  813YOPS   C2B10898   6.022   8.168   7.404 -0.0692  0.0078  0.1813
  813YOPS   D3B10899   6.152   8.004   7.794  0.1128 -0.0414 -0.1332
  813YOPS   C4B10900   6.002   7.941   8.128  0.0814  0.0349  0.1342
  814YOPS   CNO10901   1.414  13.829   6.397 -0.0147  0.1938 -0.3119
  814YOPS   PO410902   1.750  13.432   6.435 -0.1583  0.2091  0.0221
  814YOPS   GL110903   1.939  13.747   6.788 -0.1267  0.5134  0.0845
  814YOPS   GL210904   2.152  13.951   6.735  0.0917 -0.0746  0.0484
  814YOPS   C1A10905   2.114  13.787   7.202  0.5165 -0.2759 -0.0559
  814YOPS   D2A10906   2.108  13.891   7.631 -0.1545 -0.2428  0.1202
  814YOPS   C3A10907   2.147  13.982   8.072  0.3073  0.0737 -0.3603
  814YOPS   C4A10908   2.481  13.910   8.253 -0.1476  0.1813 -0.1302
  814YOPS   C1B10909   2.470  14.238   6.982  0.1390 -0.2302 -0.0006
  814YOPS   C2B10910   2.734  14.541   7.285  0.1630  0.2092 -0.3644
  814YOPS   D3B10911   3.038  14.746   7.505  0.1973 -0.3483  0.2460
  814YOPS   C4B10912   3.375  14.550   7.696  0.0243 -0.0079 -0.1365
  815YOPS   CNO10913  13.230  15.013   5.776 -0.0386  0.1633 -0.3046
  815YOPS   PO410914  13.318  14.931   6.295  0.0070 -0.1050  0.2700
  815YOPS   GL110915  13.288  15.032   6.636 -0.3392 -0.1492  0.0447
  815YOPS   GL210916  13.388  14.747   6.784  0.1350  0.3962 -0.1024
  815YOPS   C1A10917  13.053  15.245   6.946  0.1372  0.1689  0.2251
  815YOPS   D2A10918  13.046  15.322   7.305  0.1613  0.0314  0.3083
  815YOPS   C3A10919  12.857  15.738   7.494  0.1813  0.1119 -0.1248
  815YOPS   C4A10920  12.995  16.009   7.708 -0.1233  0.1963 -0.0160
  815YOPS   C1B10921  13.334  14.889   7.137 -0.0198  0.2429 -0.0252
  815YOPS   C2B10922  13.195  14.910   7.533  0.1699  0.0544  0.1803
  815YOPS   D3B10923  13.054  14.833   7.996  0.0423 -0.1489  0.0646
  815YOPS   C4B10924  12.976  15.169   8.305 -0.2832  0.2163 -0.0416
  816YOPS   CNO10925   0.406  17.272   5.809  0.0089 -0.3943 -0.0489
  816YOPS   PO410926   0.221  16.912   5.968  0.0092  0.1401 -0.2189
  816YOPS   GL110927   0.285  16.888   6.473 -0.0989  0.2152  0.0608
  816YOPS   GL210928   0.710  16.716   6.510 -0.0976  0.0659  0.1630
  816YOPS   C1A10929   0.078  17.093   6.728  0.2680 -0.2414  0.0115
  816YOPS   D2A10930   0.060  17.276   7.133 -0.2670 -0.0890  0.1829
  816YOPS   C3A10931   0.076  17.264   7.483 -0.1044 -0.0951 -0.1403
  816YOPS   C4A10932   0.113  17.544   7.739 -0.0832  0.3114 -0.1942
  816YOPS   C1B10933   0.455  16.847   6.983  0.0672  0.1579  0.1002
  816YOPS   C2B10934   0.446  16.959   7.354  0.2422  0.0365  0.1323
  816YOPS   D3B10935   0.641  17.188   7.719 -0.2954 -0.0663  0.0385
  816YOPS   C4B10936   0.309  17.176   7.984  0.2241  0.2180  0.2753
  817YOPS   CNO10937  13.312  13.197   6.250 -0.1547 -0.1022 -0.1272
  817YOPS   PO410938  13.615  13.169   6.528  0.2788  0.2292  0.4430
  817YOPS   GL110939  13.498  13.011   6.943 -0.0108  0.2821 -0.0952
  817YOPS   GL210940  13.840  13.098   7.004  0.0862 -0.0151 -0.2029
  817YOPS   C1A10941  13.536  12.997   7.365  0.1317 -0.1360  0.1794
  817YOPS   D2A10942  13.731  12.875   7.808 -0.3068  0.1741 -0.0558
  817YOPS   C3A10943  13.780  13.156   8.190  0.1298 -0.2379 -0.1349
  817YOPS   C4A10944  13.461  13.518   8.043 -0.0816  0.0087  0.0259
  817YOPS   C1B10945  14.202  12.870   7.210  0.1877  0.0869 -0.3000
  817YOPS   C2B10946  14.177  12.721   7.672 -0.5751  0.0678  0.1558
  817YOPS   D3B10947  14.045  12.613   8.037  0.1263  0.1570  0.0873
  817YOPS   C4B10948  13.618  12.549   8.190 -0.0840  0.0994 -0.1485
  818YOPS   CNO10949   7.577  16.259   6.491 -0.1650  0.1582 -0.2228
  818YOPS   PO410950   7.456  15.794   6.619  0.0537  0.1363  0.2423
  818YOPS   GL110951   7.597  15.902   7.068  0.0358  0.2227 -0.2303
  818YOPS   GL210952   7.895  15.888   7.150  0.0303  0.1691  0.1735
  818YOPS   C1A10953   7.546  15.841   7.504  0.1713  0.0396 -0.0250
  818YOPS   D2A10954   7.667  15.792   8.005  0.2011 -0.1325 -0.2527
  818YOPS   C3A10955   7.900  15.755   8.405 -0.2605  0.1319 -0.2929
  818YOPS   C4A10956   7.925  15.567   8.774  0.1355  0.1215 -0.1165
  818YOPS   C1B10957   7.986  15.637   7.549  0.0187  0.0987 -0.0293
  818YOPS   C2B10958   8.044  15.498   7.952 -0.2022 -0.0082 -0.1158
  818YOPS   D3B10959   8.040  15.216   8.327  0.0313 -0.3333 -0.3585
  818YOPS   C4B10960   7.666  15.185   8.581  0.3205 -0.0500 -0.1881
  819YOPS   CNO10961   1.111  17.463   6.295 -0.0352  0.1879 -0.0068
  819YOPS   PO410962   1.501  17.320   6.448  0.0829  0.2214  0.0598
  819YOPS   GL110963   1.620  17.155   6.963 -0.0494  0.3431 -0.2320
  819YOPS   GL210964   1.921  17.234   7.134  0.0794 -0.4723 -0.1692
  819YOPS   C1A10965   1.492  16.977   7.393  0.0510  0.0343  0.0487
  819YOPS   D2A10966   1.498  16.672   7.719 -0.0232 -0.0716  0.0089
  819YOPS   C3A10967   1.300  16.589   8.022  0.1566 -0.2477  0.0237
  819YOPS   C4A10968   1.031  16.921   8.164  0.0248  0.1035 -0.0823
  819YOPS   C1B10969   1.692  17.410   7.531 -0.3413 -0.0175 -0.3811
  819YOPS   C2B10970   1.608  17.639   7.954  0.1231 -0.0815  0.1212
  819YOPS   D3B10971   1.278  18.015   7.970  0.3179  0.0836  0.0609
  819YOPS   C4B10972   0.889  17.859   8.161  0.1786  0.2534 -0.0470
  820YOPS   CNO10973   2.559   8.007   5.302  0.2104  0.2404  0.1950
  820YOPS   PO410974   2.449   7.719   5.722 -0.0623 -0.1781  0.2153
  820YOPS   GL110975   2.478   7.789   6.244  0.2649 -0.0337  0.0429
  820YOPS   GL210976   2.817   7.824   6.454  0.2751  0.0368  0.1337
  820YOPS   C1A10977   2.256   7.464   6.513 -0.1121 -0.0355 -0.0195
  820YOPS   D2A10978   2.282   7.218   6.825 -0.1863 -0.2701  0.2237
  820YOPS   C3A10979   2.562   6.941   7.139 -0.1151  0.1318  0.2652
  820YOPS   C4A10980   2.382   6.739   7.463  0.0046  0.4252  0.1941
  820YOPS   C1B10981   2.610   7.700   6.745  0.1050 -0.1105  0.1359
  820YOPS   C2B10982   2.592   7.549   7.174 -0.0057  0.1694 -0.3344
  820YOPS   D3B10983   2.613   7.275   7.495 -0.1747 -0.0320  0.2842
  820YOPS   C4B10984   2.703   7.356   7.933  0.1343 -0.1191 -0.0185
  821YOPS   CNO10985  15.975  12.661   5.989 -0.0788  0.0881  0.1144
  821YOPS   PO410986  16.208  12.919   6.226  0.0508  0.0087  0.0587
  821YOPS   GL110987  16.109  12.722   6.612  0.0056 -0.0439  0.1617
  821YOPS   GL210988  15.869  12.820   6.841  0.3507  0.2401 -0.2334
  821YOPS   C1A10989  16.043  12.391   6.995 -0.2123 -0.0344 -0.2793
  821YOPS   D2A10990  15.971  12.205   7.380 -0.0958  0.3303 -0.1606
  821YOPS   C3A10991  16.041  12.211   7.845 -0.0568  0.3714 -0.0736
  821YOPS   C4A10992  16.394  12.026   7.973  0.1752 -0.2568 -0.1575
  821YOPS   C1B10993  16.204  12.930   7.222  0.0858 -0.1319 -0.0602
  821YOPS   C2B10994  16.310  13.309   7.543  0.1761  0.0863 -0.0407
  821YOPS   D3B10995  16.469  13.648   7.680 -0.0376  0.1483  0.0947
  821YOPS   C4B10996  16.433  13.766   8.123 -0.0936  0.0066 -0.0652
  822YOPS   CNO10997   4.871  11.614   6.559  0.0243 -0.3050  0.0530
  822YOPS   PO410998   4.821  11.979   6.408  0.0432 -0.0541 -0.0849
  822YOPS   GL110999   4.815  12.141   6.842  0.0397  0.1640 -0.1485
  822YOPS   GL211000   5.027  11.877   6.968 -0.2288 -0.0648  0.1934
  822YOPS   C1A11001   4.788  12.154   7.340  0.2905  0.3547  0.1550
  822YOPS   D2A11002   4.726  12.235   7.754 -0.0521 -0.1854  0.0696
  822YOPS   C3A11003   4.808  12.437   8.173 -0.0982 -0.0829 -0.2510
  822YOPS   C4A11004   4.554  12.496   8.475 -0.1072 -0.0641 -0.0334
  822YOPS   C1B11005   4.943  11.663   7.286  0.0639  0.1587  0.3157
  822YOPS   C2B11006   4.981  11.599   7.639 -0.1248  0.1807  0.1065
  822YOPS   D3B11007   4.951  11.761   7.988 -0.1516 -0.0946  0.1317
  822YOPS   C4B11008   4.681  11.869   8.240 -0.1702  0.0100 -0.0702
  823YOPS   CNO11009   8.963  13.310   5.985 -0.1284  0.0118  0.0239
  823YOPS   PO411010   9.282  12.964   5.914  0.2701 -0.3046 -0.0769
  823YOPS   GL111011   9.367  12.929   6.354 -0.1256  0.1542  0.3121
  823YOPS   GL211012   9.718  12.947   6.363 -0.0394 -0.1205  0.2438
  823YOPS   C1A11013   9.268  12.610   6.592 -0.2226  0.0219 -0.0214
  823YOPS   D2A11014   9.209  12.631   7.021 -0.1929  0.2063  0.0327
  823YOPS   C3A11015   9.241  12.457   7.340 -0.1116 -0.1970 -0.1377
  823YOPS   C4A11016   9.022  11.987   7.372  0.1938  0.1446  0.1154
  823YOPS   C1B11017   9.764  12.804   6.784  0.0482 -0.0471 -0.3706
  823YOPS   C2B11018   9.666  12.654   7.235 -0.1369  0.2246 -0.4050
  823YOPS   D3B11019   9.657  12.610   7.714 -0.1173 -0.0646 -0.0066
  823YOPS   C4B11020   9.399  12.662   7.904  0.0268  0.1247 -0.3248
  824YOPS   CNO11021  12.558   7.691   5.347 -0.0251  0.1823  0.0474
  824YOPS   PO411022  12.237   7.412   5.626 -0.0624 -0.2998  0.4231
  824YOPS   GL111023  12.377   7.262   6.048 -0.1767  0.0519  0.1067
  824YOPS   GL211024  12.322   6.933   6.259 -0.0672 -0.1736  0.0145
  824YOPS   C1A11025  12.372   7.350   6.568 -0.2033  0.0612  0.1883
  824YOPS   D2A11026  12.228   7.266   7.056  0.0085 -0.1568 -0.2850
  824YOPS   C3A11027  12.349   7.440   7.466  0.1072 -0.2402 -0.1284
  824YOPS   C4A11028  12.420   7.367   7.866 -0.0531 -0.3092  0.0497
  824YOPS   C1B11029  12.279   6.814   6.629 -0.0583 -0.3346  0.0972
  824YOPS   C2B11030  11.908   6.576   6.868  0.3135 -0.0938  0.0424
  824YOPS   D3B11031  11.946   6.254   7.201  0.1867 -0.2574  0.1383
  824YOPS   C4B11032  12.380   6.037   7.415  0.1242 -0.2947 -0.2571
  825YOPS   CNO11033  11.376   7.998   5.455  0.0899 -0.1529 -0.0390
  825YOPS   PO411034  11.262   7.950   5.809 -0.0377  0.0751  0.1567
  825YOPS   GL111035  11.445   7.780   6.123 -0.0981 -0.0396 -0.0121
  825YOPS   GL211036  11.219   7.790   6.354 -0.2296 -0.3776 -0.1046
  825YOPS   C1A11037  11.489   7.407   6.236  0.2883 -0.0463 -0.2949
  825YOPS   D2A11038  11.391   6.989   6.464  0.0887  0.0076  0.1925
  825YOPS   C3A11039  10.951   6.769   6.633  0.1738 -0.0987  0.0994
  825YOPS   C4A11040  11.028   6.546   6.959 -0.1809  0.2105 -0.1304
  825YOPS   C1B11041  11.243   8.101   6.725  0.0839 -0.2808  0.2494
  825YOPS   C2B11042  11.595   8.127   6.977 -0.0261 -0.2209  0.1907
  825YOPS   D3B11043  11.803   8.006   7.275 -0.0072 -0.0618  0.1197
  825YOPS   C4B11044  11.988   7.681   7.319  0.1638 -0.0357 -0.0060
  826YOPS   CNO11045  15.455   3.490   5.151  0.3375 -0.2786  0.2172
  826YOPS   PO411046  15.513   3.638   5.569  0.1092 -0.0485 -0.0067
  826YOPS   GL111047  15.444   3.710   6.032  0.1420 -0.0660  0.1862
  826YOPS   GL211048  15.132   3.933   6.128  0.0040  0.1253 -0.1902
  826YOPS   C1A11049  15.452   3.947   6.501 -0.0310 -0.1001 -0.1400
  826YOPS   D2A11050  15.799   4.106   6.657 -0.2853  0.1567  0.0782
  826YOPS   C3A11051  16.254   3.980   6.823  0.2689 -0.0320  0.0070
  826YOPS   C4A11052  16.265   3.917   7.251  0.0592  0.2532  0.1875
  826YOPS   C1B11053  14.853   4.004   6.542  0.0433 -0.0306  0.0325
  826YOPS   C2B11054  14.845   3.968   6.982 -0.1173 -0.0934  0.1908
  826YOPS   D3B11055  14.690   3.776   7.286 -0.0628 -0.1501 -0.0507
  826YOPS   C4B11056  14.155   3.645   7.238 -0.1793 -0.0837  0.1545
  827YOPS   CNO11057  14.643  12.914   6.311 -0.4462 -0.0790  0.3261
  827YOPS   PO411058  14.577  13.303   6.523  0.1617 -0.0578 -0.2197
  827YOPS   GL111059  14.575  13.276   7.004 -0.0852  0.0198 -0.0220
  827YOPS   GL211060  14.564  13.621   7.213  0.0067 -0.1411  0.2691
  827YOPS   C1A11061  14.394  13.285   7.449 -0.0466  0.3886  0.0031
  827YOPS   D2A11062  14.251  13.182   7.860  0.1467 -0.1059  0.0327
  827YOPS   C3A11063  14.359  13.200   8.311 -0.3000 -0.0322  0.0058
  827YOPS   C4A11064  14.254  12.848   8.469  0.0359 -0.0330  0.0828
  827YOPS   C1B11065  14.426  13.763   7.523  0.2810  0.0701  0.0381
  827YOPS   C2B11066  14.099  13.684   7.859 -0.0552  0.0456 -0.0289
  827YOPS   D3B11067  13.831  13.778   8.301  0.1353 -0.0583  0.1195
  827YOPS   C4B11068  14.033  14.060   8.574  0.0790  0.3132  0.0211
  828YOPS   CNO11069   4.829   7.884   6.285 -0.0388  0.0128  0.0985
  828YOPS   PO411070   4.567   8.171   6.008  0.3371  0.0191 -0.1164
  828YOPS   GL111071   4.282   8.213   6.329 -0.0586 -0.1573  0.0164
  828YOPS   GL211072   4.517   8.260   6.544  0.1110  0.0443 -0.0314
  828YOPS   C1A11073   4.083   8.015   6.621  0.2371 -0.0055 -0.1647
  828YOPS   D2A11074   3.903   8.135   7.060 -0.0166  0.0828 -0.3808
  828YOPS   C3A11075   4.024   8.454   7.275 -0.0104 -0.4299  0.2139
  828YOPS   C4A11076   4.229   8.515   7.670 -0.0731  0.0934  0.0710
  828YOPS   C1B11077   4.889   8.216   6.776  0.0505  0.0592 -0.0697
  828YOPS   C2B11078   5.044   8.230   7.175 -0.0772 -0.0174 -0.0258
  828YOPS   D3B11079   5.031   8.076   7.577  0.2272 -0.2615  0.0737
  828YOPS   C4B11080   4.925   8.188   7.941 -0.1069  0.0966 -0.1100
  829YOPS   CNO11081  14.365   1.083   6.219 -0.0935  0.0829 -0.0964
  829YOPS   PO411082  14.011   0.792   6.163 -0.2098  0.2273  0.0359
  829YOPS   GL111083  14.087   0.935   6.575  0.0260  0.0173  0.0769
  829YOPS   GL211084  14.397   0.858   6.715 -0.2519  0.1929  0.2412
  829YOPS   C1A11085  13.892   1.046   6.975  0.0253  0.2807 -0.1601
  829YOPS   D2A11086  13.729   0.923   7.355  0.4077 -0.3987  0.1224
  829YOPS   C3A11087  13.611   0.644   7.567 -0.1233 -0.1155  0.0183
  829YOPS   C4A11088  13.778   0.583   7.922 -0.2866 -0.2897  0.3172
  829YOPS   C1B11089  14.331   0.714   7.113  0.0058 -0.2165 -0.1158
  829YOPS   C2B11090  14.497   0.683   7.437  0.2871 -0.1500 -0.1928
  829YOPS   D3B11091  14.771   0.507   7.795  0.0309  0.0849 -0.1291
  829YOPS   C4B11092  15.005   0.550   8.182 -0.2377 -0.0355  0.4369
  830YOPS   CNO11093  17.051  14.832   6.035 -0.3403  0.2558 -0.0943
  830YOPS   PO411094  16.890  15.015   6.439  0.1031  0.1040 -0.1030
  830YOPS   GL111095  16.987  15.284   6.792  0.3194  0.0657 -0.2785
  830YOPS   GL211096  16.889  15.561   6.740 -0.1524 -0.4560 -0.3428
  830YOPS   C1A11097  17.142  15.391   7.202 -0.1707 -0.1370 -0.2459
  830YOPS   D2A11098  17.065  15.362   7.759  0.1847 -0.0290 -0.0500
  830YOPS   C3A11099  17.221  15.127   8.153 -0.0748 -0.2917  0.0685
  830YOPS   C4A11100  17.332  15.405   8.542 -0.0629  0.0508  0.1036
  830YOPS   C1B11101  16.801  15.733   7.137 -0.0500  0.1328 -0.0853
  830YOPS   C2B11102  16.919  15.909   7.509  0.1870 -0.1911  0.1830
  830YOPS   D3B11103  16.843  15.941   7.980  0.0779  0.0552 -0.0307
  830YOPS   C4B11104  16.736  15.933   8.318 -0.3089  0.0557  0.3231
  831YOPS   CNO11105  12.381   6.489   5.830  0.0211  0.3013  0.4026
  831YOPS   PO411106  12.107   6.206   5.882 -0.0332  0.2448 -0.2367
  831YOPS   GL111107  11.972   6.217   6.327 -0.2303  0.0065 -0.4009
  831YOPS   GL211108  12.213   6.411   6.389 -0.1468  0.0883 -0.2751
  831YOPS   C1A11109  11.933   5.995   6.732  0.0264 -0.2250  0.0630
  831YOPS   D2A11110  12.076   5.782   7.068  0.1766 -0.0584 -0.1966
  831YOPS   C3A11111  11.920   5.732   7.530  0.1179 -0.1982  0.2717
  831YOPS   C4A11112  11.706   6.056   7.716 -0.1462 -0.3181  0.0883
  831YOPS   C1B11113  12.299   6.315   6.889 -0.2984 -0.1792  0.0335
  831YOPS   C2B11114  12.202   6.667   7.243 -0.3548 -0.0507  0.2346
  831YOPS   D3B11115  12.327   6.813   7.702 -0.1094  0.1921 -0.2076
  831YOPS   C4B11116  12.621   6.948   8.050 -0.0878 -0.2054 -0.1114
  832YOPS   CNO11117  15.219   9.339   5.461 -0.0641  0.1968  0.0579
  832YOPS   PO411118  15.446   9.342   5.865  0.1290  0.0384 -0.1121
  832YOPS   GL111119  15.416   9.043   6.110  0.0374 -0.2561 -0.1370
  832YOPS   GL211120  15.156   8.799   6.222 -0.1528  0.1848 -0.0550
  832YOPS   C1A11121  15.556   9.002   6.521 -0.1419 -0.0813 -0.1499
  832YOPS   D2A11122  15.529   9.032   6.991  0.0489  0.0377  0.0449
  832YOPS   C3A11123  15.510   8.811   7.390 -0.0921  0.0720  0.1151
  832YOPS   C4A11124  15.568   8.945   7.743 -0.0842 -0.2944 -0.0283
  832YOPS   C1B11125  15.013   8.678   6.625  0.1391 -0.1477 -0.2203
  832YOPS   C2B11126  15.071   8.930   7.075 -0.0691 -0.0957 -0.2840
  832YOPS   D3B11127  15.190   9.188   7.490  0.2614  0.0621 -0.1353
  832YOPS   C4B11128  14.941   9.066   7.930  0.0292 -0.0963 -0.0607
  833YOPS   CNO11129   6.346   1.747   5.809  0.0032 -0.0834 -0.1870
  833YOPS   PO411130   6.777   1.724   6.065  0.0130  0.0784  0.3315
  833YOPS   GL111131   6.752   1.818   6.524  0.0707  0.0199 -0.0963
  833YOPS   GL211132   6.762   1.566   6.741 -0.0347  0.0622  0.4306
  833YOPS   C1A11133   6.750   2.084   6.852  0.2513 -0.2865  0.2465
  833YOPS   D2A11134   6.824   2.463   7.191 -0.0227  0.0163  0.1612
  833YOPS   C3A11135   7.076   2.809   7.079 -0.0739 -0.3063  0.0953
  833YOPS   C4A11136   7.205   3.075   7.226  0.2121 -0.0909  0.0808
  833YOPS   C1B11137   6.998   1.693   7.005  0.1266  0.0923  0.1217
  833YOPS   C2B11138   7.008   1.982   7.402 -0.1057 -0.2695  0.0466
  833YOPS   D3B11139   6.938   2.296   7.710  0.0515  0.0041 -0.1541
  833YOPS   C4B11140   7.001   2.237   8.193  0.0242  0.1322 -0.1416
  834YOPS   CNO11141  16.672   6.512   5.694 -0.0375 -0.0948  0.0142
  834YOPS   PO411142  16.669   6.901   5.848 -0.0853  0.1443 -0.0386
  834YOPS   GL111143  16.607   6.677   6.190 -0.1983  0.1998 -0.3088
  834YOPS   GL211144  16.812   6.546   6.387  0.0752 -0.0231 -0.0022
  834YOPS   C1A11145  16.458   6.791   6.609  0.1581 -0.0259  0.0136
  834YOPS   D2A11146  16.549   6.704   7.104  0.1332 -0.4726 -0.4152
  834YOPS   C3A11147  16.579   6.799   7.532 -0.2798 -0.0469  0.3017
  834YOPS   C4A11148  16.883   6.964   7.976  0.3204 -0.0021 -0.0340
  834YOPS   C1B11149  16.684   6.352   6.755  0.0668 -0.0345  0.3617
  834YOPS   C2B11150  16.747   6.258   7.179  0.0520  0.2203 -0.0678
  834YOPS   D3B11151  16.400   6.298   7.500  0.1507  0.0012  0.3197
  834YOPS   C4B11152  15.975   6.223   7.539 -0.0104  0.0481 -0.1302
  835YOPS   CNO11153  12.781   2.877   6.267 -0.0225 -0.0246 -0.2910
  835YOPS   PO411154  13.035   2.563   6.190 -0.1214 -0.3838 -0.1897
  835YOPS   GL111155  13.058   2.455   6.567 -0.0864  0.1362 -0.2448
  835YOPS   GL211156  12.853   2.655   6.765 -0.2539  0.2577  0.2488
  835YOPS   C1A11157  13.306   2.296   6.827 -0.0988  0.1998  0.1434
  835YOPS   D2A11158  13.379   2.401   7.273  0.0612  0.2138 -0.0415
  835YOPS   C3A11159  13.286   2.557   7.688 -0.1678 -0.1028 -0.1140
  835YOPS   C4A11160  13.463   2.330   8.051 -0.1112  0.3325  0.2086
  835YOPS   C1B11161  12.880   2.441   7.113 -0.0042  0.0576 -0.0430
  835YOPS   C2B11162  12.732   2.558   7.606  0.1574  0.0034 -0.4878
  835YOPS   D3B11163  12.559   2.851   7.875  0.5535 -0.1916 -0.0944
  835YOPS   C4B11164  12.283   3.192   7.824 -0.0786 -0.2488  0.2532
  836YOPS   CNO11165   0.955   8.025   5.776  0.1128 -0.0300  0.1267
  836YOPS   PO411166   1.251   8.201   6.131 -0.2062 -0.2194  0.1212
  836YOPS   GL111167   1.071   8.119   6.436 -0.0172 -0.2878  0.0508
  836YOPS   GL211168   1.253   8.015   6.644  0.0032  0.1388  0.1514
  836YOPS   C1A11169   0.729   7.916   6.730  0.0287 -0.3007  0.0175
  836YOPS   D2A11170   0.661   7.894   7.202 -0.2884  0.1207  0.0941
  836YOPS   C3A11171   0.827   7.818   7.757 -0.0136  0.0325 -0.0281
  836YOPS   C4A11172   1.312   7.889   7.905  0.0292  0.0151  0.3924
  836YOPS   C1B11173   1.082   8.183   7.023 -0.0594 -0.0490  0.4892
  836YOPS   C2B11174   1.151   8.037   7.441 -0.1378 -0.0099  0.0887
  836YOPS   D3B11175   1.087   8.306   7.883 -0.2221  0.0689 -0.0586
  836YOPS   C4B11176   0.930   8.047   8.216 -0.1037  0.2538  0.1710
  837YOPS   CNO11177   7.479  13.032   5.849 -0.0155 -0.2171  0.0148
  837YOPS   PO411178   7.480  12.676   6.190 -0.0104  0.1498  0.0169
  837YOPS   GL111179   7.574  12.830   6.535 -0.1287  0.1697  0.0622
  837YOPS   GL211180   7.321  12.903   6.721  0.0227  0.3007 -0.0342
  837YOPS   C1A11181   7.660  12.609   6.962 -0.0122 -0.0395  0.2198
  837YOPS   D2A11182   7.586  12.456   7.348  0.2348  0.2024  0.0634
  837YOPS   C3A11183   7.725  12.358   7.846 -0.1513  0.0141 -0.0800
  837YOPS   C4A11184   7.752  12.250   8.201  0.0964  0.1351 -0.0881
  837YOPS   C1B11185   7.115  12.792   7.037  0.1743  0.2942  0.2577
  837YOPS   C2B11186   6.882  12.518   7.323 -0.1285 -0.1933 -0.3667
  837YOPS   D3B11187   6.722  12.186   7.652  0.2896 -0.2696  0.0316
  837YOPS   C4B11188   6.996  12.058   7.948  0.0741 -0.0484  0.2002
  838YOPS   CNO11189   4.529   4.216   5.155 -0.1059 -0.2193 -0.1624
  838YOPS   PO411190   4.715   3.965   5.606  0.0058  0.0285  0.1056
  838YOPS   GL111191   4.799   4.015   6.028 -0.0219 -0.3488 -0.2504
  838YOPS   GL211192   4.424   4.097   6.221 -0.0702  0.0506 -0.1267
  838YOPS   C1A11193   4.858   4.109   6.446 -0.0747  0.0814 -0.0709
  838YOPS   D2A11194   4.721   4.071   6.937  0.2236 -0.2758 -0.0245
  838YOPS   C3A11195   4.801   3.987   7.329 -0.1530  0.1905  0.5417
  838YOPS   C4A11196   5.130   4.261   7.493  0.0445  0.1258 -0.1654
  838YOPS   C1B11197   4.376   3.978   6.578 -0.3441 -0.0480 -0.0238
  838YOPS   C2B11198   4.241   4.100   7.022  0.0664  0.2569  0.1025
  838YOPS   D3B11199   4.314   4.020   7.422  0.1472 -0.1581  0.3641
  838YOPS   C4B11200   4.587   4.238   7.800  0.0629 -0.1383  0.1905
  839YOPS   CNO11201  12.816  13.340   6.151  0.0647 -0.1073  0.1248
  839YOPS   PO411202  12.907  12.924   6.190 -0.0085 -0.0084  0.2357
  839YOPS   GL111203  13.012  12.970   6.691 -0.0281 -0.5112  0.2925
  839YOPS   GL211204  13.003  13.303   6.652 -0.1316 -0.0721  0.0583
  839YOPS   C1A11205  13.080  12.940   7.128  0.1502 -0.0056  0.0185
  839YOPS   D2A11206  13.062  12.725   7.520  0.1627 -0.1419  0.1369
  839YOPS   C3A11207  13.245  12.666   7.862 -0.1959  0.1994  0.1384
  839YOPS   C4A11208  13.118  12.506   8.302 -0.1555  0.0114  0.1203
  839YOPS   C1B11209  12.921  13.391   7.096 -0.1546  0.2403  0.1088
  839YOPS   C2B11210  12.786  13.278   7.427 -0.0084  0.2074  0.0120
  839YOPS   D3B11211  12.785  13.491   7.847  0.2450 -0.0771 -0.0212
  839YOPS   C4B11212  13.003  13.415   8.199  0.2246 -0.0206 -0.1348
  840YOPS   CNO11213   9.292  13.479   6.383  0.0610 -0.3154  0.0435
  840YOPS   PO411214   9.728  13.527   6.367 -0.0249 -0.2627 -0.1125
  840YOPS   GL111215   9.694  13.337   6.620  0.0126 -0.2595  0.1539
  840YOPS   GL211216   9.675  13.433   6.980 -0.1092  0.1184  0.1904
  840YOPS   C1A11217   9.341  13.092   6.843  0.3557  0.2892  0.0014
  840YOPS   D2A11218   8.944  13.085   7.122 -0.0171  0.0616 -0.2664
  840YOPS   C3A11219   8.561  12.988   7.246  0.0354 -0.2597 -0.0257
  840YOPS   C4A11220   8.542  12.873   7.612  0.0184  0.1897 -0.2452
  840YOPS   C1B11221   9.642  13.121   7.185 -0.0251  0.1519  0.2199
  840YOPS   C2B11222   9.328  12.922   7.446  0.0920  0.2398 -0.0871
  840YOPS   D3B11223   9.011  12.757   7.626 -0.4404  0.0700 -0.2011
  840YOPS   C4B11224   8.783  12.817   8.097  0.2995 -0.0870  0.0555
  841YOPS   CNO11225   4.557  13.922   6.176  0.0221  0.1323 -0.0035
  841YOPS   PO411226   4.814  14.324   6.103 -0.1035  0.2532 -0.1790
  841YOPS   GL111227   4.915  14.168   6.496  0.0491 -0.2277 -0.0310
  841YOPS   GL211228   5.209  14.184   6.710  0.2552  0.0130  0.0863
  841YOPS   C1A11229   4.817  14.378   7.001  0.2591  0.0298 -0.0325
  841YOPS   D2A11230   4.642  14.318   7.388 -0.0287  0.0301 -0.1665
  841YOPS   C3A11231   4.705  14.092   7.776  0.0056 -0.0210  0.0996
  841YOPS   C4A11232   4.809  13.876   8.095 -0.2020 -0.2242  0.2338
  841YOPS   C1B11233   5.296  14.221   7.089 -0.0291 -0.2831 -0.3050
  841YOPS   C2B11234   5.105  14.410   7.448 -0.1873 -0.0993  0.0961
  841YOPS   D3B11235   5.259  14.720   7.747 -0.2731 -0.2786 -0.2242
  841YOPS   C4B11236   5.094  14.807   8.126  0.0719 -0.0569  0.1977
  842POPE   NH311237  14.820   2.572   5.931 -0.1057 -0.1989  0.0428
  842POPE   PO411238  14.830   3.027   5.930 -0.0361  0.2395  0.2466
  842POPE   GL111239  14.948   3.085   6.312 -0.1540  0.0025  0.0407
  842POPE   GL211240  14.877   2.758   6.438 -0.1018 -0.1437  0.0252
  842POPE   C1A11241  14.864   3.124   6.748  0.2273 -0.1501  0.2044
  842POPE   D2A11242  14.635   2.991   7.115 -0.1555 -0.1989  0.1498
  842POPE   C3A11243  14.506   3.228   7.375 -0.0093 -0.0218 -0.0941
  842POPE   C4A11244  14.422   3.560   7.704 -0.0277  0.0071  0.2058
  842POPE   C1B11245  14.770   2.618   6.787  0.3596 -0.1923 -0.1843
  842POPE   C2B11246  14.750   2.535   7.294 -0.2886  0.2183  0.1598
  842POPE   C3B11247  14.630   2.786   7.651 -0.2730 -0.1593  0.0443
  842POPE   C4B11248  14.759   2.814   8.007 -0.0138  0.3098  0.0971
  843POPE   NH311249   0.168   4.281   5.865 -0.0803 -0.1417  0.1420
  843POPE   PO411250  -0.139   4.549   5.786 -0.3582  0.0473 -0.2820
  843POPE   GL111251  -0.061   4.637   6.224 -0.1990  0.0188 -0.2204
  843POPE   GL211252   0.024   4.963   6.164 -0.4346  0.3020  0.0638
  843POPE   C1A11253  -0.007   4.495   6.722  0.0852 -0.2494 -0.2451
  843POPE   D2A11254   0.169   4.594   7.183 -0.0999 -0.0580  0.1015
  843POPE   C3A11255   0.277   4.441   7.474  0.0882 -0.1448 -0.3709
  843POPE   C4A11256   0.469   4.382   7.928 -0.1297  0.1788  0.1344
  843POPE   C1B11257  -0.129   5.010   6.631  0.2607 -0.0199 -0.0286
  843POPE   C2B11258  -0.163   5.031   7.136 -0.1211  0.0207  0.1617
  843POPE   C3B11259  -0.027   4.925   7.457 -0.2324  0.0139 -0.0012
  843POPE   C4B11260   0.057   4.881   7.818  0.0252 -0.5256 -0.0265
  844POPE   NH311261  11.624  16.284   6.645  0.1066 -0.0867 -0.0189
  844POPE   PO411262  12.073  16.536   6.867  0.0863  0.0365 -0.0212
  844POPE   GL111263  12.304  16.515   7.216 -0.1593 -0.0577 -0.1563
  844POPE   GL211264  12.612  16.687   7.257  0.2633  0.3112  0.1892
  844POPE   C1A11265  12.188  16.581   7.667 -0.2315 -0.0454  0.1630
  844POPE   D2A11266  12.144  16.903   8.017 -0.0687 -0.0129 -0.3557
  844POPE   C3A11267  12.192  16.914   8.413 -0.2845  0.0780  0.0320
  844POPE   C4A11268  12.385  16.726   8.734  0.0016 -0.4511  0.0380
  844POPE   C1B11269  12.879  16.956   7.519  0.2472 -0.0334 -0.0575
  844POPE   C2B11270  13.063  16.904   7.926  0.0440 -0.1530 -0.0028
  844POPE   C3B11271  13.115  16.866   8.400  0.1254 -0.4318 -0.1920
  844POPE   C4B11272  13.396  16.861   8.733  0.0400 -0.2454 -0.0470
  845POPE   NH311273  15.484  14.986   6.633 -0.0678 -0.0181  0.0050
  845POPE   PO411274  15.980  15.015   6.763 -0.0049  0.0042  0.1918
  845POPE   GL111275  16.265  14.825   6.963  0.1298 -0.0908 -0.0340
  845POPE   GL211276  16.645  14.879   6.955  0.1736  0.0216 -0.0801
  845POPE   C1A11277  16.439  14.678   7.309 -0.0244  0.0720 -0.0670
  845POPE   D2A11278  16.201  14.610   7.646 -0.3852 -0.0717 -0.1836
  845POPE   C3A11279  16.360  14.634   8.055  0.0127  0.0021 -0.1047
  845POPE   C4A11280  16.598  14.656   8.360  0.1546 -0.1586  0.0546
  845POPE   C1B11281  16.654  15.217   7.155  0.0888  0.1499 -0.0488
  845POPE   C2B11282  16.581  15.371   7.523 -0.0597 -0.2940 -0.0176
  845POPE   C3B11283  16.611  15.462   7.930 -0.0474 -0.0593  0.2233
  845POPE   C4B11284  16.878  15.450   8.321  0.3780 -0.0469 -0.0337
  846POPE   NH311285  14.350  11.273   6.067 -0.2122  0.0452 -0.3812
  846POPE   PO411286  14.678  10.977   6.119 -0.1104  0.1001  0.1350
  846POPE   GL111287  14.792  10.708   6.467 -0.1975  0.3240  0.0258
  846POPE   GL211288  14.543  10.488   6.450 -0.0125 -0.0641  0.0066
  846POPE   C1A11289  14.916  10.849   6.862  0.1276  0.1650 -0.1015
  846POPE   D2A11290  14.844  10.857   7.320  0.0150  0.0056 -0.3717
  846POPE   C3A11291  14.822  10.562   7.662  0.0572  0.1164 -0.3015
  846POPE   C4A11292  14.504  10.306   7.830 -0.2788 -0.1392  0.1384
  846POPE   C1B11293  14.467  10.235   6.852 -0.1751 -0.0786 -0.1042
  846POPE   C2B11294  14.589  10.278   7.310  0.1196 -0.1734 -0.2210
  846POPE   C3B11295  14.796   9.900   7.541 -0.1447  0.1354  0.1570
  846POPE   C4B11296  15.025   9.548   7.798 -0.0160 -0.2059 -0.1447
  847POPE   NH311297  16.679  10.944   6.164  0.1030 -0.1425  0.2424
  847POPE   PO411298  16.812  11.287   6.340  0.0926  0.0154 -0.0909
  847POPE   GL111299  16.673  11.434   6.725  0.0267 -0.2093  0.1807
  847POPE   GL211300  16.268  11.554   6.856  0.2105  0.0800 -0.2073
  847POPE   C1A11301  16.569  11.502   7.226  0.0163 -0.1751  0.1709
  847POPE   D2A11302  16.385  11.522   7.713 -0.1672 -0.2747  0.1103
  847POPE   C3A11303  16.431  11.398   8.080  0.1312  0.0588 -0.0799
  847POPE   C4A11304  16.666  11.240   8.352  0.0682  0.1259 -0.2416
  847POPE   C1B11305  16.127  11.637   7.289 -0.0309 -0.0947  0.4840
  847POPE   C2B11306  15.929  11.757   7.633 -0.2800  0.2128 -0.0251
  847POPE   C3B11307  15.921  11.647   7.941 -0.3024  0.4285  0.0755
  847POPE   C4B11308  16.030  11.753   8.257 -0.1145 -0.1558 -0.2346
  848POPE   NH311309   1.572   7.402   5.498 -0.1447 -0.0614  0.0827
  848POPE   PO411310   1.608   7.451   5.900  0.2508 -0.1159  0.3702
  848POPE   GL111311   1.655   7.375   6.337  0.3010  0.0985 -0.0258
  848POPE   GL211312   1.455   7.199   6.444 -0.0110  0.0846  0.1037
  848POPE   C1A11313   1.859   7.445   6.780 -0.2088  0.0450 -0.0493
  848POPE   D2A11314   2.168   7.723   6.926  0.0490 -0.3424  0.1252
  848POPE   C3A11315   2.122   7.782   7.348  0.0729  0.1274 -0.0676
  848POPE   C4A11316   2.307   7.632   7.684 -0.2023  0.2323 -0.2123
  848POPE   C1B11317   1.495   7.163   6.825 -0.2913 -0.1249 -0.0999
  848POPE   C2B11318   1.550   7.177   7.250  0.0488  0.2769 -0.2232
  848POPE   C3B11319   1.577   6.955   7.655 -0.1510  0.0073 -0.1874
  848POPE   C4B11320   1.516   6.705   8.055 -0.0183 -0.1011  0.0825
  849POPE   NH311321  16.984   6.211   6.104 -0.1784  0.0118  0.2544
  849POPE   PO411322  17.271   6.400   6.197 -0.1219 -0.3073 -0.4257
  849POPE   GL111323  17.306   6.366   6.542 -0.1023  0.0325 -0.0780
  849POPE   GL211324  17.063   6.121   6.605 -0.0202  0.1460  0.1209
  849POPE   C1A11325  17.312   6.257   6.963  0.1171  0.3941 -0.0040
  849POPE   D2A11326  17.170   5.891   7.156  0.0645 -0.1083  0.1151
  849POPE   C3A11327  16.883   5.852   7.447  0.0839  0.2811  0.0068
  849POPE   C4A11328  16.793   5.876   7.722 -0.0773 -0.0995  0.0181
  849POPE   C1B11329  17.388   5.800   6.758  0.0094 -0.3156 -0.2637
  849POPE   C2B11330  17.591   5.573   7.177  0.2160 -0.0498 -0.2365
  849POPE   C3B11331  17.609   5.418   7.614  0.1756 -0.1628 -0.1506
  849POPE   C4B11332  17.473   5.253   7.952  0.0574 -0.2830 -0.1208
  850POPE   NH311333   2.231   3.522   5.907  0.0967 -0.0788 -0.1740
  850POPE   PO411334   1.893   3.705   5.988 -0.1459  0.3003  0.0335
  850POPE   GL111335   1.971   3.927   6.401  0.0403  0.2720  0.0312
  850POPE   GL211336   2.144   4.099   6.236  0.3741 -0.0628 -0.0435
  850POPE   C1A11337   1.974   4.231   6.718  0.0992 -0.0572 -0.2115
  850POPE   D2A11338   2.158   4.343   7.081 -0.2661 -0.0608 -0.2519
  850POPE   C3A11339   2.090   4.365   7.568 -0.3014  0.1361 -0.2393
  850POPE   C4A11340   2.020   4.229   7.954 -0.0447 -0.1020 -0.0029
  850POPE   C1B11341   2.008   4.564   6.310  0.0577  0.3170  0.5010
  850POPE   C2B11342   1.868   4.772   6.668  0.0391 -0.1502  0.0425
  850POPE   C3B11343   1.935   4.902   6.969  0.2476  0.1371 -0.3524
  850POPE   C4B11344   2.111   5.045   7.343  0.0587  0.1245 -0.1841
  851POPE   NH311345   8.589  15.680   6.746 -0.0433 -0.3115  0.1817
  851POPE   PO411346   8.224  15.611   6.900 -0.2330 -0.1042 -0.0729
  851POPE   GL111347   8.378  15.634   7.267 -0.1727  0.1896 -0.3014
  851POPE   GL211348   8.431  16.009   7.187 -0.0365  0.1333  0.0031
  851POPE   C1A11349   8.480  15.484   7.727 -0.2810  0.2503 -0.0901
  851POPE   D2A11350   8.495  15.470   8.142 -0.0705  0.2550  0.4645
  851POPE   C3A11351   8.439  15.737   8.486 -0.0668 -0.1170  0.3535
  851POPE   C4A11352   8.605  15.959   8.844  0.0008 -0.1598  0.0156
  851POPE   C1B11353   8.608  15.955   7.676  0.2348  0.2944  0.0898
  851POPE   C2B11354   8.690  15.955   8.130  0.1347 -0.1660 -0.0808
  851POPE   C3B11355   8.953  16.106   8.516 -0.1303  0.1084 -0.0164
  851POPE   C4B11356   9.149  16.105   8.903 -0.1931  0.0934  0.1744
  852POPE   NH311357   8.874   5.148   5.969  0.2687  0.1024  0.0477
  852POPE   PO411358   8.937   5.541   6.081  0.4032 -0.1325  0.1406
  852POPE   GL111359   9.230   5.453   6.370 -0.1453  0.1676 -0.2597
  852POPE   GL211360   9.426   5.255   6.113 -0.2931  0.1097 -0.2153
  852POPE   C1A11361   9.098   5.447   6.775 -0.3228 -0.0064 -0.3476
  852POPE   D2A11362   9.223   5.724   7.071  0.1206  0.1982  0.0293
  852POPE   C3A11363   9.095   5.590   7.439 -0.0461 -0.0539 -0.1987
  852POPE   C4A11364   9.176   5.261   7.839 -0.1464 -0.2587  0.1959
  852POPE   C1B11365   9.698   5.596   6.269 -0.2801 -0.1284  0.3706
  852POPE   C2B11366   9.988   5.804   6.628  0.1032 -0.1451  0.0525
  852POPE   C3B11367  10.427   6.207   6.559 -0.2129 -0.0601 -0.2958
  852POPE   C4B11368  10.887   6.295   6.461 -0.1121 -0.4248  0.4086
  853POPE   NH311369   5.236  11.665   6.225 -0.0733  0.0327 -0.1108
  853POPE   PO411370   5.647  11.579   6.025 -0.2388 -0.2018 -0.0938
  853POPE   GL111371   5.757  11.588   6.463  0.2666 -0.2076 -0.2448
  853POPE   GL211372   5.949  11.893   6.573  0.2508  0.0653 -0.0965
  853POPE   C1A11373   6.185  11.442   6.681 -0.0369  0.0830 -0.0404
  853POPE   D2A11374   6.485  11.454   6.982  0.1579 -0.2689  0.0214
  853POPE   C3A11375   6.360  11.426   7.423  0.0890  0.1571 -0.1345
  853POPE   C4A11376   6.298  11.342   7.812  0.0626 -0.1079 -0.3375
  853POPE   C1B11377   6.034  11.792   7.001 -0.1344  0.0175 -0.1365
  853POPE   C2B11378   6.286  11.923   7.179 -0.0268  0.0391  0.1132
  853POPE   C3B11379   6.314  11.982   7.583 -0.1620 -0.1461 -0.0643
  853POPE   C4B11380   6.470  11.977   8.060 -0.0599 -0.0038 -0.3970
  854POPE   NH311381   3.834   2.503   5.682 -0.0795 -0.0446 -0.0575
  854POPE   PO411382   4.180   2.225   5.963  0.1392  0.1108  0.0825
  854POPE   GL111383   4.161   2.255   6.330 -0.0677  0.0774 -0.0169
  854POPE   GL211384   4.431   2.233   6.543  0.0976 -0.0360 -0.1408
  854POPE   C1A11385   3.877   2.279   6.804  0.0343  0.0175  0.2074
  854POPE   D2A11386   3.977   2.098   7.184  0.4157  0.0820  0.2179
  854POPE   C3A11387   3.975   2.070   7.636  0.0526  0.0993 -0.2450
  854POPE   C4A11388   3.952   2.345   8.069 -0.0558  0.0084  0.1550
  854POPE   C1B11389   4.600   2.073   6.904 -0.0776 -0.0124  0.2433
  854POPE   C2B11390   4.415   1.920   7.313  0.0490  0.1552  0.2187
  854POPE   C3B11391   4.313   1.703   7.746  0.0339  0.0544  0.1803
  854POPE   C4B11392   4.442   1.747   8.219 -0.0768  0.0715 -0.0541
  855POPE   NH311393  10.435   1.415   6.168 -0.0262 -0.1633  0.1580
  855POPE   PO411394  10.229   1.102   6.449 -0.1883 -0.0084 -0.0045
  855POPE   GL111395  10.164   1.027   6.904  0.0541  0.4360  0.0329
  855POPE   GL211396   9.798   1.119   6.904  0.1891 -0.1718  0.0166
  855POPE   C1A11397  10.493   0.987   7.261 -0.1703  0.0719  0.0071
  855POPE   D2A11398  10.582   1.025   7.705 -0.1582 -0.0468  0.2070
  855POPE   C3A11399  10.959   1.325   7.778  0.2955 -0.4682  0.2373
  855POPE   C4A11400  11.150   1.635   8.120 -0.1569 -0.2178 -0.2530
  855POPE   C1B11401   9.674   1.174   7.320 -0.3655  0.1172 -0.0313
  855POPE   C2B11402   9.662   1.282   7.745  0.0660 -0.2089  0.2883
  855POPE   C3B11403   9.495   1.404   8.173  0.0817  0.1440  0.0888
  855POPE   C4B11404   9.563   1.402   8.640  0.2121 -0.1591 -0.0509
  856POPE   NH311405  13.225   7.711   5.720 -0.1795  0.1782 -0.1417
  856POPE   PO411406  12.811   7.938   5.851 -0.0555 -0.2584  0.0115
  856POPE   GL111407  13.001   7.975   6.169 -0.2540  0.2807 -0.2373
  856POPE   GL211408  13.145   7.729   6.227  0.2070 -0.0475 -0.0907
  856POPE   C1A11409  12.820   8.050   6.495 -0.1733  0.2210  0.1493
  856POPE   D2A11410  12.780   7.996   6.895 -0.1413 -0.0755 -0.2097
  856POPE   C3A11411  12.993   7.945   7.256  0.1298  0.0008  0.1734
  856POPE   C4A11412  13.211   8.128   7.493  0.0004  0.1349  0.0615
  856POPE   C1B11413  13.222   7.476   6.490 -0.0470 -0.1642  0.0413
  856POPE   C2B11414  13.186   7.479   6.996 -0.1505 -0.2814 -0.2038
  856POPE   C3B11415  13.307   7.611   7.451 -0.0341  0.0205  0.1208
  856POPE   C4B11416  13.219   7.805   7.865  0.3215  0.2700  0.1163
  857POPE   NH311417   2.174  10.293   6.413 -0.0795  0.1508  0.1302
  857POPE   PO411418   2.098   9.943   6.220  0.0049  0.2290 -0.1370
  857POPE   GL111419   2.035   9.823   6.614  0.0567 -0.1031 -0.0567
  857POPE   GL211420   2.353   9.885   6.796 -0.2244 -0.0680 -0.2472
  857POPE   C1A11421   1.744   9.805   6.985  0.1820  0.0005 -0.0499
  857POPE   D2A11422   1.717   9.722   7.398  0.1068  0.2337  0.1008
  857POPE   C3A11423   1.755   9.806   7.807  0.0546 -0.0960  0.2300
  857POPE   C4A11424   1.759   9.526   8.186  0.1606  0.1591 -0.3931
  857POPE   C1B11425   2.253   9.817   7.274  0.0205  0.0784 -0.0007
  857POPE   C2B11426   2.145   9.514   7.578 -0.1836 -0.2113 -0.3875
  857POPE   C3B11427   2.268   9.507   8.003  0.1558  0.0012 -0.2773
  857POPE   C4B11428   2.466   9.443   8.387 -0.0489  0.0036  0.1469
  858POPE   NH311429  17.632   6.668   5.874  0.0837  0.1611 -0.0567
  858POPE   PO411430  18.025   6.633   5.967  0.0863 -0.0434  0.0706
  858POPE   GL111431  17.745   6.555   6.379  0.1009 -0.1266  0.0554
  858POPE   GL211432  17.659   6.982   6.280 -0.0617 -0.0488  0.2041
  858POPE   C1A11433  17.608   6.715   6.798  0.0401  0.0621  0.1950
  858POPE   D2A11434  17.588   6.657   7.255 -0.0050  0.1307  0.0317
  858POPE   C3A11435  17.369   6.292   7.515 -0.4123  0.0421  0.0611
  858POPE   C4A11436  17.398   5.830   7.606 -0.0913  0.1421 -0.0069
  858POPE   C1B11437  17.586   7.178   6.619 -0.1830  0.3527 -0.1842
  858POPE   C2B11438  17.637   7.167   7.054  0.3059 -0.3022  0.2227
  858POPE   C3B11439  17.714   7.068   7.508  0.2059 -0.1066 -0.1644
  858POPE   C4B11440  17.706   6.976   7.930 -0.1557 -0.1288 -0.1553
  859POPE   NH311441  17.460   8.565   5.920  0.0548  0.0310  0.1120
  859POPE   PO411442  17.627   8.095   5.985  0.1804 -0.1498 -0.2821
  859POPE   GL111443  17.577   8.249   6.347  0.2601 -0.1638 -0.0028
  859POPE   GL211444  17.853   8.531   6.270  0.0926 -0.0418  0.0168
  859POPE   C1A11445  17.283   8.227   6.743 -0.3617  0.1255  0.0803
  859POPE   D2A11446  17.281   8.288   7.173  0.1259  0.1462 -0.0964
  859POPE   C3A11447  17.464   7.973   7.484  0.0476 -0.2568 -0.0425
  859POPE   C4A11448  17.625   7.585   7.679  0.1582 -0.0829 -0.0520
  859POPE   C1B11449  17.791   8.555   6.733  0.1181  0.2155  0.0357
  859POPE   C2B11450  17.709   8.560   7.137  0.0825 -0.2138  0.0508
  859POPE   C3B11451  17.982   8.606   7.555  0.2199 -0.0487 -0.1903
  859POPE   C4B11452  18.050   8.411   8.011  0.0304 -0.0842  0.2988
  860POPE   NH311453   3.387  16.462   6.527 -0.1152 -0.1319 -0.1337
  860POPE   PO411454   2.981  16.425   6.362  0.0984 -0.0918  0.3040
  860POPE   GL111455   3.005  16.293   6.804  0.1171 -0.1709 -0.0658
  860POPE   GL211456   3.265  16.171   6.904  0.0997  0.0533 -0.1936
  860POPE   C1A11457   2.834  16.428   7.109  0.0700 -0.0373 -0.0293
  860POPE   D2A11458   2.869  16.526   7.550 -0.1349 -0.1789 -0.0996
  860POPE   C3A11459   2.671  16.443   7.935 -0.0721  0.4290 -0.0377
  860POPE   C4A11460   2.547  16.306   8.376  0.1007 -0.0242  0.2168
  860POPE   C1B11461   3.328  16.208   7.333 -0.0486 -0.0974  0.0498
  860POPE   C2B11462   3.213  16.217   7.799  0.1223 -0.4107  0.0077
  860POPE   C3B11463   3.041  16.100   8.243  0.0069 -0.0996 -0.3418
  860POPE   C4B11464   3.013  16.438   8.603  0.0131 -0.0547 -0.0771
  861POPE   NH311465   4.863  17.398   6.379 -0.0690  0.3903 -0.0861
  861POPE   PO411466   4.897  17.814   6.278  0.0120  0.2759 -0.0129
  861POPE   GL111467   4.878  17.792   6.690  0.1395  0.0261  0.2369
  861POPE   GL211468   4.491  17.665   6.618  0.0150 -0.1515  0.2904
  861POPE   C1A11469   4.975  17.916   7.131  0.0451  0.1087  0.2218
  861POPE   D2A11470   4.955  18.057   7.520 -0.0027 -0.0443 -0.0385
  861POPE   C3A11471   5.010  17.933   7.914 -0.1528  0.2011  0.0134
  861POPE   C4A11472   5.337  17.960   8.087  0.0614  0.0625  0.0072
  861POPE   C1B11473   4.141  17.832   6.945 -0.0932  0.3359 -0.1667
  861POPE   C2B11474   4.390  17.918   7.208  0.2615 -0.0265 -0.0327
  861POPE   C3B11475   4.521  17.800   7.600  0.0132  0.1109  0.1658
  861POPE   C4B11476   4.525  18.029   7.954 -0.0942  0.4222  0.0492
  862POPE   NH311477   8.089   1.442   6.177  0.1599  0.3759  0.1222
  862POPE   PO411478   7.625   1.349   6.200  0.1174  0.1881  0.4226
  862POPE   GL111479   7.691   1.504   6.580 -0.0845  0.1664 -0.1600
  862POPE   GL211480   7.997   1.712   6.632  0.0747  0.0635 -0.2175
  862POPE   C1A11481   7.491   1.443   7.022 -0.0052 -0.3462  0.1735
  862POPE   D2A11482   7.460   1.670   7.375 -0.1912  0.5099 -0.1037
  862POPE   C3A11483   7.341   1.507   7.806  0.3812 -0.3131  0.0190
  862POPE   C4A11484   7.157   1.324   8.100  0.1631  0.0000 -0.3326
  862POPE   C1B11485   7.949   1.691   7.135  0.0958  0.1171 -0.1451
  862POPE   C2B11486   7.890   1.943   7.503 -0.0880 -0.0934  0.2490
  862POPE   C3B11487   7.612   2.041   7.863 -0.4378  0.0305 -0.0147
  862POPE   C4B11488   7.300   2.000   7.818 -0.1185  0.0257 -0.0381
  863POPE   NH311489  12.632   5.089   5.590  0.0884  0.1133 -0.1934
  863POPE   PO411490  12.872   5.463   5.684  0.2218 -0.1557  0.1638
  863POPE   GL111491  13.162   5.430   6.036  0.2057 -0.1568  0.1953
  863POPE   GL211492  13.296   5.198   6.220 -0.1078 -0.0551  0.1220
  863POPE   C1A11493  13.404   5.684   6.301 -0.0424  0.1801  0.1972
  863POPE   D2A11494  13.547   5.866   6.660  0.1912 -0.0835 -0.0215
  863POPE   C3A11495  13.652   5.716   7.088  0.0199  0.1754 -0.1450
  863POPE   C4A11496  13.695   5.412   7.493  0.0026  0.0112 -0.3132
  863POPE   C1B11497  13.631   5.313   6.623  0.0573  0.0657 -0.1052
  863POPE   C2B11498  13.936   5.257   6.924  0.2600  0.0194 -0.1105
  863POPE   C3B11499  13.971   4.995   7.260 -0.0474  0.1401  0.0371
  863POPE   C4B11500  13.673   4.786   7.515 -0.2750  0.1104 -0.0804
  864POPE   NH311501   9.115   9.433   6.616  0.2125 -0.0732 -0.1909
  864POPE   PO411502   9.289   9.802   6.384 -0.1748 -0.1425  0.1730
  864POPE   GL111503   9.002  10.023   6.608 -0.2508  0.0350  0.0975
  864POPE   GL211504   8.849  10.125   6.449 -0.0367  0.0103 -0.2458
  864POPE   C1A11505   9.008  10.270   7.126  0.1028 -0.1388  0.0865
  864POPE   D2A11506   9.000  10.496   7.484 -0.1822  0.0730 -0.1026
  864POPE   C3A11507   9.213  10.213   7.676  0.0457 -0.0222 -0.4276
  864POPE   C4A11508   9.423   9.946   7.951  0.3458 -0.2132 -0.0515
  864POPE   C1B11509   8.581  10.300   6.863 -0.0940 -0.0286 -0.0230
  864POPE   C2B11510   8.401  10.509   7.141 -0.0319  0.0557 -0.0653
  864POPE   C3B11511   8.509  10.551   7.554  0.0890 -0.1639  0.0641
  864POPE   C4B11512   8.865  10.905   7.696 -0.0270  0.3912  0.0690
  865POPE   NH311513   0.380  11.923   5.980 -0.2093  0.0464 -0.0615
  865POPE   PO411514   0.632  11.968   6.363  0.0637 -0.0055  0.2205
  865POPE   GL111515   0.825  12.040   6.725 -0.1518 -0.0775 -0.4762
  865POPE   GL211516   0.557  11.973   6.832 -0.1611  0.2532 -0.2167
  865POPE   C1A11517   0.836  12.228   7.181 -0.1937  0.1035 -0.1470
  865POPE   D2A11518   0.832  12.079   7.652 -0.3142  0.0317  0.0939
  865POPE   C3A11519   0.640  12.059   8.030 -0.1259  0.0901 -0.0243
  865POPE   C4A11520   0.611  11.931   8.442 -0.1978  0.0195 -0.1165
  865POPE   C1B11521   0.397  11.963   7.285 -0.1902 -0.0982  0.4750
  865POPE   C2B11522   0.270  12.036   7.682 -0.0067 -0.3911  0.2470
  865POPE   C3B11523   0.201  11.786   8.073 -0.2795 -0.0470 -0.0878
  865POPE   C4B11524   0.389  11.351   8.311 -0.0977  0.0561  0.0728
  866POPE   NH311525  10.959  15.803   6.286  0.3565  0.2136 -0.2526
  866POPE   PO411526  11.099  16.186   6.529 -0.0680  0.1298 -0.0400
  866POPE   GL111527  11.171  16.487   6.922 -0.0157 -0.1228 -0.0590
  866POPE   GL211528  11.574  16.551   7.101  0.0553 -0.0926  0.0589
  866POPE   C1A11529  11.134  16.570   7.358  0.0178  0.1575 -0.0812
  866POPE   D2A11530  11.163  16.467   7.734 -0.4114 -0.1343  0.1179
  866POPE   C3A11531  11.270  16.497   8.150 -0.2070  0.1678 -0.1192
  866POPE   C4A11532  11.307  16.788   8.469  0.0529  0.1205 -0.0159
  866POPE   C1B11533  11.635  16.545   7.561 -0.0995  0.1363  0.1035
  866POPE   C2B11534  11.801  16.458   7.942  0.0157  0.1690 -0.2120
  866POPE   C3B11535  11.760  16.560   8.354 -0.1189 -0.0251 -0.1836
  866POPE   C4B11536  11.516  16.317   8.665  0.1419  0.1214  0.3058
  867POPE   NH311537  13.160   1.557   6.316 -0.0432 -0.0381 -0.2940
  867POPE   PO411538  13.448   1.461   6.405  0.0171 -0.0974  0.0581
  867POPE   GL111539  13.397   1.437   6.766 -0.1714 -0.0059 -0.0012
  867POPE   GL211540  13.307   1.784   6.768  0.1270 -0.2259 -0.0698
  867POPE   C1A11541  13.341   1.400   7.241  0.0787  0.0883  0.1344
  867POPE   D2A11542  13.205   1.662   7.649 -0.0489 -0.0752  0.1707
  867POPE   C3A11543  12.826   1.622   7.883 -0.0614 -0.3983 -0.0285
  867POPE   C4A11544  12.604   1.930   8.086 -0.1474 -0.1439  0.2168
  867POPE   C1B11545  13.320   1.900   7.225 -0.2704 -0.0122  0.1695
  867POPE   C2B11546  13.515   2.096   7.623 -0.5124  0.0076 -0.0255
  867POPE   C3B11547  13.984   2.019   7.825 -0.1621 -0.1589 -0.0692
  867POPE   C4B11548  14.129   1.956   8.196 -0.0402 -0.0446  0.1130
  868POPE   NH311549   7.391  16.792   6.300  0.1038  0.0646  0.2243
  868POPE   PO411550   6.987  16.922   6.450 -0.2094 -0.0682 -0.1848
  868POPE   GL111551   6.944  17.022   6.898 -0.1864  0.0081 -0.1181
  868POPE   GL211552   6.665  16.933   6.954 -0.2441  0.0722  0.1830
  868POPE   C1A11553   6.919  17.242   7.298  0.0120 -0.0398 -0.2529
  868POPE   D2A11554   7.075  17.217   7.610  0.0663 -0.0518  0.0471
  868POPE   C3A11555   7.191  17.578   7.854 -0.1800  0.0158 -0.1670
  868POPE   C4A11556   7.241  18.026   7.977  0.2462 -0.2284  0.2393
  868POPE   C1B11557   6.349  16.876   7.169  0.1333 -0.0915 -0.1045
  868POPE   C2B11558   6.374  16.773   7.598 -0.2396 -0.1166 -0.0298
  868POPE   C3B11559   6.363  16.583   8.055 -0.0023  0.0904 -0.0720
  868POPE   C4B11560   6.653  16.471   8.398 -0.4614 -0.4171 -0.0473
  869POPE   NH311561   8.724  14.726   6.814  0.1903  0.0712 -0.0278
  869POPE   PO411562   8.264  14.698   6.830  0.1838 -0.0391  0.1169
  869POPE   GL111563   8.135  14.687   7.176  0.1132  0.0358  0.1642
  869POPE   GL211564   8.530  14.697   7.324  0.5118  0.2958  0.1858
  869POPE   C1A11565   8.133  14.527   7.582 -0.1542  0.0041  0.1595
  869POPE   D2A11566   8.001  14.436   7.938 -0.1832  0.0679 -0.0600
  869POPE   C3A11567   7.967  14.247   8.310 -0.0850 -0.0489 -0.3299
  869POPE   C4A11568   7.607  13.945   8.264 -0.2226  0.2169 -0.1475
  869POPE   C1B11569   8.553  14.554   7.806 -0.0653  0.0976  0.0590
  869POPE   C2B11570   8.418  14.256   8.075  0.0946  0.2343 -0.2182
  869POPE   C3B11571   8.364  13.927   8.292  0.1468 -0.1038 -0.0362
  869POPE   C4B11572   8.437  13.543   8.577  0.0363 -0.0531 -0.1668
  870POPE   NH311573   7.099  11.978   6.316  0.0379  0.0255  0.1528
  870POPE   PO411574   7.182  11.690   6.040  0.0496 -0.1795  0.4013
  870POPE   GL111575   7.201  11.543   6.467 -0.0128  0.1039  0.2529
  870POPE   GL211576   7.204  11.837   6.737 -0.1715  0.1119 -0.1680
  870POPE   C1A11577   7.095  11.399   6.872  0.1320  0.1251  0.0813
  870POPE   D2A11578   7.266  11.293   7.261  0.2359 -0.2856 -0.0099
  870POPE   C3A11579   7.550  11.465   7.471 -0.1507  0.1892 -0.1745
  870POPE   C4A11580   7.585  11.401   7.872 -0.0126 -0.1866  0.0765
  870POPE   C1B11581   7.317  11.771   7.135  0.1398 -0.0726 -0.2065
  870POPE   C2B11582   7.155  11.684   7.613  0.2892  0.0640  0.3217
  870POPE   C3B11583   7.145  11.568   8.021  0.1810 -0.1260 -0.2458
  870POPE   C4B11584   7.575  11.425   8.382  0.0731  0.0306 -0.0475
  871POPE   NH311585   5.736  16.403   6.401 -0.0239 -0.0903 -0.2673
  871POPE   PO411586   5.386  16.506   6.569 -0.0393 -0.2349 -0.4325
  871POPE   GL111587   5.290  16.304   6.937 -0.0835 -0.0437  0.1044
  871POPE   GL211588   5.044  16.121   6.853 -0.0829  0.2005 -0.1840
  871POPE   C1A11589   5.147  16.327   7.286 -0.0604  0.1174 -0.0016
  871POPE   D2A11590   5.139  16.329   7.771  0.1005 -0.2211 -0.0001
  871POPE   C3A11591   5.039  16.217   8.206 -0.0553 -0.1300  0.1144
  871POPE   C4A11592   4.860  16.246   8.584  0.0695  0.0679  0.0985
  871POPE   C1B11593   4.800  16.004   7.147  0.1401 -0.0747 -0.1998
  871POPE   C2B11594   4.828  15.960   7.592  0.1439  0.4063  0.1118
  871POPE   C3B11595   4.693  15.930   7.952  0.1739 -0.3280  0.0827
  871POPE   C4B11596   4.767  15.809   8.381  0.0423  0.2349  0.3420
  872YOPE   NH311597   7.039  13.101   6.182 -0.5244  0.0536  0.2118
  872YOPE   PO411598   7.378  13.293   6.323 -0.3973 -0.0483  0.0672
  872YOPE   GL111599   7.295  13.381   6.656 -0.0535  0.0336 -0.0392
  872YOPE   GL211600   7.587  13.691   6.848  0.0242 -0.1949  0.4750
  872YOPE   C1A11601   7.413  13.264   7.133 -0.1635 -0.1449 -0.3363
  872YOPE   D2A11602   7.371  12.919   7.475  0.0966  0.0818 -0.1016
  872YOPE   C3A11603   7.573  12.900   7.903  0.1415 -0.1079  0.0177
  872YOPE   C4A11604   7.830  13.088   8.240  0.2421 -0.3406 -0.2799
  872YOPE   C1B11605   7.792  13.557   7.286  0.2076  0.1097 -0.0714
  872YOPE   C2B11606   7.793  13.340   7.670  0.1413 -0.1465 -0.0427
  872YOPE   D3B11607   7.619  13.490   8.044  0.0763  0.0621 -0.0043
  872YOPE   C4B11608   7.401  13.413   8.457  0.0668 -0.2022  0.0556
  873YOPE   NH311609  11.881   0.211   6.585  0.0559 -0.1077 -0.0168
  873YOPE   PO411610  11.852  -0.271   6.439 -0.0407 -0.1087 -0.0488
  873YOPE   GL111611  11.942  -0.176   6.976 -0.2134  0.0657 -0.0191
  873YOPE   GL211612  12.063   0.019   6.997  0.2192  0.1219  0.0638
  873YOPE   C1A11613  11.872  -0.335   7.349  0.1711  0.2633  0.0583
  873YOPE   D2A11614  11.861  -0.411   7.795 -0.3904 -0.2464 -0.2043
  873YOPE   C3A11615  12.239  -0.339   8.102  0.0115 -0.1529 -0.3002
  873YOPE   C4A11616  12.626  -0.574   8.128 -0.1613 -0.1329 -0.2518
  873YOPE   C1B11617  12.317   0.042   7.259 -0.0272  0.3138  0.2543
  873YOPE   C2B11618  12.108   0.060   7.727 -0.1857 -0.0053 -0.0960
  873YOPE   D3B11619  11.786  -0.036   8.109  0.0076 -0.4060  0.0686
  873YOPE   C4B11620  11.660  -0.162   8.485  0.0883 -0.0190 -0.0297
  874YOPE   NH311621  15.617  16.818   6.414  0.2047 -0.1770 -0.2969
  874YOPE   PO411622  15.790  16.468   6.464  0.2028 -0.0854 -0.0673
  874YOPE   GL111623  15.676  16.519   6.847  0.3076  0.1140 -0.1009
  874YOPE   GL211624  15.447  16.760   6.920 -0.1578 -0.1609 -0.1716
  874YOPE   C1A11625  15.798  16.545   7.340  0.1895 -0.0078  0.0157
  874YOPE   D2A11626  15.781  16.735   7.715  0.0663 -0.0692 -0.1300
  874YOPE   C3A11627  15.778  16.394   8.015 -0.0992  0.1632  0.1444
  874YOPE   C4A11628  15.517  16.202   8.333  0.1437  0.2387  0.3286
  874YOPE   C1B11629  15.513  16.962   7.234  0.0306  0.2455 -0.3021
  874YOPE   C2B11630  15.421  17.055   7.639  0.0984  0.0890  0.0007
  874YOPE   D3B11631  15.442  16.990   8.059  0.1316 -0.1012  0.2037
  874YOPE   C4B11632  15.816  16.952   8.292  0.1634  0.1268 -0.0690
  875YOPE   NH311633  16.389  11.593   6.274  0.0855  0.0553 -0.3298
  875YOPE   PO411634  16.209  11.169   6.151  0.2044 -0.1501 -0.1621
  875YOPE   GL111635  16.212  11.104   6.542  0.2747  0.0155  0.0823
  875YOPE   GL211636  15.968  10.860   6.519  0.5510  0.3771  0.0975
  875YOPE   C1A11637  16.417  11.043   6.948  0.1812  0.0800  0.3459
  875YOPE   D2A11638  16.361  11.085   7.356 -0.0661 -0.0470  0.1912
  875YOPE   C3A11639  16.779  11.216   7.554 -0.0353 -0.0985 -0.1111
  875YOPE   C4A11640  17.039  11.217   7.964 -0.4327 -0.0018  0.0307
  875YOPE   C1B11641  16.087  10.726   6.945  0.0687  0.3448 -0.1564
  875YOPE   C2B11642  16.080  10.669   7.447 -0.0636 -0.0705  0.1178
  875YOPE   D3B11643  15.866  10.607   7.774  0.1846  0.0289  0.3362
  875YOPE   C4B11644  16.154  10.507   8.120  0.1306 -0.1328  0.2824
  876YOPE   NH311645   5.358  13.269   6.258  0.2053 -0.1879 -0.1102
  876YOPE   PO411646   5.026  13.638   6.168 -0.0461 -0.2831 -0.0771
  876YOPE   GL111647   5.180  13.677   6.549  0.0354 -0.0022  0.1890
  876YOPE   GL211648   4.899  13.632   6.737  0.3101 -0.1845  0.1030
  876YOPE   C1A11649   5.342  13.672   6.994  0.0670 -0.0132 -0.1518
  876YOPE   D2A11650   5.520  13.802   7.377  0.0834 -0.2102 -0.1571
  876YOPE   C3A11651   5.622  13.605   7.839 -0.0063  0.3002 -0.2142
  876YOPE   C4A11652   5.724  13.619   8.325  0.3600 -0.0395 -0.2299
  876YOPE   C1B11653   4.859  13.883   6.931 -0.3079 -0.0982 -0.1586
  876YOPE   C2B11654   4.967  13.860   7.408  0.0490 -0.3558 -0.2321
  876YOPE   D3B11655   5.176  13.740   7.721  0.2051  0.2669  0.0108
  876YOPE   C4B11656   5.359  13.927   8.215  0.0957  0.1126  0.0244
  877YOPE   NH311657  16.843   9.118   5.793  0.2108 -0.0692 -0.1339
  877YOPE   PO411658  17.067   8.840   5.799  0.4609  0.3299  0.3114
  877YOPE   GL111659  17.094   8.907   6.266 -0.0152 -0.2019 -0.1974
  877YOPE   GL211660  17.439   8.781   6.427 -0.0073  0.0504 -0.0519
  877YOPE   C1A11661  16.896   8.735   6.568 -0.1994  0.0741  0.1125
  877YOPE   D2A11662  16.834   8.390   6.791  0.2328  0.5412 -0.1297
  877YOPE   C3A11663  16.578   8.029   6.830 -0.0491  0.2995  0.2980
  877YOPE   C4A11664  16.559   7.692   7.154 -0.0663 -0.0440 -0.1187
  877YOPE   C1B11665  17.366   8.781   6.915  0.1149  0.2138  0.2144
  877YOPE   C2B11666  16.904   8.780   7.069 -0.0957 -0.6640  0.3454
  877YOPE   D3B11667  16.806   8.705   7.484 -0.3982 -0.3294 -0.1041
  877YOPE   C4B11668  16.713   8.539   7.975  0.3216  0.0530 -0.0484
  878YOPE   NH311669   3.708   9.134   6.054 -0.0009 -0.4059  0.2461
  878YOPE   PO411670   3.580   8.623   6.082  0.0184  0.1993 -0.2723
  878YOPE   GL111671   3.371   8.420   6.394 -0.0010  0.2209  0.0836
  878YOPE   GL211672   3.167   8.161   6.338 -0.1854  0.1940 -0.2798
  878YOPE   C1A11673   3.167   8.613   6.726 -0.2335 -0.0294  0.2070
  878YOPE   D2A11674   2.899   8.538   7.154 -0.1681 -0.0501 -0.2572
  878YOPE   C3A11675   3.069   8.518   7.499  0.1311  0.1598 -0.1709
  878YOPE   C4A11676   3.088   8.527   7.975 -0.1054  0.3601  0.4441
  878YOPE   C1B11677   3.145   8.089   6.684 -0.1488  0.0884 -0.0981
  878YOPE   C2B11678   3.003   8.002   7.091 -0.0305  0.0811 -0.1538
  878YOPE   D3B11679   3.224   8.073   7.532 -0.0960  0.3924  0.1185
  878YOPE   C4B11680   3.378   8.138   7.867  0.1080  0.2300  0.0087
  879YOPE   NH311681  17.082   0.345   6.144 -0.2067  0.1386 -0.2049
  879YOPE   PO411682  17.332   0.480   5.822 -0.0140  0.3394  0.3748
  879YOPE   GL111683  17.436   0.767   6.260  0.0022 -0.2375 -0.0082
  879YOPE   GL211684  17.676   1.019   6.313  0.0010  0.0868 -0.2033
  879YOPE   C1A11685  17.217   0.925   6.517 -0.0384  0.0570 -0.2877
  879YOPE   D2A11686  17.277   0.947   6.849 -0.4732 -0.2524  0.2145
  879YOPE   C3A11687  17.232   1.183   7.085  0.3595 -0.0063  0.5033
  879YOPE   C4A11688  17.384   1.506   7.025 -0.1030 -0.2889 -0.1442
  879YOPE   C1B11689  17.668   1.224   6.680 -0.0162  0.1579  0.0054
  879YOPE   C2B11690  17.771   1.225   7.065 -0.0202 -0.0092 -0.1227
  879YOPE   D3B11691  17.861   1.328   7.459  0.2670  0.3087  0.2867
  879YOPE   C4B11692  17.937   1.426   7.857  0.1256 -0.0060  0.0203
  880YOPE   NH311693   6.840   3.749   5.962 -0.0585 -0.0856  0.1068
  880YOPE   PO411694   6.588   3.432   5.970 -0.1334 -0.0048 -0.1962
  880YOPE   GL111695   6.798   3.440   6.345  0.2272  0.2337 -0.1333
  880YOPE   GL211696   7.058   3.503   6.416 -0.0683  0.1068 -0.0286
  880YOPE   C1A11697   7.038   2.878   6.575 -0.3180  0.1656 -0.1561
  880YOPE   D2A11698   6.981   2.459   6.666 -0.0713 -0.0902  0.0878
  880YOPE   C3A11699   7.229   2.169   6.690 -0.0239 -0.0402 -0.0986
  880YOPE   C4A11700   7.287   1.872   6.472 -0.1720 -0.0381  0.1539
  880YOPE   C1B11701   7.138   3.547   6.954 -0.1803  0.1560  0.3583
  880YOPE   C2B11702   7.027   3.499   7.388 -0.1541 -0.1178  0.0462
  880YOPE   D3B11703   6.869   3.201   7.600  0.1603  0.1157 -0.0454
  880YOPE   C4B11704   6.977   2.816   7.590 -0.2173 -0.0205  0.1708
  881YOPE   NH311705  10.140   9.239   6.479  0.2995 -0.2288  0.4234
  881YOPE   PO411706  10.582   9.077   6.351 -0.2670  0.0740  0.2112
  881YOPE   GL111707  10.559   8.817   6.755  0.1102 -0.0852  0.1415
  881YOPE   GL211708  10.237   8.713   6.796  0.1386 -0.0376  0.3170
  881YOPE   C1A11709  10.644   8.734   7.144  0.3336 -0.1925 -0.1154
  881YOPE   D2A11710  10.666   8.791   7.604  0.0417  0.2099 -0.1183
  881YOPE   C3A11711  10.616   8.532   7.826  0.0553 -0.0777  0.2373
  881YOPE   C4A11712  10.993   8.226   7.935 -0.0355  0.1599  0.0816
  881YOPE   C1B11713  10.149   8.445   7.117  0.0485 -0.0359 -0.0045
  881YOPE   C2B11714  10.146   8.366   7.513 -0.0844 -0.2013 -0.0039
  881YOPE   D3B11715  10.118   8.337   7.914  0.1021  0.0739  0.1921
  881YOPE   C4B11716  10.061   8.076   8.273  0.0210 -0.1321 -0.0964
  882YOPE   NH311717  11.136  12.674   6.329  0.1082 -0.0717 -0.0315
  882YOPE   PO411718  11.136  13.146   6.396  0.1825 -0.1173 -0.1130
  882YOPE   GL111719  11.113  13.059   6.849  0.1205 -0.0361 -0.2342
  882YOPE   GL211720  11.198  12.779   6.811 -0.2092 -0.5084  0.2502
  882YOPE   C1A11721  11.102  13.157   7.249 -0.0679 -0.2144  0.1026
  882YOPE   D2A11722  11.374  13.392   7.625  0.2262 -0.2565 -0.0961
  882YOPE   C3A11723  11.694  13.259   7.993  0.1693  0.1167 -0.1903
  882YOPE   C4A11724  11.964  13.268   8.457 -0.0913 -0.3667 -0.2316
  882YOPE   C1B11725  11.203  12.708   7.225 -0.0168  0.0559  0.1391
  882YOPE   C2B11726  11.155  12.765   7.576 -0.1066  0.0377  0.1030
  882YOPE   D3B11727  11.247  13.025   7.940 -0.1875 -0.0856 -0.2334
  882YOPE   C4B11728  11.315  13.213   8.421 -0.3441 -0.1372  0.2349
  883YOPE   NH311729   7.623  11.655   6.262 -0.0037  0.2157 -0.1459
  883YOPE   PO411730   7.984  11.886   6.256 -0.3339 -0.2172  0.0584
  883YOPE   GL111731   8.179  12.178   6.625  0.2911  0.0678  0.0218
  883YOPE   GL211732   8.304  11.936   6.832  0.2564  0.0844  0.1021
  883YOPE   C1A11733   8.051  12.259   7.103 -0.1173  0.1367 -0.1443
  883YOPE   D2A11734   8.097  12.330   7.486 -0.1015  0.1789  0.2982
  883YOPE   C3A11735   8.135  12.035   7.841  0.3353 -0.0641 -0.3501
  883YOPE   C4A11736   7.912  11.718   8.142 -0.0891  0.0521 -0.0590
  883YOPE   C1B11737   8.444  11.970   7.268  0.3403 -0.0242  0.0137
  883YOPE   C2B11738   8.567  11.937   7.682  0.0853  0.1684  0.2097
  883YOPE   D3B11739   8.774  11.903   8.042  0.1952  0.1440 -0.3955
  883YOPE   C4B11740   9.234  11.967   8.268  0.0790  0.1206  0.3028
  884YOPE   NH311741  12.626   4.533   5.969  0.0760  0.3762 -0.0339
  884YOPE   PO411742  12.453   4.131   6.083  0.0511 -0.1558 -0.1104
  884YOPE   GL111743  12.204   4.182   6.469  0.0140  0.0556 -0.1248
  884YOPE   GL211744  12.361   4.112   6.792 -0.0436  0.1863  0.1283
  884YOPE   C1A11745  11.775   4.237   6.807 -0.0537  0.0329  0.0418
  884YOPE   D2A11746  11.649   4.189   7.204 -0.1554  0.0651 -0.0500
  884YOPE   C3A11747  11.880   4.269   7.532  0.0047  0.0673  0.0471
  884YOPE   C4A11748  11.992   4.079   7.888  0.2800 -0.2016  0.0323
  884YOPE   C1B11749  12.299   4.289   7.148 -0.0099  0.1967 -0.1176
  884YOPE   C2B11750  11.992   4.633   7.106 -0.1180  0.2045  0.2814
  884YOPE   D3B11751  11.691   4.697   7.346  0.0606 -0.1550 -0.0150
  884YOPE   C4B11752  11.558   5.102   7.524 -0.2268  0.1187  0.5504
  885YOPE   NH311753  14.304  12.483   6.402  0.2019  0.0855 -0.1131
  885YOPE   PO411754  14.615  12.382   6.243  0.1415  0.2560  0.0316
  885YOPE   GL111755  14.718  12.344   6.684 -0.0754  0.1223  0.0766
  885YOPE   GL211756  14.497  12.170   6.767  0.0008 -0.1407 -0.1097
  885YOPE   C1A11757  15.067  12.405   6.955  0.1172  0.0162 -0.3973
  885YOPE   D2A11758  15.090  12.249   7.456 -0.2791  0.2851  0.0026
  885YOPE   C3A11759  15.113  12.460   7.900  0.1758  0.0675  0.3041
  885YOPE   C4A11760  15.348  12.484   8.319  0.2027  0.3268  0.2517
  885YOPE   C1B11761  14.708  12.144   7.180 -0.1367  0.2709 -0.2521
  885YOPE   C2B11762  14.656  12.000   7.570 -0.1836  0.0945 -0.0765
  885YOPE   D3B11763  14.485  11.942   7.962 -0.1005  0.2332  0.0142
  885YOPE   C4B11764  14.599  11.646   8.269  0.2332  0.2219 -0.0719
  886YOPE   NH311765   7.573  10.685   6.287 -0.3825  0.2642  0.1791
  886YOPE   PO411766   7.177  10.521   6.334 -0.2304 -0.1080 -0.1422
  886YOPE   GL111767   7.430  10.427   6.692  0.0924 -0.2350 -0.0873
  886YOPE   GL211768   7.783  10.535   6.760  0.0562 -0.2612  0.2984
  886YOPE   C1A11769   7.556  10.096   7.023  0.1781 -0.2855 -0.2402
  886YOPE   D2A11770   7.517  10.153   7.466  0.0034 -0.0844  0.0197
  886YOPE   C3A11771   7.252  10.042   7.848  0.1234  0.1807  0.1343
  886YOPE   C4A11772   7.068  10.130   8.143 -0.0042  0.0050  0.0103
  886YOPE   C1B11773   7.865  10.548   7.165  0.1776  0.0600 -0.2332
  886YOPE   C2B11774   7.927  10.501   7.580 -0.2702 -0.2394  0.2638
  886YOPE   D3B11775   7.911  10.722   8.005 -0.0671 -0.0168 -0.2036
  886YOPE   C4B11776   7.591  10.852   8.122 -0.1974  0.0354  0.1985
  887YOPE   NH311777  10.225  14.860   6.540 -0.0153 -0.0667  0.0744
  887YOPE   PO411778  10.248  15.296   6.591  0.2990  0.1162 -0.0412
  887YOPE   GL111779  10.081  15.361   6.974 -0.0361 -0.0035  0.2990
  887YOPE   GL211780   9.731  15.200   6.946  0.2569 -0.0627 -0.4164
  887YOPE   C1A11781   9.903  15.605   7.245  0.2609 -0.1622 -0.1050
  887YOPE   D2A11782   9.897  15.730   7.649  0.0014  0.3747  0.2207
  887YOPE   C3A11783  10.007  15.860   8.114  0.1000  0.0313  0.0912
  887YOPE   C4A11784   9.745  15.607   8.344 -0.0803 -0.4404 -0.0793
  887YOPE   C1B11785  10.028  14.883   7.108  0.2118  0.2076 -0.0735
  887YOPE   C2B11786  10.058  14.768   7.572 -0.0882 -0.0698  0.1238
  887YOPE   D3B11787  10.078  14.558   7.946 -0.1084  0.0109  0.2404
  887YOPE   C4B11788  10.202  14.722   8.332  0.0083 -0.1000 -0.0108
  888YOPE   NH311789   7.926   8.157   6.143 -0.1453 -0.0544  0.2362
  888YOPE   PO411790   7.400   8.175   6.076 -0.1083 -0.2168 -0.1824
  888YOPE   GL111791   7.515   8.197   6.488  0.0709  0.1298 -0.1600
  888YOPE   GL211792   7.449   8.367   6.657  0.0995 -0.0581 -0.0734
  888YOPE   C1A11793   7.809   7.984   6.861  0.0280 -0.0891 -0.1294
  888YOPE   D2A11794   7.844   7.636   7.106  0.3621  0.0372 -0.1832
  888YOPE   C3A11795   8.255   7.567   7.338  0.2021  0.1269 -0.0819
  888YOPE   C4A11796   8.339   7.550   7.737 -0.2642  0.1730 -0.2291
  888YOPE   C1B11797   7.430   8.221   7.153 -0.1181  0.1450  0.0271
  888YOPE   C2B11798   7.401   8.221   7.591  0.3604  0.0030 -0.4114
  888YOPE   D3B11799   7.382   8.020   8.098  0.2409  0.0236 -0.0723
  888YOPE   C4B11800   7.073   7.782   8.249 -0.1589  0.0879  0.2228
  889YOPE   NH311801  13.339  12.740   6.419  0.1633  0.0312 -0.0963
  889YOPE   PO411802  13.769  12.650   6.256 -0.2645 -0.0875 -0.0924
  889YOPE   GL111803  13.763  12.630   6.654 -0.0153 -0.0523 -0.4425
  889YOPE   GL211804  14.076  12.710   6.775  0.1372 -0.2618 -0.0529
  889YOPE   C1A11805  13.684  12.561   7.098 -0.0707  0.0133  0.0595
  889YOPE   D2A11806  13.700  12.473   7.521 -0.0240  0.4396  0.1234
  889YOPE   C3A11807  13.500  12.265   7.803  0.2268  0.2057 -0.0058
  889YOPE   C4A11808  13.588  11.978   8.150 -0.1376 -0.0319 -0.0256
  889YOPE   C1B11809  14.174  12.340   7.102  0.0148 -0.1769  0.1166
  889YOPE   C2B11810  14.167  12.229   7.510 -0.3602  0.1385  0.0288
  889YOPE   D3B11811  14.011  12.082   7.908  0.0119  0.2940  0.2023
  889YOPE   C4B11812  14.072  11.749   8.094  0.1499  0.1175 -0.2098
  890YOPE   NH311813   0.110   0.568   5.892 -0.1370  0.1250 -0.2433
  890YOPE   PO411814   0.514   0.464   5.863  0.4460  0.2982 -0.1419
  890YOPE   GL111815   0.535   0.438   6.262  0.1162 -0.2635 -0.3432
  890YOPE   GL211816   0.360   0.704   6.346  0.2426 -0.0987  0.3363
  890YOPE   C1A11817   0.520   0.311   6.719 -0.1535 -0.0476 -0.1095
  890YOPE   D2A11818   0.337   0.139   7.056  0.0937  0.0697 -0.1084
  890YOPE   C3A11819   0.053   0.136   7.291 -0.2652  0.1242  0.0466
  890YOPE   C4A11820  -0.218   0.163   7.586 -0.2990  0.2880  0.5608
  890YOPE   C1B11821   0.424   0.820   6.720  0.1848  0.0141  0.1740
  890YOPE   C2B11822   0.475   0.961   7.209 -0.0794  0.1060 -0.2486
  890YOPE   D3B11823   0.435   0.907   7.643 -0.2191 -0.1010  0.2484
  890YOPE   C4B11824   0.128   0.907   7.990  0.0007  0.3339  0.0138
  891YOPE   NH311825   6.713   5.739   5.708  0.2718  0.1716  0.0134
  891YOPE   PO411826   6.607   5.285   5.743 -0.2157  0.1125 -0.1618
  891YOPE   GL111827   6.652   5.260   6.159  0.0464  0.0269  0.0173
  891YOPE   GL211828   6.676   5.487   6.431 -0.1573  0.2035 -0.0852
  891YOPE   C1A11829   6.685   5.053   6.599 -0.4909 -0.0758 -0.1995
  891YOPE   D2A11830   6.650   5.010   7.036  0.1790  0.1471 -0.0855
  891YOPE   C3A11831   6.211   5.043   7.182 -0.0244 -0.1241  0.1565
  891YOPE   C4A11832   5.867   4.991   7.312  0.1782 -0.2046 -0.0987
  891YOPE   C1B11833   6.673   5.644   6.793 -0.2102 -0.0079  0.1579
  891YOPE   C2B11834   6.571   5.423   7.223  0.0621 -0.1836  0.0929
  891YOPE   D3B11835   6.692   5.164   7.504  0.2321  0.0924 -0.0306
  891YOPE   C4B11836   6.652   4.761   7.491  0.0395 -0.3562  0.0925
  892YOPE   NH311837   3.658  15.603   6.385 -0.2005  0.0447 -0.2029
  892YOPE   PO411838   3.337  15.347   6.484 -0.0417 -0.2425  0.3070
  892YOPE   GL111839   3.494  15.361   6.824 -0.1359  0.1708  0.1026
  892YOPE   GL211840   3.463  15.691   6.936  0.0424  0.0324 -0.2090
  892YOPE   C1A11841   3.720  15.365   7.211 -0.0576 -0.0530 -0.2652
  892YOPE   D2A11842   3.776  15.358   7.629 -0.0816  0.1613 -0.1773
  892YOPE   C3A11843   3.515  15.429   8.032 -0.0899 -0.3180  0.0545
  892YOPE   C4A11844   3.467  15.748   8.221 -0.0900  0.1985 -0.1375
  892YOPE   C1B11845   3.289  15.618   7.362  0.2866  0.2035  0.1423
  892YOPE   C2B11846   3.109  15.711   7.764  0.1241 -0.2263 -0.0106
  892YOPE   D3B11847   2.946  15.458   8.198 -0.2832 -0.1604  0.2497
  892YOPE   C4B11848   2.785  15.199   8.468  0.1441  0.1153 -0.0583
  893YOPE   NH311849  17.548  10.080   6.111  0.0291  0.2580  0.2557
  893YOPE   PO411850  17.273  10.477   6.240  0.0981 -0.2957 -0.1246
  893YOPE   GL111851  17.189  10.148   6.520 -0.0224  0.0782 -0.3352
  893YOPE   GL211852  17.399  10.023   6.592 -0.0959 -0.1130 -0.1679
  893YOPE   C1A11853  16.883  10.130   6.830 -0.4457  0.0727  0.2563
  893YOPE   D2A11854  16.563  10.018   7.093  0.0665  0.1258 -0.1193
  893YOPE   C3A11855  16.684  10.030   7.563  0.0641 -0.1002 -0.0603
  893YOPE   C4A11856  16.730   9.578   7.781  0.0942  0.0491  0.2068
  893YOPE   C1B11857  17.405  10.117   6.998  0.1415 -0.2755 -0.2092
  893YOPE   C2B11858  17.464  10.105   7.481  0.0361  0.0178  0.0543
  893YOPE   D3B11859  17.638   9.971   7.862  0.0638 -0.1524  0.1206
  893YOPE   C4B11860  17.704  10.268   8.238 -0.0267 -0.1925  0.0244
  894YOPE   NH311861   3.572   3.402   5.860  0.1359 -0.2147 -0.1095
  894YOPE   PO411862   3.948   3.427   5.874  0.0269  0.3624  0.1644
  894YOPE   GL111863   4.001   3.400   6.242 -0.0499  0.1460 -0.0456
  894YOPE   GL211864   4.264   3.545   6.415  0.2598 -0.0925 -0.0238
  894YOPE   C1A11865   3.741   3.333   6.692  0.3069  0.0153  0.0285
  894YOPE   D2A11866   3.830   3.055   7.073 -0.0304  0.1911 -0.0749
  894YOPE   C3A11867   3.838   3.226   7.549 -0.1089  0.1237 -0.3349
  894YOPE   C4A11868   3.787   3.374   7.866 -0.0862 -0.2398  0.0044
  894YOPE   C1B11869   4.192   3.583   6.843 -0.2027 -0.0865  0.1798
  894YOPE   C2B11870   4.058   3.522   7.251  0.0573 -0.2480  0.0528
  894YOPE   D3B11871   3.869   3.779   7.611  0.1709  0.2862  0.1146
  894YOPE   C4B11872   3.680   3.896   7.972  0.1964 -0.1480  0.0674
  895YOPE   NH311873   1.796  11.184   6.451  0.1163  0.0904 -0.1003
  895YOPE   PO411874   1.535  11.566   6.394 -0.1563 -0.0770 -0.0935
  895YOPE   GL111875   1.770  11.546   6.805  0.0708  0.0611  0.1549
  895YOPE   GL211876   2.022  11.744   7.067 -0.3385 -0.1396  0.0498
  895YOPE   C1A11877   1.619  11.538   7.205 -0.2672 -0.0160 -0.2570
  895YOPE   D2A11878   1.513  11.440   7.536 -0.0959  0.1346  0.0008
  895YOPE   C3A11879   1.555  11.255   7.903 -0.1179  0.2851  0.0158
  895YOPE   C4A11880   1.260  11.335   8.232 -0.0895  0.1329  0.5124
  895YOPE   C1B11881   1.932  11.847   7.536  0.3656  0.1093  0.0049
  895YOPE   C2B11882   1.649  11.764   7.880 -0.0496  0.0451  0.1752
  895YOPE   D3B11883   1.493  11.764   8.245 -0.3599  0.0407  0.0337
  895YOPE   C4B11884   1.086  11.772   8.458 -0.0369  0.0014  0.1392
  896YOPE   NH311885   5.807   6.282   5.894 -0.1725  0.1635  0.1533
  896YOPE   PO411886   5.848   6.731   6.115 -0.3698  0.4200  0.1507
  896YOPE   GL111887   5.736   6.448   6.441 -0.4387 -0.0038  0.2400
  896YOPE   GL211888   5.954   6.316   6.701 -0.2498  0.0763  0.0622
  896YOPE   C1A11889   5.471   6.345   6.806 -0.0802 -0.0617  0.0800
  896YOPE   D2A11890   5.653   6.274   7.163 -0.2632 -0.0108  0.1600
  896YOPE   C3A11891   5.738   5.934   7.476  0.1367  0.1561  0.2433
  896YOPE   C4A11892   5.589   5.909   7.855  0.1964  0.3337  0.2063
  896YOPE   C1B11893   6.120   6.267   7.168 -0.1329  0.0223 -0.1044
  896YOPE   C2B11894   6.565   6.223   7.276 -0.2063 -0.0457 -0.2315
  896YOPE   D3B11895   6.837   6.165   7.579 -0.1599 -0.2793 -0.2490
  896YOPE   C4B11896   6.908   6.217   8.122 -0.0000 -0.3077 -0.2030
  897YOPE   NH311897  15.990  15.496   6.589 -0.3202 -0.2521  0.1098
  897YOPE   PO411898  15.525  15.517   6.449  0.0001  0.1638 -0.1385
  897YOPE   GL111899  15.368  15.540   6.803  0.0976 -0.3291 -0.2988
  897YOPE   GL211900  15.579  15.352   7.065  0.0022  0.1219  0.1032
  897YOPE   C1A11901  15.116  15.452   7.144  0.2033 -0.1040  0.0206
  897YOPE   D2A11902  14.890  15.094   7.291  0.3320 -0.0598  0.0744
  897YOPE   C3A11903  14.427  15.059   7.357  0.1038  0.2158 -0.0600
  897YOPE   C4A11904  14.287  15.244   7.736  0.0502  0.3343  0.1595
  897YOPE   C1B11905  15.601  15.228   7.430 -0.0145  0.0445 -0.1542
  897YOPE   C2B11906  15.773  15.083   7.767 -0.0041  0.0030  0.1203
  897YOPE   D3B11907  15.505  15.108   8.210  0.0671  0.1599  0.2655
  897YOPE   C4B11908  15.447  15.208   8.666  0.0936  0.1723 -0.1761
  898YOPE   NH311909  14.423   1.988   6.250  0.2058  0.5863  0.1401
  898YOPE   PO411910  14.248   1.623   6.277 -0.0536 -0.0082 -0.1922
  898YOPE   GL111911  14.417   1.480   6.613 -0.0547  0.1098 -0.0479
  898YOPE   GL211912  14.689   1.656   6.700 -0.3002  0.0350  0.0207
  898YOPE   C1A11913  14.329   1.262   7.071 -0.1534  0.1566 -0.0814
  898YOPE   D2A11914  14.169   1.134   7.491  0.2580  0.1502  0.0732
  898YOPE   C3A11915  14.493   0.961   7.829 -0.0802 -0.0982 -0.1219
  898YOPE   C4A11916  14.704   0.954   8.266  0.3130 -0.1199 -0.1118
  898YOPE   C1B11917  14.762   1.546   7.138  0.0221  0.1127 -0.0212
  898YOPE   C2B11918  15.070   1.688   7.409  0.1719  0.1231  0.0280
  898YOPE   D3B11919  15.179   1.766   7.932  0.1921 -0.0790 -0.1452
  898YOPE   C4B11920  15.237   1.747   8.391  0.2644 -0.3261  0.2873
  899YOPE   NH311921   5.377   8.904   6.064 -0.0712 -0.1685 -0.1552
  899YOPE   PO411922   5.834   9.007   6.014  0.1158 -0.2449  0.0304
  899YOPE   GL111923   5.769   8.911   6.496  0.1351  0.1517 -0.0047
  899YOPE   GL211924   6.009   9.046   6.597  0.2852 -0.0226 -0.0244
  899YOPE   C1A11925   5.662   9.194   6.898 -0.0384  0.1711  0.1190
  899YOPE   D2A11926   5.448   9.377   7.232  0.2428  0.1497  0.0180
  899YOPE   C3A11927   5.329   9.228   7.674  0.0853 -0.1492 -0.0029
  899YOPE   C4A11928   5.380   8.897   7.965  0.3852  0.0989 -0.0439
  899YOPE   C1B11929   6.037   8.806   6.971 -0.3059  0.0365  0.0340
  899YOPE   C2B11930   6.085   8.635   7.376 -0.0062 -0.0268  0.0622
  899YOPE   D3B11931   6.071   8.533   7.807  0.1082  0.1156  0.0139
  899YOPE   C4B11932   5.799   8.389   8.118 -0.3049  0.3163 -0.3635
  900YOPE   NH311933   0.667   5.091   5.506 -0.0251  0.1684  0.0924
  900YOPE   PO411934   0.463   5.534   5.762 -0.3399  0.1197  0.1206
  900YOPE   GL111935   0.453   5.236   6.039 -0.0779 -0.1528 -0.0601
  900YOPE   GL211936   0.790   4.985   5.977 -0.0391 -0.4287  0.1399
  900YOPE   C1A11937   0.408   5.268   6.421 -0.1771  0.1515 -0.1646
  900YOPE   D2A11938   0.118   5.358   6.775 -0.0315 -0.0188 -0.0341
  900YOPE   C3A11939   0.132   5.728   6.831  0.0358  0.0760  0.0255
  900YOPE   C4A11940   0.018   6.161   6.650 -0.3566  0.1486 -0.0105
  900YOPE   C1B11941   0.927   5.083   6.396 -0.3487 -0.0801 -0.1475
  900YOPE   C2B11942   0.853   5.172   6.739 -0.1412  0.0454 -0.0951
  900YOPE   D3B11943   1.048   5.114   7.189 -0.2419 -0.0071  0.0781
  900YOPE   C4B11944   0.715   5.288   7.423 -0.1329  0.0104  0.1098
  901YOPE   NH311945   0.998   9.174   5.963 -0.0317 -0.0345 -0.0346
  901YOPE   PO411946   1.448   9.237   6.035  0.0813  0.0915 -0.0733
  901YOPE   GL111947   1.656   9.056   6.378 -0.0716  0.0752 -0.0087
  901YOPE   GL211948   1.814   8.831   6.494  0.4115  0.0927 -0.1518
  901YOPE   C1A11949   1.804   9.313   6.761  0.5135  0.2180 -0.0795
  901YOPE   D2A11950   2.023   9.354   7.151 -0.1518 -0.2485  0.0980
  901YOPE   C3A11951   2.017   9.075   7.436 -0.2518  0.1381  0.0310
  901YOPE   C4A11952   2.060   9.075   7.860  0.3035  0.1938  0.1641
  901YOPE   C1B11953   1.919   8.791   6.978  0.0263  0.0382  0.0080
  901YOPE   C2B11954   1.735   8.681   7.319 -0.0583 -0.0459 -0.1424
  901YOPE   D3B11955   1.597   8.846   7.605 -0.2823 -0.0509 -0.0206
  901YOPE   C4B11956   1.277   8.777   7.861  0.0423 -0.1082  0.1421
  902YOPE   NH311957   9.473  17.289   6.734  0.3170 -0.0991  0.1425
  902YOPE   PO411958   9.805  17.179   6.762  0.1400  0.1203  0.1503
  902YOPE   GL111959   9.568  16.897   7.066  0.1330 -0.3657  0.1494
  902YOPE   GL211960   9.222  16.877   7.065 -0.0538 -0.1192 -0.2299
  902YOPE   C1A11961   9.745  16.806   7.444  0.0130 -0.1211  0.0142
  902YOPE   D2A11962   9.962  16.801   7.856 -0.1844  0.0106 -0.1150
  902YOPE   C3A11963   9.768  16.904   8.244  0.1531  0.1861  0.1405
  902YOPE   C4A11964   9.671  16.831   8.774 -0.1595 -0.0702  0.2654
  902YOPE   C1B11965   9.270  16.657   7.478  0.2697 -0.1059 -0.2829
  902YOPE   C2B11966   9.325  16.602   8.036  0.1541 -0.2631  0.0456
  902YOPE   D3B11967   9.194  16.635   8.479 -0.2971  0.0303  0.4662
  902YOPE   C4B11968   8.813  16.604   8.712  0.2190  0.1172 -0.2118
  903YOPE   NH311969   7.081  14.224   6.422  0.0232 -0.0473 -0.1925
  903YOPE   PO411970   7.133  14.637   6.572 -0.2372 -0.1220 -0.0640
  903YOPE   GL111971   7.069  14.453   6.972 -0.1297  0.1074 -0.0129
  903YOPE   GL211972   7.112  14.146   6.924  0.0647  0.0784 -0.0279
  903YOPE   C1A11973   6.907  14.521   7.351 -0.2767 -0.3652 -0.2885
  903YOPE   D2A11974   6.813  14.541   7.766 -0.1507  0.0684 -0.1099
  903YOPE   C3A11975   6.455  14.875   7.979 -0.1127  0.1677 -0.1136
  903YOPE   C4A11976   6.608  15.041   8.356 -0.1224  0.0102 -0.0891
  903YOPE   C1B11977   7.271  13.711   7.212 -0.1765  0.1428  0.0437
  903YOPE   C2B11978   7.303  13.424   7.588  0.2264  0.0842 -0.2107
  903YOPE   D3B11979   7.241  13.214   8.025  0.1222 -0.2459 -0.3772
  903YOPE   C4B11980   6.988  13.131   8.489  0.2857  0.1067 -0.2503
  904YOPE   NH311981   5.644   2.558   6.173 -0.2210 -0.2351 -0.2735
  904YOPE   PO411982   5.879   2.972   6.216  0.1113 -0.2630  0.1225
  904YOPE   GL111983   5.781   2.897   6.603  0.0115 -0.0996  0.0711
  904YOPE   GL211984   5.609   3.239   6.618  0.0959  0.0250  0.0109
  904YOPE   C1A11985   5.707   2.979   7.069 -0.0102 -0.1147  0.2522
  904YOPE   D2A11986   5.372   3.192   7.455  0.2765  0.2380 -0.0774
  904YOPE   C3A11987   5.168   3.053   7.857  0.0549  0.3378  0.0463
  904YOPE   C4A11988   5.175   2.796   8.218  0.1171  0.2254  0.4640
  904YOPE   C1B11989   5.340   3.316   6.962 -0.0438 -0.1261  0.0462
  904YOPE   C2B11990   4.965   3.213   7.143 -0.0975 -0.2125  0.1591
  904YOPE   D3B11991   4.724   3.159   7.492 -0.1400 -0.0540 -0.0982
  904YOPE   C4B11992   4.689   3.260   7.927 -0.1586 -0.1910 -0.1837
  905YOPE   NH311993  11.225   9.905   6.303  0.4169 -0.0921 -0.0537
  905YOPE   PO411994  10.860  10.003   6.092  0.0063  0.2039 -0.0374
  905YOPE   GL111995  10.719   9.910   6.573  0.0408 -0.1702 -0.0791
  905YOPE   GL211996  10.920   9.928   6.744  0.0589 -0.1223  0.1277
  905YOPE   C1A11997  10.486  10.119   6.902 -0.0025  0.0142 -0.0605
  905YOPE   D2A11998  10.436  10.250   7.331  0.0590 -0.2888 -0.3614
  905YOPE   C3A11999  10.347  10.660   7.421 -0.0478 -0.1866  0.1115
  905YOPE   C4A12000  10.153  10.939   7.568  0.2403 -0.2639  0.1825
  905YOPE   C1B12001  10.778   9.833   7.188 -0.0293 -0.1297 -0.2862
  905YOPE   C2B12002  10.713   9.794   7.531 -0.0134  0.1027 -0.1176
  905YOPE   D3B12003  10.402   9.895   7.700 -0.3394 -0.2190 -0.3220
  905YOPE   C4B12004  10.294  10.046   8.102  0.2472  0.0545 -0.1337
  906YOPE   NH312005   1.311   1.426   5.983  0.0044 -0.0726 -0.2886
  906YOPE   PO412006   1.299   1.964   5.920 -0.1986  0.3890  0.2807
  906YOPE   GL112007   1.288   1.801   6.389  0.2357  0.2557  0.0151
  906YOPE   GL212008   1.588   1.562   6.485  0.0433 -0.0448  0.1293
  906YOPE   C1A12009   1.234   2.029   6.767  0.2924 -0.1078 -0.0048
  906YOPE   D2A12010   1.367   2.262   7.133 -0.0918 -0.0917  0.0616
  906YOPE   C3A12011   1.352   2.173   7.617 -0.0065  0.2391  0.0324
  906YOPE   C4A12012   1.489   2.186   8.027 -0.0705 -0.0215 -0.3123
  906YOPE   C1B12013   1.393   1.531   6.839 -0.0859 -0.0077 -0.1947
  906YOPE   C2B12014   1.366   1.331   7.171  0.3458  0.0558  0.2231
  906YOPE   D3B12015   1.412   1.198   7.554 -0.1708  0.0897  0.1408
  906YOPE   C4B12016   1.620   1.181   7.970  0.1573  0.1385 -0.3057
  907YOPE   NH312017  17.378  16.152   6.286  0.2670 -0.1488 -0.3080
  907YOPE   PO412018  17.590  16.083   6.587  0.1010 -0.0857 -0.1870
  907YOPE   GL112019  17.653  16.184   6.903  0.0348 -0.1256  0.1352
  907YOPE   GL212020  17.617  16.578   6.811  0.1266 -0.0671 -0.3560
  907YOPE   C1A12021  17.858  16.061   7.287 -0.0912 -0.1676  0.1497
  907YOPE   D2A12022  17.953  16.316   7.703  0.1613 -0.0344  0.0064
  907YOPE   C3A12023  18.110  16.075   8.078 -0.1379  0.0934 -0.1720
  907YOPE   C4A12024  18.201  15.701   8.438 -0.1697  0.0170 -0.3377
  907YOPE   C1B12025  17.819  16.585   7.188  0.1659 -0.1084 -0.0141
  907YOPE   C2B12026  17.712  16.712   7.631 -0.4416 -0.2857 -0.1157
  907YOPE   D3B12027  17.558  17.011   7.952  0.2254  0.1592  0.2950
  907YOPE   C4B12028  17.556  17.468   8.190  0.1313  0.1322 -0.0419
  908YOPE   NH312029   1.162  16.427   6.566  0.0010 -0.3134 -0.3416
  908YOPE   PO412030   1.429  16.826   6.599  0.0925 -0.1330  0.3190
  908YOPE   GL112031   1.115  16.912   6.808 -0.1079  0.2231 -0.1625
  908YOPE   GL212032   0.834  17.099   6.773  0.1386  0.0607  0.0189
  908YOPE   C1A12033   0.997  16.928   7.295  0.1373  0.0236  0.1266
  908YOPE   D2A12034   0.919  16.777   7.685 -0.0005 -0.1741 -0.0135
  908YOPE   C3A12035   0.545  16.685   7.790 -0.1600 -0.2671  0.0717
  908YOPE   C4A12036   0.254  16.530   8.173  0.2416 -0.2144 -0.2320
  908YOPE   C1B12037   0.649  17.317   7.109 -0.1060 -0.0480  0.2825
  908YOPE   C2B12038   0.494  17.539   7.426 -0.1176  0.2045 -0.1408
  908YOPE   D3B12039   0.597  17.693   7.759  0.0306  0.2082  0.1896
  908YOPE   C4B12040   0.383  17.646   8.189 -0.0970  0.0446  0.0490
  909YOPE   NH312041  11.583  12.933   6.395 -0.1420  0.1143  0.0465
  909YOPE   PO412042  11.564  12.667   6.089  0.1795 -0.1547 -0.0890
  909YOPE   GL112043  11.778  12.457   6.443 -0.1771 -0.1346 -0.1858
  909YOPE   GL212044  11.509  12.417   6.522  0.0616  0.0655 -0.1024
  909YOPE   C1A12045  11.944  12.158   6.710  0.0960 -0.0451 -0.0958
  909YOPE   D2A12046  11.952  12.079   7.159  0.1428  0.2919  0.0493
  909YOPE   C3A12047  12.033  11.764   7.405 -0.1810  0.0249  0.0065
  909YOPE   C4A12048  12.375  11.562   7.535  0.1453 -0.0229 -0.0521
  909YOPE   C1B12049  11.527  12.391   6.990 -0.0021  0.0183 -0.1004
  909YOPE   C2B12050  11.576  12.418   7.444  0.2186 -0.0570  0.3764
  909YOPE   D3B12051  11.541  12.555   7.882 -0.0681  0.4112 -0.1238
  909YOPE   C4B12052  11.598  12.722   8.251  0.2166  0.1698  0.0374
  910YOPE   NH312053   8.284  14.008   6.360  0.2029  0.1397  0.1919
  910YOPE   PO412054   8.737  14.205   6.307 -0.2310 -0.0442 -0.1228
  910YOPE   GL112055   8.676  14.233   6.746  0.0839  0.1227 -0.1815
  910YOPE   GL212056   8.966  14.324   6.909  0.0430  0.0785 -0.4081
  910YOPE   C1A12057   8.512  14.175   7.104  0.1653 -0.2109 -0.0565
  910YOPE   D2A12058   8.411  14.069   7.437 -0.1727  0.2408  0.1481
  910YOPE   C3A12059   8.090  13.789   7.561  0.0338 -0.3595 -0.0144
  910YOPE   C4A12060   8.013  13.885   7.989 -0.1444  0.1810  0.2529
  910YOPE   C1B12061   8.960  13.989   7.175  0.2205 -0.0914  0.0151
  910YOPE   C2B12062   9.124  13.924   7.469 -0.2608  0.0373 -0.1767
  910YOPE   D3B12063   9.228  13.641   7.834  0.2294 -0.2572  0.1428
  910YOPE   C4B12064   9.257  13.543   8.292 -0.1573 -0.1103  0.3777
  911YOPE   NH312065   7.040  17.707   6.163 -0.1534 -0.1058  0.1869
  911YOPE   PO412066   7.302  17.316   6.172  0.0026  0.0876 -0.1504
  911YOPE   GL112067   7.186  17.373   6.540  0.3913  0.2577  0.0127
  911YOPE   GL212068   7.373  17.248   6.698 -0.2713  0.1832 -0.0913
  911YOPE   C1A12069   6.795  17.456   6.755  0.1631  0.0942 -0.1374
  911YOPE   D2A12070   6.510  17.488   7.157  0.0169  0.0356  0.2562
  911YOPE   C3A12071   6.374  17.740   7.527 -0.3740 -0.0785  0.4405
  911YOPE   C4A12072   6.332  18.149   7.709  0.0375 -0.0926  0.1151
  911YOPE   C1B12073   7.362  17.155   7.090 -0.3532  0.0509  0.1989
  911YOPE   C2B12074   7.284  16.839   7.304 -0.1731  0.1675  0.0050
  911YOPE   D3B12075   7.282  16.822   7.780 -0.3308  0.1072 -0.3440
  911YOPE   C4B12076   7.123  17.165   8.091 -0.1626 -0.1895 -0.1610
  912YOPE   NH312077  10.782   2.244   6.324 -0.3860 -0.0641  0.0560
  912YOPE   PO412078  11.136   2.070   6.552  0.3100 -0.3959  0.4200
  912YOPE   GL112079  11.008   2.114   6.995  0.2087  0.1962  0.1040
  912YOPE   GL212080  11.046   1.800   7.185  0.2383 -0.2826  0.0427
  912YOPE   C1A12081  11.065   2.289   7.473  0.5529  0.1431 -0.1613
  912YOPE   D2A12082  11.068   2.566   7.707 -0.0681  0.2408 -0.2608
  912YOPE   C3A12083  10.891   2.635   8.099  0.2528  0.1086 -0.0460
  912YOPE   C4A12084  10.521   2.864   8.164 -0.1240  0.3264 -0.0853
  912YOPE   C1B12085  10.876   1.830   7.631 -0.0932  0.2284 -0.0310
  912YOPE   C2B12086  10.937   2.085   8.088  0.0077  0.0078 -0.1276
  912YOPE   D3B12087  11.163   2.432   8.505 -0.1522 -0.2307 -0.4013
  912YOPE   C4B12088  11.637   2.538   8.574  0.0692 -0.2973  0.0702
  913YOPE   NH312089   5.383   5.395   5.689  0.0337 -0.0680  0.1549
  913YOPE   PO412090   5.646   5.094   5.453 -0.0018 -0.0415  0.0192
  913YOPE   GL112091   5.656   4.950   5.826  0.2497  0.2398  0.0241
  913YOPE   GL212092   5.707   5.257   6.055 -0.1510  0.2469 -0.0313
  913YOPE   C1A12093   6.016   4.855   6.095  0.1361  0.0461 -0.3310
  913YOPE   D2A12094   6.222   5.069   6.444  0.0478 -0.0031 -0.2587
  913YOPE   C3A12095   6.182   5.347   6.752 -0.0650 -0.1217 -0.2156
  913YOPE   C4A12096   6.228   5.709   6.474 -0.3572 -0.2365 -0.2819
  913YOPE   C1B12097   5.745   5.317   6.475  0.2258 -0.2172  0.0483
  913YOPE   C2B12098   5.649   5.124   6.882  0.1561  0.2752 -0.2083
  913YOPE   D3B12099   5.417   5.168   7.252  0.1529 -0.2382  0.0598
  913YOPE   C4B12100   5.185   5.243   7.568  0.1450 -0.1417  0.0120
  914YOPE   NH312101   6.892   9.917   6.168  0.1868 -0.2417 -0.2321
  914YOPE   PO412102   7.087   9.607   6.371  0.1310  0.0828  0.3457
  914YOPE   GL112103   6.864   9.363   6.626 -0.1195  0.1994  0.0183
  914YOPE   GL212104   6.771   9.613   6.730 -0.1214 -0.2650  0.3788
  914YOPE   C1A12105   6.935   9.096   7.035 -0.0765  0.2054 -0.1048
  914YOPE   D2A12106   7.108   8.975   7.421  0.1021  0.1521  0.0827
  914YOPE   C3A12107   7.410   8.737   7.502  0.1574 -0.0547 -0.2540
  914YOPE   C4A12108   7.832   8.846   7.366 -0.0150 -0.0645  0.0637
  914YOPE   C1B12109   6.643   9.447   7.129 -0.0964  0.1933  0.1070
  914YOPE   C2B12110   6.744   9.251   7.578  0.1834  0.0151 -0.1125
  914YOPE   D3B12111   6.936   9.011   7.901  0.2461 -0.0709 -0.0347
  914YOPE   C4B12112   7.350   8.928   7.969 -0.0240  0.1532  0.2489
  915YOPE   NH312113  14.790  16.668   6.431  0.0384 -0.3798 -0.1835
  915YOPE   PO412114  15.098  17.017   6.472 -0.1221  0.1406 -0.0158
  915YOPE   GL112115  14.793  16.949   6.902 -0.0985 -0.0910  0.0743
  915YOPE   GL212116  15.041  17.018   7.130  0.0434  0.2143  0.1609
  915YOPE   C1A12117  14.357  17.092   7.304  0.1671 -0.0530 -0.0596
  915YOPE   D2A12118  14.042  16.809   7.636  0.1133  0.1665 -0.1362
  915YOPE   C3A12119  13.874  16.962   8.037 -0.1172 -0.0834  0.0602
  915YOPE   C4A12120  13.896  16.931   8.459  0.0733 -0.0862  0.1085
  915YOPE   C1B12121  14.858  16.980   7.521 -0.3910  0.0203  0.1888
  915YOPE   C2B12122  14.483  16.918   7.812 -0.1452  0.2176 -0.0629
  915YOPE   D3B12123  14.470  17.031   8.182  0.0691 -0.0547  0.1157
  915YOPE   C4B12124  14.344  16.518   8.407  0.0736 -0.2438  0.1685
  916YOPE   NH312125   5.548  16.954   6.417  0.1015 -0.1192  0.0575
  916YOPE   PO412126   6.089  16.832   6.314  0.1240 -0.1020  0.2410
  916YOPE   GL112127   5.952  16.848   6.770 -0.0921  0.2183  0.0641
  916YOPE   GL212128   5.794  16.719   6.901  0.0066 -0.3007 -0.0280
  916YOPE   C1A12129   6.043  17.164   6.971 -0.0920 -0.2572  0.0265
  916YOPE   D2A12130   6.102  17.267   7.408  0.0134  0.0341  0.2280
  916YOPE   C3A12131   6.500  17.249   7.609 -0.0929  0.2503 -0.0470
  916YOPE   C4A12132   6.644  17.400   7.968  0.2861  0.0125 -0.1829
  916YOPE   C1B12133   5.868  16.827   7.337  0.0002  0.2444  0.1049
  916YOPE   C2B12134   5.884  16.706   7.716 -0.4499 -0.2436  0.2997
  916YOPE   D3B12135   5.824  16.743   8.165  0.0385  0.0813 -0.0168
  916YOPE   C4B12136   6.196  16.722   8.545 -0.0063  0.0088 -0.0852
  917YOPE   NH312137   9.308  15.275   6.674  0.0975  0.2836 -0.1574
  917YOPE   PO412138   9.189  14.820   6.667 -0.1353  0.1928  0.1183
  917YOPE   GL112139   9.190  14.804   7.011  0.1576  0.2945  0.0110
  917YOPE   GL212140   9.043  14.734   7.258 -0.1714 -0.1262 -0.1501
  917YOPE   C1A12141   9.530  14.818   7.214  0.1269 -0.0026 -0.1417
  917YOPE   D2A12142   9.581  14.738   7.758 -0.1622  0.1086  0.3388
  917YOPE   C3A12143   9.081  14.613   7.831 -0.0686 -0.0031 -0.1884
  917YOPE   C4A12144   8.857  14.424   8.174 -0.0652  0.2272 -0.2857
  917YOPE   C1B12145   8.848  14.338   7.486 -0.1601  0.2241 -0.0571
  917YOPE   C2B12146   8.776  14.071   7.787  0.0419  0.0635  0.1396
  917YOPE   D3B12147   8.611  13.670   7.857  0.2978 -0.0285  0.2090
  917YOPE   C4B12148   8.795  13.313   8.112  0.2571 -0.3606  0.1273
  918YOPE   NH312149  11.769   9.196   6.165  0.0294 -0.0698  0.1423
  918YOPE   PO412150  11.514   8.944   6.120 -0.3375  0.0747 -0.1340
  918YOPE   GL112151  11.463   8.803   6.513  0.1894 -0.1088 -0.3123
  918YOPE   GL212152  11.635   8.969   6.690  0.1894  0.1875 -0.3938
  918YOPE   C1A12153  11.379   8.620   7.007 -0.0710 -0.0733  0.3486
  918YOPE   D2A12154  11.081   8.420   7.166 -0.3370 -0.1918  0.1026
  918YOPE   C3A12155  11.032   8.057   7.485 -0.1386 -0.0411  0.2117
  918YOPE   C4A12156  11.088   7.693   7.797  0.0180 -0.2621  0.1038
  918YOPE   C1B12157  11.617   9.047   7.163 -0.2567  0.0241  0.2223
  918YOPE   C2B12158  11.678   8.847   7.515 -0.1705 -0.1124 -0.0552
  918YOPE   D3B12159  11.566   8.608   7.921  0.1759  0.0818  0.1907
  918YOPE   C4B12160  11.301   8.362   8.346 -0.0304  0.2525 -0.0417
  919YOPE   NH312161  13.471   0.625   5.988 -0.0693 -0.2410  0.0682
  919YOPE   PO412162  13.403   1.062   5.998  0.0377 -0.1932  0.0171
  919YOPE   GL112163  13.503   0.857   6.445  0.0548 -0.0468  0.0817
  919YOPE   GL212164  13.728   0.623   6.537 -0.1821  0.2546 -0.1606
  919YOPE   C1A12165  13.429   0.965   6.863  0.0990  0.0667 -0.2533
  919YOPE   D2A12166  13.135   0.914   7.197 -0.2155 -0.1244 -0.0060
  919YOPE   C3A12167  13.262   1.140   7.632  0.0947  0.0933  0.0149
  919YOPE   C4A12168  13.394   1.231   7.949 -0.1757  0.0889 -0.0571
  919YOPE   C1B12169  13.807   0.581   6.973  0.0609  0.0512 -0.0489
  919YOPE   C2B12170  14.060   0.582   7.473  0.1413 -0.3470 -0.5170
  919YOPE   D3B12171  14.259   0.540   7.906 -0.0706 -0.0936  0.1049
  919YOPE   C4B12172  14.504   0.490   8.335  0.2278 -0.1060 -0.2094
  920YOPE   NH312173  16.970   3.914   5.873  0.2579  0.0979 -0.2883
  920YOPE   PO412174  17.335   4.054   5.872 -0.0208  0.2800  0.1117
  920YOPE   GL112175  17.361   4.218   6.223  0.0957  0.0343  0.1419
  920YOPE   GL212176  17.002   4.244   6.285 -0.0499 -0.0906  0.2969
  920YOPE   C1A12177  17.540   4.007   6.598  0.0277 -0.1382 -0.2237
  920YOPE   D2A12178  17.741   4.124   6.993 -0.1448  0.1265 -0.0902
  920YOPE   C3A12179  17.637   4.118   7.319 -0.0938 -0.0567  0.0728
  920YOPE   C4A12180  17.627   4.008   7.783  0.0299  0.0880 -0.1859
  920YOPE   C1B12181  17.081   4.116   6.674  0.0010  0.1295 -0.4247
  920YOPE   C2B12182  17.236   4.172   6.975  0.0630  0.2284  0.1577
  920YOPE   D3B12183  17.101   4.022   7.291 -0.0273  0.2563  0.4243
  920YOPE   C4B12184  17.167   3.880   7.679  0.0722  0.1262  0.2651
  921YOPE   NH312185  15.722   6.997   6.047  0.1489 -0.0880 -0.0779
  921YOPE   PO412186  15.919   7.414   6.046 -0.2152 -0.2341  0.1304
  921YOPE   GL112187  15.735   7.555   6.415  0.1041  0.1246 -0.1393
  921YOPE   GL212188  15.426   7.360   6.456  0.4380  0.0237  0.2117
  921YOPE   C1A12189  15.715   7.441   6.853  0.2947  0.2037  0.1330
  921YOPE   D2A12190  15.813   7.172   7.234 -0.0332 -0.0955  0.2014
  921YOPE   C3A12191  15.852   7.184   7.684  0.1102  0.1225 -0.2077
  921YOPE   C4A12192  16.053   7.538   7.956 -0.0904 -0.2074 -0.0893
  921YOPE   C1B12193  15.029   7.243   6.832 -0.0375  0.1342  0.1110
  921YOPE   C2B12194  14.763   7.301   7.172  0.3170 -0.3783  0.0275
  921YOPE   D3B12195  14.761   7.265   7.611  0.1073  0.0059 -0.2361
  921YOPE   C4B12196  14.941   7.230   7.990  0.0819  0.3383  0.1594
  922YOPE   NH312197  16.656  14.041   6.411 -0.1859  0.0257  0.0221
  922YOPE   PO412198  16.262  14.099   6.541 -0.0065 -0.3811  0.5272
  922YOPE   GL112199  16.429  13.738   6.783 -0.2734  0.0066 -0.0491
  922YOPE   GL212200  16.303  13.423   6.841 -0.1215 -0.0238  0.1915
  922YOPE   C1A12201  16.694  13.705   7.235  0.1600 -0.0608 -0.0517
  922YOPE   D2A12202  16.982  13.815   7.653  0.0670  0.4304 -0.1166
  922YOPE   C3A12203  16.986  13.555   8.020 -0.2352  0.0823  0.2747
  922YOPE   C4A12204  16.877  13.434   8.439 -0.2718  0.0501  0.1946
  922YOPE   C1B12205  16.105  13.758   7.145 -0.1175  0.0228 -0.1382
  922YOPE   C2B12206  16.128  14.134   7.534 -0.2577 -0.1174  0.0971
  922YOPE   D3B12207  16.219  14.142   7.868 -0.1323 -0.0181 -0.0750
  922YOPE   C4B12208  16.253  14.182   8.341 -0.2808 -0.0873  0.1442
  923YOPE   NH312209   9.949   7.639   6.127 -0.1167  0.0931  0.0793
  923YOPE   PO412210   9.825   8.123   6.056  0.1122  0.2150 -0.0617
  923YOPE   GL112211   9.740   8.012   6.401 -0.0000  0.2270  0.0743
  923YOPE   GL212212  10.016   7.864   6.547 -0.2706  0.0327 -0.2700
  923YOPE   C1A12213   9.588   7.895   6.740 -0.0012 -0.3392 -0.1202
  923YOPE   D2A12214   9.263   7.858   7.072 -0.4137 -0.2734  0.3141
  923YOPE   C3A12215   9.262   7.708   7.473  0.3024  0.0969 -0.1505
  923YOPE   C4A12216   9.365   7.653   7.906  0.2722 -0.0464 -0.1768
  923YOPE   C1B12217  10.133   7.920   6.978 -0.0380 -0.0520  0.0630
  923YOPE   C2B12218  10.197   7.788   7.396 -0.0512 -0.1659  0.0047
  923YOPE   D3B12219  10.109   7.791   7.763 -0.0512 -0.0188 -0.0144
  923YOPE   C4B12220   9.872   7.623   8.077  0.2120 -0.1608 -0.1988
  924YOPE   NH312221   4.749   4.499   5.752 -0.0022 -0.4337 -0.0592
  924YOPE   PO412222   5.144   4.313   5.703 -0.1771 -0.0692 -0.1119
  924YOPE   GL112223   5.110   4.467   6.099 -0.2151  0.0042  0.1052
  924YOPE   GL212224   4.898   4.755   6.157  0.0949 -0.2316 -0.0638
  924YOPE   C1A12225   5.297   4.418   6.587 -0.1414 -0.1041 -0.3851
  924YOPE   D2A12226   5.240   4.221   7.004  0.1140 -0.0715 -0.0387
  924YOPE   C3A12227   5.570   4.238   7.240  0.0591 -0.2313  0.1595
  924YOPE   C4A12228   5.610   4.322   7.671  0.1071  0.4659 -0.1347
  924YOPE   C1B12229   4.808   4.599   6.593  0.0574 -0.1634 -0.3280
  924YOPE   C2B12230   4.772   4.541   7.092 -0.1382  0.0864 -0.1467
  924YOPE   D3B12231   4.978   4.717   7.512  0.3063  0.1620 -0.0140
  924YOPE   C4B12232   4.726   4.738   7.865  0.1398 -0.0323 -0.0049
  925YOPE   NH312233   6.586  10.369   6.175 -0.4549 -0.2646  0.1855
  925YOPE   PO412234   6.320  10.049   6.251  0.1363  0.0181 -0.0236
  925YOPE   GL112235   6.560  10.051   6.640 -0.0759  0.0155  0.0058
  925YOPE   GL212236   6.830  10.219   6.649 -0.0579  0.0329  0.0354
  925YOPE   C1A12237   6.665  10.042   7.109 -0.0120  0.1042  0.0319
  925YOPE   D2A12238   6.640   9.871   7.416 -0.1267 -0.0646 -0.0847
  925YOPE   C3A12239   6.766   9.769   7.867 -0.0785  0.0172  0.2557
  925YOPE   C4A12240   6.856   9.702   8.342 -0.0463 -0.1337  0.1776
  925YOPE   C1B12241   7.074  10.301   7.038 -0.0524  0.0430  0.2288
  925YOPE   C2B12242   7.060  10.210   7.349 -0.1381  0.1233  0.2969
  925YOPE   D3B12243   6.788  10.258   7.687  0.0699  0.2431 -0.0927
  925YOPE   C4B12244   6.560  10.452   8.106  0.1702  0.0822 -0.1163
  926YOPE   NH312245  15.261   6.586   5.939  0.0261  0.0118  0.1067
  926YOPE   PO412246  15.003   6.329   5.961 -0.0679 -0.1186  0.1708
  926YOPE   GL112247  15.107   6.419   6.422 -0.0851  0.0498  0.0014
  926YOPE   GL212248  14.803   6.354   6.540 -0.0317 -0.3506 -0.0013
  926YOPE   C1A12249  15.184   6.463   6.886 -0.1219 -0.0728  0.1365
  926YOPE   D2A12250  15.163   6.461   7.330  0.0084 -0.1655  0.3142
  926YOPE   C3A12251  15.443   6.682   7.659  0.0216  0.0449 -0.1060
  926YOPE   C4A12252  15.805   6.628   7.854 -0.1946  0.1555  0.2234
  926YOPE   C1B12253  14.688   6.266   6.927 -0.1659 -0.1201 -0.3509
  926YOPE   C2B12254  14.691   6.298   7.275 -0.0967 -0.2198 -0.0029
  926YOPE   D3B12255  14.712   6.442   7.594 -0.1912  0.4044 -0.6077
  926YOPE   C4B12256  14.506   6.816   7.818  0.1934  0.1649 -0.1676
  927YOPE   NH312257  13.441   2.179   6.231  0.2014  0.1079 -0.1584
  927YOPE   PO412258  12.950   2.045   6.230 -0.1619  0.0486  0.0882
  927YOPE   GL112259  12.731   1.972   6.647  0.3360 -0.2157  0.0762
  927YOPE   GL212260  12.470   2.189   6.770 -0.2423 -0.2381 -0.0601
  927YOPE   C1A12261  12.898   2.011   7.003 -0.0440 -0.0632  0.0695
  927YOPE   D2A12262  12.859   2.034   7.493  0.2440 -0.0990 -0.0025
  927YOPE   C3A12263  13.011   2.153   7.989  0.1328 -0.2508 -0.4203
  927YOPE   C4A12264  12.993   1.933   8.421 -0.1420  0.0738 -0.4697
  927YOPE   C1B12265  12.410   2.250   7.243  0.0827 -0.4592 -0.0041
  927YOPE   C2B12266  12.300   2.084   7.626  0.2071 -0.3454  0.2334
  927YOPE   D3B12267  12.179   1.827   7.966 -0.1558  0.0271 -0.1417
  927YOPE   C4B12268  12.021   1.750   8.381 -0.3114  0.2825  0.0736
  928YOPE   NH312269   2.894   6.313   5.531 -0.3246 -0.0498  0.2710
  928YOPE   PO412270   2.837   6.716   5.682 -0.0607 -0.0509  0.1274
  928YOPE   GL112271   2.670   6.711   6.072 -0.1605  0.0688 -0.1003
  928YOPE   GL212272   2.884   6.677   6.366  0.0220  0.0186  0.1506
  928YOPE   C1A12273   2.492   6.375   6.324  0.0883 -0.1078  0.1352
  928YOPE   D2A12274   2.466   5.996   6.355  0.3213  0.1395  0.0299
  928YOPE   C3A12275   2.682   5.665   6.348  0.1542 -0.3724 -0.1661
  928YOPE   C4A12276   2.764   5.319   6.347  0.1902 -0.0895 -0.2904
  928YOPE   C1B12277   2.859   6.554   6.902 -0.1813 -0.0430  0.3269
  928YOPE   C2B12278   2.751   6.412   7.246 -0.2110 -0.1399 -0.3964
  928YOPE   D3B12279   2.664   6.258   7.599  0.0681  0.2420 -0.1631
  928YOPE   C4B12280   2.849   6.072   7.944 -0.2100 -0.1765  0.0387
  929YOPE   NH312281   9.189  10.954   6.108  0.3502 -0.1928 -0.2697
  929YOPE   PO412282   9.381  10.585   5.869 -0.0133 -0.2174 -0.3720
  929YOPE   GL112283   9.497  10.544   6.358 -0.1591 -0.0479  0.0356
  929YOPE   GL212284   9.400  10.267   6.474 -0.1885 -0.0144 -0.2794
  929YOPE   C1A12285   9.689  10.780   6.779  0.2067  0.1272  0.2253
  929YOPE   D2A12286   9.436  11.182   6.967  0.2589  0.0348 -0.0661
  929YOPE   C3A12287   9.352  11.121   7.420 -0.0654 -0.2477 -0.0339
  929YOPE   C4A12288   9.334  11.214   7.825 -0.2380 -0.0994  0.0005
  929YOPE   C1B12289   9.443  10.275   6.934  0.1524  0.2544 -0.2399
  929YOPE   C2B12290   9.450   9.900   7.230 -0.1541  0.0761 -0.0607
  929YOPE   D3B12291   9.620   9.657   7.622  0.1137 -0.0105  0.2376
  929YOPE   C4B12292   9.993   9.680   7.930 -0.1041  0.1212  0.0116
  930YOPE   NH312293  10.249   6.968   5.931 -0.0963  0.1427 -0.0414
  930YOPE   PO412294   9.939   7.123   5.987  0.0632  0.2821 -0.1875
  930YOPE   GL112295  10.032   7.187   6.417 -0.0703 -0.2230 -0.0040
  930YOPE   GL212296  10.172   7.418   6.474 -0.3917 -0.0380 -0.1340
  930YOPE   C1A12297  10.009   7.030   6.944 -0.3111 -0.0846 -0.1078
  930YOPE   D2A12298  10.075   6.941   7.384 -0.0346 -0.0545 -0.3449
  930YOPE   C3A12299   9.707   6.735   7.655  0.2272 -0.0465 -0.2247
  930YOPE   C4A12300   9.715   6.645   8.123  0.3945 -0.0805 -0.2258
  930YOPE   C1B12301  10.390   7.524   6.800  0.1703  0.0998  0.0517
  930YOPE   C2B12302  10.459   7.262   7.217 -0.0129 -0.1659  0.2316
  930YOPE   D3B12303  10.621   6.922   7.478 -0.0479 -0.1989  0.0640
  930YOPE   C4B12304  10.280   6.762   7.833 -0.2488 -0.1312 -0.1383
  931YOPE   NH312305  11.835  10.797   6.248  0.1160 -0.1253  0.2827
  931YOPE   PO412306  11.552  10.366   6.349 -0.1195 -0.1863 -0.1586
  931YOPE   GL112307  11.522  10.618   6.692  0.0732 -0.0870 -0.1860
  931YOPE   GL212308  11.705  10.885   6.770 -0.0468 -0.0395 -0.1295
  931YOPE   C1A12309  11.507  10.495   7.029  0.0459  0.0504 -0.1540
  931YOPE   D2A12310  11.618  10.395   7.408 -0.1480 -0.0786 -0.0890
  931YOPE   C3A12311  11.482  10.589   7.765 -0.0584  0.0528 -0.1667
  931YOPE   C4A12312  11.429  10.523   8.153 -0.1468 -0.0696  0.2893
  931YOPE   C1B12313  11.663  10.869   7.250 -0.1016  0.1013 -0.1122
  931YOPE   C2B12314  11.617  11.019   7.656 -0.0049 -0.2537 -0.1041
  931YOPE   D3B12315  11.812  10.853   7.995 -0.1062 -0.2390 -0.1847
  931YOPE   C4B12316  11.974  10.547   8.298  0.1533 -0.0464  0.2052
  932YOPE   NH312317   7.518   3.020   5.635 -0.2907  0.2002 -0.1053
  932YOPE   PO412318   7.717   3.389   5.759 -0.2311  0.1257 -0.0325
  932YOPE   GL112319   7.689   3.145   6.136  0.1177  0.2773  0.2645
  932YOPE   GL212320   7.425   3.147   6.348 -0.1212 -0.3079  0.0807
  932YOPE   C1A12321   7.882   3.178   6.583 -0.2355 -0.1473  0.1720
  932YOPE   D2A12322   7.980   3.444   6.874  0.0480 -0.0442  0.1276
  932YOPE   C3A12323   8.263   3.591   7.227 -0.1099 -0.1582  0.0364
  932YOPE   C4A12324   8.494   3.642   7.628 -0.0131  0.2092 -0.2303
  932YOPE   C1B12325   7.411   3.172   6.765 -0.2768  0.1553 -0.3202
  932YOPE   C2B12326   7.648   3.348   7.203 -0.1032  0.0068 -0.4034
  932YOPE   D3B12327   7.891   3.390   7.492  0.1184 -0.1224  0.0126
  932YOPE   C4B12328   8.060   3.458   7.886  0.0587 -0.2853  0.2412
  933YOPE   NH312329  11.987   3.904   6.083 -0.0171 -0.2045 -0.1858
  933YOPE   PO412330  11.553   3.664   6.009  0.1150 -0.2971 -0.2083
  933YOPE   GL112331  11.616   3.852   6.434  0.1173  0.0114  0.1352
  933YOPE   GL212332  11.995   3.748   6.621  0.1202 -0.1727 -0.3530
  933YOPE   C1A12333  11.559   3.802   6.910 -0.1620  0.2079 -0.0878
  933YOPE   D2A12334  11.351   3.857   7.329 -0.2135 -0.0044 -0.2285
  933YOPE   C3A12335  11.295   4.242   7.539 -0.0451 -0.0526 -0.0177
  933YOPE   C4A12336  11.552   4.466   7.830 -0.0944 -0.0276  0.1595
  933YOPE   C1B12337  12.469   3.671   6.876 -0.2849  0.1805 -0.1303
  933YOPE   C2B12338  12.514   3.771   7.339 -0.0833  0.0855  0.0444
  933YOPE   D3B12339  12.270   3.728   7.750 -0.1903 -0.2212 -0.3154
  933YOPE   C4B12340  11.956   3.629   8.159  0.3366  0.1212 -0.0849
  934YOPE   NH312341   8.722   2.618   6.267  0.0511  0.1515  0.0922
  934YOPE   PO412342   8.768   2.196   6.280  0.1144 -0.0651 -0.3938
  934YOPE   GL112343   8.572   2.145   6.701  0.3607  0.0335  0.2430
  934YOPE   GL212344   8.339   2.378   6.544 -0.2495  0.4019 -0.0504
  934YOPE   C1A12345   8.463   2.221   7.185  0.0866  0.0451  0.0706
  934YOPE   D2A12346   8.452   2.175   7.605  0.0537  0.0419  0.2600
  934YOPE   C3A12347   8.685   2.075   8.006  0.0260 -0.0110 -0.0313
  934YOPE   C4A12348   8.600   1.870   8.313  0.2322 -0.1368  0.0370
  934YOPE   C1B12349   8.506   2.590   6.903 -0.3403  0.1159 -0.0167
  934YOPE   C2B12350   8.472   2.724   7.306 -0.1229 -0.0236 -0.0299
  934YOPE   D3B12351   8.444   2.679   7.684  0.0877  0.2702 -0.0428
  934YOPE   C4B12352   8.397   2.425   8.054 -0.0322  0.2015  0.5451
  935YOPE   NH312353   9.603   1.901   6.472  0.1198 -0.0922 -0.1582
  935YOPE   PO412354   9.261   1.513   6.402 -0.0085  0.0488 -0.1163
  935YOPE   GL112355   9.300   1.603   6.820  0.0475 -0.1740  0.2033
  935YOPE   GL212356   9.657   1.648   6.913  0.1183 -0.0802 -0.0965
  935YOPE   C1A12357   9.312   1.459   7.229 -0.1668 -0.2593 -0.0361
  935YOPE   D2A12358   9.259   1.528   7.623  0.0389  0.1665  0.1881
  935YOPE   C3A12359   9.000   1.560   7.949 -0.4509 -0.2372  0.0320
  935YOPE   C4A12360   9.051   1.657   8.300 -0.0758  0.0091  0.2570
  935YOPE   C1B12361   9.731   1.757   7.334  0.0820 -0.1595 -0.0482
  935YOPE   C2B12362   9.677   1.818   7.841 -0.4861 -0.0235  0.0316
  935YOPE   D3B12363   9.590   1.865   8.269 -0.1804  0.1410 -0.0011
  935YOPE   C4B12364   9.708   2.313   8.396 -0.3394  0.1449 -0.3320
  936YOPE   NH312365  10.503   3.089   5.929 -0.1744  0.0145  0.4027
  936YOPE   PO412366  10.172   2.826   6.186  0.1538 -0.2660  0.0793
  936YOPE   GL112367   9.995   2.797   6.620  0.3514  0.2595  0.0955
  936YOPE   GL212368   9.674   2.907   6.654 -0.0272 -0.1146  0.1813
  936YOPE   C1A12369   9.960   2.814   7.033  0.0421 -0.0296 -0.0426
  936YOPE   D2A12370   9.999   2.622   7.388  0.0508 -0.1783 -0.0493
  936YOPE   C3A12371   9.918   2.719   7.786 -0.3396  0.1675 -0.4399
  936YOPE   C4A12372   9.704   2.836   8.178 -0.2626  0.0016 -0.2218
  936YOPE   C1B12373   9.403   2.777   6.911 -0.1222  0.0281 -0.1601
  936YOPE   C2B12374   9.496   2.845   7.339 -0.1053 -0.0099  0.0426
  936YOPE   D3B12375   9.368   2.885   7.798 -0.0763 -0.1497 -0.1748
  936YOPE   C4B12376   9.256   3.196   8.067  0.0130 -0.1056 -0.2720
  937YOPE   NH312377  13.289  15.476   6.367 -0.2408 -0.1129  0.1859
  937YOPE   PO412378  13.691  15.442   6.522 -0.0011 -0.1614 -0.2055
  937YOPE   GL112379  13.625  15.419   6.928  0.0134  0.2731 -0.3576
  937YOPE   GL212380  13.739  15.128   7.034  0.1901 -0.1753 -0.1585
  937YOPE   C1A12381  13.522  15.412   7.377  0.0644 -0.3715  0.0223
  937YOPE   D2A12382  13.577  15.573   7.759 -0.0559  0.1875 -0.1030
  937YOPE   C3A12383  13.867  15.493   8.081 -0.0407  0.5379  0.2872
  937YOPE   C4A12384  14.229  15.466   8.204  0.1947 -0.0046  0.0848
  937YOPE   C1B12385  13.855  15.077   7.382  0.3223  0.0531  0.0576
  937YOPE   C2B12386  13.639  15.096   7.782 -0.1656  0.1684 -0.1609
  937YOPE   D3B12387  13.436  15.158   8.112  0.1699  0.0609  0.0173
  937YOPE   C4B12388  13.455  15.511   8.396 -0.0711 -0.2801 -0.0799
  938YOPE   NH312389  10.290  10.097   6.253  0.0413  0.1156  0.1562
  938YOPE   PO412390  10.407   9.650   6.341  0.3656 -0.1121  0.0376
  938YOPE   GL112391  10.090   9.846   6.651 -0.0661 -0.3565  0.0876
  938YOPE   GL212392  10.062   9.503   6.908 -0.2566  0.0647  0.0407
  938YOPE   C1A12393   9.995   9.995   7.013  0.2072 -0.3193  0.2615
  938YOPE   D2A12394   9.984   9.984   7.490 -0.2448 -0.0470 -0.0428
  938YOPE   C3A12395   9.939  10.441   7.667  0.0099 -0.1355  0.0438
  938YOPE   C4A12396   9.722  10.867   7.802 -0.1474 -0.1457 -0.2844
  938YOPE   C1B12397   9.984   9.484   7.347 -0.1999  0.5669 -0.0318
  938YOPE   C2B12398   9.891   9.217   7.710  0.1712 -0.0137  0.0239
  938YOPE   D3B12399   9.973   9.223   8.140  0.0984  0.2547 -0.2253
  938YOPE   C4B12400   9.966   9.548   8.436  0.0236 -0.1126 -0.2599
  939YOPE   NH312401   3.929  16.376   6.513 -0.0448  0.2933 -0.2986
  939YOPE   PO412402   3.728  16.029   6.631  0.2626 -0.1030 -0.4265
  939YOPE   GL112403   3.784  16.318   6.987 -0.1680  0.4169  0.0966
  939YOPE   GL212404   3.748  16.624   6.916  0.0204 -0.0306 -0.0417
  939YOPE   C1A12405   3.780  16.408   7.496  0.2974 -0.2871  0.0900
  939YOPE   D2A12406   3.979  16.420   7.797 -0.0788  0.0855 -0.2221
  939YOPE   C3A12407   4.126  16.141   8.117  0.2136  0.0098  0.3095
  939YOPE   C4A12408   4.288  15.964   8.465  0.2245  0.3476 -0.2476
  939YOPE   C1B12409   3.777  16.886   7.397  0.1620 -0.1112  0.3742
  939YOPE   C2B12410   3.810  16.832   7.794  0.1892 -0.3422  0.0299
  939YOPE   D3B12411   3.858  16.751   8.277  0.1873  0.1809  0.0408
  939YOPE   C4B12412   4.025  16.378   8.531 -0.4677  0.4841  0.2574
  940YOPE   NH312413   0.547  15.632   6.382 -0.1461  0.2458 -0.0419
  940YOPE   PO412414   0.461  14.991   6.296 -0.0600 -0.1808 -0.2478
  940YOPE   GL112415   0.586  14.731   6.721 -0.0868  0.4287  0.0797
  940YOPE   GL212416   0.359  14.459   6.878 -0.1945  0.2553  0.1775
  940YOPE   C1A12417   0.865  14.649   6.987  0.2265  0.2720 -0.1120
  940YOPE   D2A12418   1.151  14.794   7.220 -0.0811 -0.3023  0.1638
  940YOPE   C3A12419   1.385  14.477   7.315  0.0003  0.1170  0.3276
  940YOPE   C4A12420   1.353  14.118   7.440 -0.0126  0.1557  0.0653
  940YOPE   C1B12421   0.351  14.476   7.186  0.0283  0.2160  0.2801
  940YOPE   C2B12422   0.450  14.357   7.566  0.1357 -0.0292  0.1612
  940YOPE   D3B12423   0.456  14.393   8.012 -0.0237  0.3198  0.1697
  940YOPE   C4B12424   0.441  14.661   8.346  0.1209  0.0753 -0.0767
  941YOPE   NH312425  16.240   6.439   5.890 -0.1439  0.3010  0.0817
  941YOPE   PO412426  15.805   6.517   5.923 -0.0738 -0.0051  0.0375
  941YOPE   GL112427  15.653   6.429   6.320 -0.1620 -0.0072 -0.1793
  941YOPE   GL212428  15.503   6.752   6.447  0.2547 -0.2041  0.0311
  941YOPE   C1A12429  15.718   6.359   6.767  0.0848 -0.1805 -0.1124
  941YOPE   D2A12430  15.782   6.145   7.111  0.1562 -0.1362  0.2783
  941YOPE   C3A12431  15.525   6.066   7.462  0.2423 -0.0845  0.0726
  941YOPE   C4A12432  15.419   5.702   7.614  0.2329 -0.0612  0.3116
  941YOPE   C1B12433  15.488   6.987   6.861  0.1786 -0.1759 -0.1975
  941YOPE   C2B12434  15.286   6.936   7.171  0.0773 -0.2155  0.1334
  941YOPE   D3B12435  15.283   7.120   7.503 -0.3346 -0.2951 -0.0578
  941YOPE   C4B12436  15.455   7.053   7.950  0.2618 -0.1609 -0.0582
  942POPC   NC312437   2.791   8.869   5.957  0.0256 -0.4149  0.1549
  942POPC   PO412438   2.672   9.244   6.240  0.1113  0.1139 -0.2891
  942POPC   GL112439   2.959   9.383   6.561  0.1176  0.0448 -0.0973
  942POPC   GL212440   3.278   9.371   6.734  0.2340 -0.1130  0.0865
  942POPC   C1A12441   2.774   9.558   6.863  0.2857  0.4586 -0.0935
  942POPC   D2A12442   2.527   9.404   7.236 -0.0741 -0.2234 -0.0137
  942POPC   C3A12443   2.506   9.156   7.641  0.3258  0.1124  0.3297
  942POPC   C4A12444   2.481   9.004   8.066  0.1689  0.2650 -0.1635
  942POPC   C1B12445   3.217   9.429   7.084  0.2028 -0.0190  0.0614
  942POPC   C2B12446   3.154   9.415   7.501 -0.0474 -0.1614 -0.3567
  942POPC   C3B12447   3.323   9.284   7.878  0.0892 -0.1726  0.4393
  942POPC   C4B12448   3.270   9.415   8.322  0.0106  0.1693 -0.0293
  943POPC   NC312449   1.836   3.495   5.426  0.0316  0.2722  0.1661
  943POPC   PO412450   1.472   3.460   5.706 -0.0395  0.1741 -0.3343
  943POPC   GL112451   1.354   3.693   6.123 -0.0214 -0.3576  0.1711
  943POPC   GL212452   1.125   3.842   6.275 -0.0804  0.0517 -0.2205
  943POPC   C1A12453   1.539   4.135   6.343  0.1895  0.3562  0.0701
  943POPC   D2A12454   1.414   4.474   6.676  0.1508  0.2148  0.2513
  943POPC   C3A12455   1.660   4.455   6.980  0.0666 -0.2060 -0.0348
  943POPC   C4A12456   1.785   4.643   7.336  0.0585  0.4325  0.2133
  943POPC   C1B12457   1.125   4.058   6.707 -0.0581  0.0848  0.0051
  943POPC   C2B12458   1.304   4.140   7.031 -0.0206 -0.0051 -0.0390
  943POPC   C3B12459   1.238   4.120   7.368 -0.1766  0.0558 -0.1028
  943POPC   C4B12460   1.135   3.988   7.761  0.1463  0.2516  0.1969
  944POPC   NC312461   6.220   7.094   6.010 -0.0224 -0.1492 -0.0331
  944POPC   PO412462   6.585   7.292   6.149 -0.0848 -0.0927 -0.1641
  944POPC   GL112463   6.661   7.174   6.553 -0.1533  0.1604  0.0459
  944POPC   GL212464   6.950   7.008   6.446 -0.1194 -0.2026 -0.1465
  944POPC   C1A12465   6.456   7.141   6.938 -0.0601  0.3274 -0.3255
  944POPC   D2A12466   6.382   7.239   7.405  0.2371  0.0435 -0.1377
  944POPC   C3A12467   6.610   7.082   7.796 -0.3274 -0.0045 -0.0647
  944POPC   C4A12468   6.688   6.973   8.200  0.1130 -0.2118 -0.0611
  944POPC   C1B12469   6.988   6.976   6.973 -0.0777  0.0414  0.3565
  944POPC   C2B12470   6.955   6.978   7.466 -0.0193 -0.3077 -0.1129
  944POPC   C3B12471   7.126   6.852   7.865  0.2112 -0.1180  0.3057
  944POPC   C4B12472   7.219   6.782   8.217  0.1684  0.1765  0.0459
  945POPC   NC312473  15.129   3.962   5.588  0.1272  0.0145 -0.0097
  945POPC   PO412474  14.854   4.165   5.800  0.0298 -0.2002 -0.0070
  945POPC   GL112475  14.881   4.429   6.251  0.0151  0.0022 -0.0020
  945POPC   GL212476  15.137   4.338   6.359 -0.1472  0.0399  0.0772
  945POPC   C1A12477  14.801   4.432   6.747  0.3803 -0.0386  0.2889
  945POPC   D2A12478  14.855   4.550   7.199  0.0671 -0.0793 -0.0826
  945POPC   C3A12479  14.679   4.254   7.584  0.1220  0.0543 -0.1811
  945POPC   C4A12480  14.834   3.838   7.836 -0.0193  0.0817  0.1107
  945POPC   C1B12481  15.319   4.348   6.758  0.0215  0.0112  0.1458
  945POPC   C2B12482  15.682   4.303   7.067  0.2289  0.0832  0.1744
  945POPC   C3B12483  15.823   4.296   7.475 -0.1544 -0.0281  0.1242
  945POPC   C4B12484  15.636   4.241   7.917  0.0115 -0.1587  0.0992
  946POPC   NC312485  16.029   5.459   5.633  0.2285 -0.2392 -0.2894
  946POPC   PO412486  15.832   5.611   5.986 -0.0897  0.2339  0.0123
  946POPC   GL112487  16.059   5.519   6.249 -0.1546  0.1718  0.1592
  946POPC   GL212488  15.752   5.504   6.489 -0.1573 -0.3738 -0.0207
  946POPC   C1A12489  16.234   5.657   6.770  0.3389 -0.0942  0.1718
  946POPC   D2A12490  16.288   5.998   7.115  0.1019  0.3322  0.1749
  946POPC   C3A12491  16.388   5.808   7.477  0.1357 -0.4051  0.1438
  946POPC   C4A12492  16.361   5.604   7.941  0.0407  0.1365  0.1794
  946POPC   C1B12493  15.744   5.698   6.885 -0.1702  0.1979  0.0790
  946POPC   C2B12494  15.841   5.696   7.355 -0.1518 -0.3324 -0.1387
  946POPC   C3B12495  15.886   5.820   7.823 -0.2099 -0.0305 -0.0122
  946POPC   C4B12496  15.678   5.755   8.189  0.2097 -0.0169  0.1458
  947POPC   NC312497   6.717   6.294   5.921 -0.0146 -0.0216  0.1130
  947POPC   PO412498   6.291   6.094   5.841 -0.0435  0.0681  0.1392
  947POPC   GL112499   6.220   6.183   6.267  0.1548  0.0678  0.2163
  947POPC   GL212500   6.262   6.452   6.295 -0.3143 -0.0898  0.4110
  947POPC   C1A12501   6.382   6.082   6.725  0.2306  0.1322  0.1504
  947POPC   D2A12502   6.265   5.780   7.003  0.1523  0.1387  0.1691
  947POPC   C3A12503   6.369   5.830   7.435 -0.2114  0.2026  0.0504
  947POPC   C4A12504   6.064   5.756   7.838 -0.0076  0.1713  0.2216
  947POPC   C1B12505   6.508   6.619   6.559  0.0298  0.2175  0.3117
  947POPC   C2B12506   6.516   6.641   7.021 -0.0602  0.0517  0.0311
  947POPC   C3B12507   6.556   6.707   7.503  0.2739  0.0507 -0.1145
  947POPC   C4B12508   6.691   6.569   7.895  0.0103 -0.1370  0.4598
  948POPC   NC312509  12.804   0.321   6.172 -0.0355  0.0480  0.0194
  948POPC   PO412510  13.212   0.130   6.029 -0.0248 -0.0245 -0.0164
  948POPC   GL112511  13.287   0.339   6.432  0.2104  0.1387  0.1912
  948POPC   GL212512  13.430   0.110   6.609 -0.1976  0.0300  0.0601
  948POPC   C1A12513  13.275   0.458   6.859  0.1828 -0.1683 -0.2143
  948POPC   D2A12514  13.041   0.433   7.249  0.1149 -0.2337  0.0960
  948POPC   C3A12515  12.868  -0.018   7.379 -0.1371 -0.1100 -0.0780
  948POPC   C4A12516  12.564  -0.155   7.739  0.1058  0.1061  0.0751
  948POPC   C1B12517  13.636   0.097   6.992 -0.1657  0.1132  0.1869
  948POPC   C2B12518  13.559   0.068   7.366 -0.2685  0.1296 -0.0587
  948POPC   C3B12519  13.359   0.159   7.731 -0.1292 -0.3379  0.3602
  948POPC   C4B12520  12.966   0.194   7.941  0.1985  0.2370 -0.0453
  949POPC   NC312521   6.286  13.582   6.177 -0.1473 -0.0245 -0.1212
  949POPC   PO412522   6.600  13.371   6.259 -0.0987  0.0244  0.2807
  949POPC   GL112523   6.800  13.317   6.577  0.0647 -0.1563 -0.1481
  949POPC   GL212524   6.797  13.006   6.655  0.1788 -0.1166  0.1243
  949POPC   C1A12525   6.927  13.300   7.061  0.1212 -0.1939 -0.1901
  949POPC   D2A12526   6.873  13.097   7.432  0.1150  0.0990  0.2650
  949POPC   C3A12527   6.796  13.249   7.830 -0.0534 -0.1047  0.2234
  949POPC   C4A12528   6.741  13.508   8.141 -0.4226 -0.0461 -0.1138
  949POPC   C1B12529   6.587  12.910   7.058  0.1237  0.0374 -0.1479
  949POPC   C2B12530   6.377  13.023   7.528  0.0672 -0.1425  0.3231
  949POPC   C3B12531   6.182  12.970   7.839 -0.1530  0.0271 -0.1479
  949POPC   C4B12532   6.034  13.238   8.205  0.2965  0.1004 -0.0507
  950POPC   NC312533  15.084   0.540   6.016  0.0445 -0.0576  0.1233
  950POPC   PO412534  14.821   0.813   5.973 -0.3496  0.0438  0.1685
  950POPC   GL112535  14.908   0.909   6.436  0.0844  0.1408  0.3008
  950POPC   GL212536  14.812   1.167   6.557  0.1068  0.1134 -0.0386
  950POPC   C1A12537  15.011   0.706   6.783 -0.3656  0.0161  0.1992
  950POPC   D2A12538  14.884   0.636   7.152 -0.3304 -0.0779 -0.0480
  950POPC   C3A12539  15.000   0.774   7.462  0.1940 -0.0472 -0.0332
  950POPC   C4A12540  14.977   0.967   7.856  0.0644  0.1706 -0.4123
  950POPC   C1B12541  14.766   1.065   7.047  0.3133  0.0085  0.2306
  950POPC   C2B12542  14.775   1.189   7.503 -0.3665 -0.2231  0.1472
  950POPC   C3B12543  14.771   1.402   7.914 -0.0624  0.1686  0.2380
  950POPC   C4B12544  14.794   1.508   8.294 -0.0951  0.1281  0.0640
  951POPC   NC312545   8.819   1.707   6.334  0.0199 -0.0867 -0.0743
  951POPC   PO412546   8.558   1.422   6.069  0.3685 -0.0234  0.0952
  951POPC   GL112547   8.461   1.437   6.511  0.0461  0.1696 -0.3272
  951POPC   GL212548   8.767   1.290   6.666 -0.0616 -0.2049 -0.2328
  951POPC   C1A12549   8.445   1.701   6.928  0.4221 -0.0079 -0.2096
  951POPC   D2A12550   8.485   1.712   7.322 -0.0587  0.0186 -0.0747
  951POPC   C3A12551   8.816   1.837   7.566  0.0314  0.0758 -0.1762
  951POPC   C4A12552   9.105   2.008   7.796 -0.2388 -0.0133  0.1167
  951POPC   C1B12553   8.786   1.342   7.139 -0.3173  0.1311  0.2873
  951POPC   C2B12554   8.670   1.358   7.605  0.5535 -0.0693 -0.1726
  951POPC   C3B12555   8.508   1.270   7.997  0.1374 -0.1780  0.1896
  951POPC   C4B12556   8.300   1.487   8.329  0.0820 -0.2571  0.3213
  952POPC   NC312557  10.377   6.501   5.325 -0.0509 -0.3049  0.1058
  952POPC   PO412558  10.299   6.521   5.732  0.1404 -0.2276  0.0518
  952POPC   GL112559  10.103   6.439   6.112  0.1087 -0.0008 -0.0456
  952POPC   GL212560   9.963   6.685   6.266  0.2331  0.0734  0.2792
  952POPC   C1A12561   9.849   6.216   6.435  0.1854 -0.0395  0.0762
  952POPC   D2A12562   9.565   6.519   6.511  0.1294 -0.3351 -0.0871
  952POPC   C3A12563   9.323   6.509   6.831  0.0793 -0.1082 -0.0522
  952POPC   C4A12564   9.119   6.213   7.041  0.0252 -0.1071 -0.0998
  952POPC   C1B12565   9.962   6.577   6.799  0.1302  0.1949  0.1556
  952POPC   C2B12566  10.006   6.508   7.205 -0.1816 -0.2339 -0.3937
  952POPC   C3B12567  10.279   6.307   7.525 -0.1008  0.1770  0.1032
  952POPC   C4B12568  10.360   5.885   7.578 -0.0922 -0.1317  0.4099
  953POPC   NC312569   9.886   4.017   6.009 -0.1335  0.0379 -0.4071
  953POPC   PO412570   9.490   4.028   5.691 -0.0196 -0.1091 -0.0647
  953POPC   GL112571   9.388   4.209   6.096 -0.1022 -0.1975 -0.2829
  953POPC   GL212572   9.643   4.448   6.178 -0.1881  0.1185 -0.3060
  953POPC   C1A12573   9.193   4.288   6.362 -0.0578 -0.0878  0.2296
  953POPC   D2A12574   9.166   3.828   6.465  0.2176 -0.2599 -0.2155
  953POPC   C3A12575   9.194   3.730   6.832  0.2467  0.0029  0.0039
  953POPC   C4A12576   9.353   3.752   7.260 -0.1265 -0.0439 -0.1323
  953POPC   C1B12577   9.674   4.373   6.669  0.2020  0.2709  0.3552
  953POPC   C2B12578   9.384   4.242   6.987 -0.2981 -0.1230 -0.0463
  953POPC   C3B12579   9.347   4.349   7.451 -0.4061  0.1384 -0.1417
  953POPC   C4B12580   9.354   4.712   7.737 -0.2533 -0.2726 -0.0829
  954POPC   NC312581   3.255   1.029   6.307 -0.0160  0.0657  0.0360
  954POPC   PO412582   2.814   1.354   6.258  0.3064  0.0203  0.3386
  954POPC   GL112583   2.789   1.187   6.617 -0.1203 -0.0363  0.3991
  954POPC   GL212584   3.054   1.295   6.736 -0.1838  0.2756  0.1821
  954POPC   C1A12585   2.743   1.190   7.101  0.1048  0.1051 -0.2395
  954POPC   D2A12586   2.904   1.081   7.467 -0.1797  0.0020  0.2279
  954POPC   C3A12587   2.862   1.089   7.858  0.0184  0.0312 -0.4727
  954POPC   C4A12588   2.651   1.073   8.234  0.1569  0.2898 -0.0620
  954POPC   C1B12589   3.122   1.469   7.097 -0.0872 -0.0444  0.1737
  954POPC   C2B12590   3.098   1.534   7.468  0.0498 -0.4113  0.0542
  954POPC   C3B12591   3.318   1.659   7.927 -0.0482  0.3380  0.3820
  954POPC   C4B12592   3.511   1.977   8.108 -0.2383 -0.0828 -0.3134
  955POPC   NC312593  16.189   0.876   5.563  0.2208  0.1649 -0.0394
  955POPC   PO412594  15.901   0.993   5.935  0.2697 -0.0159 -0.0436
  955POPC   GL112595  15.946   1.039   6.306 -0.0987  0.1582  0.0609
  955POPC   GL212596  15.806   1.294   6.420  0.2541  0.0101  0.1485
  955POPC   C1A12597  15.909   1.022   6.835  0.3642  0.0012  0.3028
  955POPC   D2A12598  15.935   1.038   7.264  0.3580  0.2246 -0.0097
  955POPC   C3A12599  15.903   0.634   7.504  0.0327  0.2593  0.2045
  955POPC   C4A12600  15.603   0.219   7.467 -0.2841 -0.2038 -0.0606
  955POPC   C1B12601  15.832   1.526   6.855  0.1469 -0.2390 -0.0153
  955POPC   C2B12602  15.998   1.887   7.066 -0.0825  0.1113 -0.0460
  955POPC   C3B12603  16.070   1.993   7.489  0.0941  0.1512 -0.1531
  955POPC   C4B12604  16.209   1.831   7.953 -0.1722 -0.3032 -0.0630
  956POPC   NC312605  11.175   3.498   6.283 -0.2481  0.1137  0.1508
  956POPC   PO412606  10.780   3.571   5.993  0.1035  0.1417  0.3103
  956POPC   GL112607  10.657   3.392   6.422 -0.0302 -0.0190 -0.0883
  956POPC   GL212608  10.361   3.305   6.382 -0.1139 -0.0781 -0.0979
  956POPC   C1A12609  10.703   3.441   6.859 -0.1224  0.6262  0.2524
  956POPC   D2A12610  10.548   3.499   7.202  0.0757 -0.0020 -0.0734
  956POPC   C3A12611  10.556   3.512   7.641 -0.0821 -0.0914  0.1580
  956POPC   C4A12612  10.688   3.718   8.095 -0.1892 -0.3390 -0.4056
  956POPC   C1B12613  10.192   3.253   6.673 -0.2941 -0.0648  0.1126
  956POPC   C2B12614  10.077   3.259   7.080 -0.2372 -0.0874  0.2091
  956POPC   C3B12615   9.850   3.162   7.421 -0.3830  0.2851  0.2808
  956POPC   C4B12616   9.792   3.260   7.853 -0.0601 -0.0025 -0.2216
  957POPC   NC312617  14.618  16.068   5.834  0.0138  0.0338  0.1110
  957POPC   PO412618  14.327  15.822   6.041  0.0578 -0.0064 -0.1278
  957POPC   GL112619  14.540  15.801   6.352  0.0822 -0.0303  0.0246
  957POPC   GL212620  14.607  15.417   6.608  0.0720  0.1148 -0.0887
  957POPC   C1A12621  14.416  16.033   6.684 -0.2793  0.0592  0.0282
  957POPC   D2A12622  14.204  16.077   7.075 -0.1075 -0.1345  0.2065
  957POPC   C3A12623  14.369  16.048   7.431 -0.0510 -0.0265  0.0600
  957POPC   C4A12624  14.274  15.757   7.718  0.1364 -0.1771  0.0865
  957POPC   C1B12625  14.598  15.526   7.088 -0.3116 -0.1077  0.0200
  957POPC   C2B12626  14.662  15.468   7.498  0.0708 -0.0712 -0.0153
  957POPC   C3B12627  14.718  15.615   7.859  0.0940 -0.0686  0.0859
  957POPC   C4B12628  14.659  15.734   8.359 -0.0890  0.0090 -0.1675
  958POPC   NC312629   2.590   1.879   6.162 -0.2436  0.0480  0.2996
  958POPC   PO412630   2.906   2.254   6.124 -0.0959 -0.2520 -0.2583
  958POPC   GL112631   2.810   2.374   6.516 -0.1801 -0.0329 -0.1548
  958POPC   GL212632   2.646   2.171   6.618 -0.0917  0.0361  0.3636
  958POPC   C1A12633   2.870   2.586   6.883 -0.0662 -0.0294  0.0249
  958POPC   D2A12634   2.777   2.872   7.220 -0.2019  0.0992  0.0762
  958POPC   C3A12635   2.754   2.715   7.620 -0.0870  0.2351 -0.1610
  958POPC   C4A12636   2.711   2.364   7.959 -0.1106 -0.1482  0.1470
  958POPC   C1B12637   2.540   2.168   7.066  0.2453 -0.1618 -0.0244
  958POPC   C2B12638   2.503   2.263   7.486 -0.4058 -0.0388 -0.0714
  958POPC   C3B12639   2.397   1.970   7.824  0.0123  0.1961 -0.0866
  958POPC   C4B12640   2.391   2.064   8.235  0.2862  0.0658 -0.0182
  959POPC   NC312641  11.882   2.859   5.944 -0.0807  0.0754  0.1381
  959POPC   PO412642  11.519   3.180   6.088  0.0830  0.1718 -0.1267
  959POPC   GL112643  11.467   3.045   6.413  0.1319 -0.1417  0.2232
  959POPC   GL212644  11.129   3.071   6.533 -0.0358 -0.0531  0.2295
  959POPC   C1A12645  11.588   3.272   6.755  0.0503 -0.0414 -0.1172
  959POPC   D2A12646  11.537   3.428   7.204 -0.3116 -0.0770  0.1558
  959POPC   C3A12647  11.411   3.258   7.600  0.0586  0.0573 -0.1007
  959POPC   C4A12648  11.267   2.928   7.991 -0.1204 -0.0419 -0.5297
  959POPC   C1B12649  11.085   3.156   6.992 -0.3552 -0.1958 -0.1363
  959POPC   C2B12650  11.043   3.473   7.311 -0.1916  0.0203 -0.1568
  959POPC   C3B12651  11.118   3.678   7.740  0.1485  0.1825  0.1438
  959POPC   C4B12652  11.265   3.928   8.032 -0.1591  0.1097  0.2612
  960POPC   NC312653   2.977  11.923   6.256 -0.0804  0.1888 -0.1213
  960POPC   PO412654   3.402  11.848   6.577 -0.0217  0.3216 -0.0165
  960POPC   GL112655   3.375  12.152   6.896  0.0247  0.1188 -0.3070
  960POPC   GL212656   3.399  11.888   7.140 -0.0760 -0.0488  0.1194
  960POPC   C1A12657   3.686  12.286   7.118 -0.1310 -0.1162  0.2469
  960POPC   D2A12658   3.828  12.315   7.539 -0.1240  0.0471  0.0187
  960POPC   C3A12659   3.768  12.214   7.920  0.1331 -0.0879 -0.0859
  960POPC   C4A12660   3.848  12.006   8.215  0.0808  0.3766  0.0569
  960POPC   C1B12661   3.466  11.960   7.546  0.0013  0.0053 -0.1250
  960POPC   C2B12662   3.457  11.718   7.915 -0.1228 -0.0193  0.0746
  960POPC   C3B12663   3.391  11.720   8.354 -0.0426 -0.1849 -0.2847
  960POPC   C4B12664   3.468  11.323   8.665  0.1740  0.0570 -0.1385
  961POPC   NC312665  11.238  11.777   6.103 -0.0616 -0.0529  0.1688
  961POPC   PO412666  11.083  12.179   6.338  0.0358  0.3551  0.1021
  961POPC   GL112667  11.020  12.330   6.788 -0.0459 -0.0122 -0.0756
  961POPC   GL212668  11.186  12.114   6.891  0.3815 -0.0560 -0.0194
  961POPC   C1A12669  11.001  12.253   7.293  0.0178 -0.2719 -0.0584
  961POPC   D2A12670  11.185  12.275   7.694 -0.0446  0.2116  0.0968
  961POPC   C3A12671  11.098  12.559   8.083  0.1985  0.2322 -0.1492
  961POPC   C4A12672  10.845  12.543   8.469  0.0900  0.0158  0.3454
  961POPC   C1B12673  11.004  11.795   7.142 -0.1540 -0.1625  0.4487
  961POPC   C2B12674  10.595  11.591   7.354  0.0834  0.1777  0.0651
  961POPC   C3B12675  10.319  11.483   7.756 -0.1226  0.1175  0.1597
  961POPC   C4B12676  10.320  11.148   8.019  0.0080 -0.0048 -0.0128
  962POPC   NC312677   6.636   1.291   6.371  0.2489 -0.1439  0.2708
  962POPC   PO412678   6.480   1.146   6.625  0.1506 -0.0716  0.1856
  962POPC   GL112679   6.517   1.097   7.042  0.1208 -0.0930 -0.0605
  962POPC   GL212680   6.698   0.810   7.105 -0.0979  0.2327 -0.0569
  962POPC   C1A12681   6.261   1.266   7.400 -0.1486  0.1782 -0.3486
  962POPC   D2A12682   6.350   1.464   7.768 -0.1367  0.0263 -0.0351
  962POPC   C3A12683   6.575   1.287   8.118  0.0799  0.1763 -0.1479
  962POPC   C4A12684   6.853   1.236   8.512  0.1026 -0.4209 -0.1894
  962POPC   C1B12685   6.612   0.910   7.529 -0.0685  0.0611  0.1245
  962POPC   C2B12686   6.585   0.856   7.927 -0.1923  0.1567  0.0505
  962POPC   C3B12687   6.613   0.813   8.316 -0.0258 -0.1727 -0.1150
  962POPC   C4B12688   6.785   0.737   8.630 -0.0176 -0.2335 -0.1403
  963POPC   NC312689   2.847   4.403   5.639  0.1768 -0.1502  0.1306
  963POPC   PO412690   2.602   4.732   5.830  0.3042 -0.0110 -0.0473
  963POPC   GL112691   2.502   4.690   6.213 -0.2889  0.0110  0.1317
  963POPC   GL212692   2.763   4.839   6.400  0.0725  0.0134  0.0941
  963POPC   C1A12693   2.415   4.502   6.574 -0.3363  0.0982  0.4893
  963POPC   D2A12694   2.496   4.160   6.794  0.0542  0.0190  0.3312
  963POPC   C3A12695   2.853   4.076   6.810 -0.3027  0.0824 -0.0287
  963POPC   C4A12696   3.189   3.927   6.440 -0.0764  0.0411 -0.2672
  963POPC   C1B12697   2.893   5.109   6.758  0.0422  0.1947 -0.1701
  963POPC   C2B12698   3.049   5.142   7.157  0.3156 -0.1808 -0.0210
  963POPC   C3B12699   3.040   5.233   7.595  0.0272  0.2891  0.2404
  963POPC   C4B12700   2.985   5.618   7.765  0.1073  0.0811 -0.2810
  964POPC   NC312701   3.694  14.406   6.354 -0.1133 -0.0119 -0.2005
  964POPC   PO412702   4.028  14.747   6.155 -0.3667 -0.0899 -0.0506
  964POPC   GL112703   4.094  14.751   6.566  0.2820  0.1725  0.0428
  964POPC   GL212704   4.315  14.664   6.904  0.0215  0.0380 -0.0659
  964POPC   C1A12705   4.239  15.144   6.906 -0.0022  0.0113 -0.1003
  964POPC   D2A12706   4.214  15.427   7.346 -0.0260  0.0395 -0.0909
  964POPC   C3A12707   4.213  15.176   7.685 -0.1635  0.0195 -0.0359
  964POPC   C4A12708   4.121  15.194   8.092 -0.5084  0.2105  0.1030
  964POPC   C1B12709   4.204  14.722   7.304 -0.0803 -0.0288 -0.2746
  964POPC   C2B12710   4.185  14.630   7.745 -0.0863 -0.1610 -0.1465
  964POPC   C3B12711   3.882  14.560   7.897  0.1295 -0.1269  0.1455
  964POPC   C4B12712   3.575  14.568   8.259  0.0059  0.1639 -0.2399
  965POPC   NC312713   1.060   4.111   5.770 -0.0220  0.0470  0.2266
  965POPC   PO412714   0.741   4.488   5.523  0.1474  0.0119  0.1364
  965POPC   GL112715   0.655   4.423   6.045 -0.1900  0.0612  0.2481
  965POPC   GL212716   0.841   4.224   6.220 -0.0540 -0.4392  0.0063
  965POPC   C1A12717   0.503   4.706   6.349 -0.0423 -0.1529 -0.5323
  965POPC   D2A12718   0.399   4.872   6.748  0.1864 -0.1386  0.1246
  965POPC   C3A12719   0.620   4.869   7.141 -0.0338  0.3006 -0.1385
  965POPC   C4A12720   0.521   4.825   7.642 -0.2059 -0.2243 -0.3429
  965POPC   C1B12721   1.064   4.622   6.399  0.1841 -0.0795  0.2925
  965POPC   C2B12722   0.994   4.657   6.825 -0.0609  0.1767  0.0601
  965POPC   C3B12723   1.158   4.573   7.207 -0.0208  0.1060  0.1883
  965POPC   C4B12724   1.394   4.580   7.627  0.0100 -0.1031 -0.2533
  966POPC   NC312725  15.886   9.015   5.841  0.2697 -0.2070 -0.1802
  966POPC   PO412726  15.705   8.554   5.982  0.0069 -0.0886  0.0380
  966POPC   GL112727  15.773   8.586   6.397  0.0916 -0.1889  0.0775
  966POPC   GL212728  15.496   8.525   6.489  0.0712 -0.1635  0.0648
  966POPC   C1A12729  15.915   8.661   6.849  0.0450 -0.1619 -0.0377
  966POPC   D2A12730  16.007   8.619   7.248  0.1046  0.2362  0.1572
  966POPC   C3A12731  16.025   8.769   7.657 -0.1265  0.1555 -0.0082
  966POPC   C4A12732  16.216   8.904   7.992 -0.1140  0.1738 -0.2286
  966POPC   C1B12733  15.399   8.583   6.935 -0.3287  0.3086  0.0548
  966POPC   C2B12734  15.134   8.430   7.262 -0.1245 -0.1828  0.3412
  966POPC   C3B12735  14.873   8.193   7.560  0.0246 -0.2895  0.1724
  966POPC   C4B12736  14.767   8.187   8.060 -0.3291 -0.1832 -0.3638
  967POPC   NC312737  17.072   0.821   5.613 -0.0625 -0.1210  0.0974
  967POPC   PO412738  16.836   0.696   5.882 -0.4615 -0.0369  0.0266
  967POPC   GL112739  16.803   0.699   6.300  0.4379 -0.1138 -0.3398
  967POPC   GL212740  16.782   0.430   6.511 -0.0926 -0.0810 -0.3152
  967POPC   C1A12741  16.659   0.893   6.761  0.0806  0.2519 -0.2652
  967POPC   D2A12742  16.709   0.957   7.162 -0.0424 -0.1421 -0.2162
  967POPC   C3A12743  16.854   1.055   7.433 -0.0155 -0.2679 -0.1972
  967POPC   C4A12744  16.832   1.354   7.813 -0.0248 -0.1082  0.2588
  967POPC   C1B12745  16.700   0.416   6.982  0.3020 -0.2634  0.3560
  967POPC   C2B12746  16.564   0.407   7.458 -0.1254 -0.1165 -0.3656
  967POPC   C3B12747  16.317   0.397   7.806  0.0719 -0.2386  0.0225
  967POPC   C4B12748  16.391   0.304   8.189  0.1316 -0.0051  0.0262
  968POPC   NC312749  11.745  15.578   6.092  0.2730  0.0466 -0.1264
  968POPC   PO412750  11.349  15.371   6.240 -0.1759  0.2480 -0.0770
  968POPC   GL112751  11.192  15.249   6.616  0.0577 -0.0776  0.2540
  968POPC   GL212752  11.198  14.923   6.697  0.4615  0.1592 -0.1670
  968POPC   C1A12753  10.888  15.318   6.998 -0.3820 -0.1632 -0.1281
  968POPC   D2A12754  10.650  15.242   7.391  0.0492 -0.0413 -0.4160
  968POPC   C3A12755  10.191  15.282   7.443  0.0324 -0.1162  0.1010
  968POPC   C4A12756   9.672  15.216   7.472  0.0904  0.0930  0.1256
  968POPC   C1B12757  11.348  15.063   7.058 -0.2102 -0.1278 -0.0365
  968POPC   C2B12758  11.279  15.183   7.436  0.2584 -0.2315  0.3131
  968POPC   C3B12759  11.185  15.044   7.800  0.0961  0.1495 -0.2912
  968POPC   C4B12760  11.260  15.025   8.141  0.1403 -0.2679  0.1381
  969POPC   NC312761   5.972   3.708   5.382 -0.0007  0.1160  0.0702
  969POPC   PO412762   6.006   4.203   5.446 -0.0126  0.0303  0.0277
  969POPC   GL112763   6.090   4.105   5.863  0.1496  0.0053 -0.0391
  969POPC   GL212764   6.377   4.144   6.040 -0.0822 -0.1555  0.1585
  969POPC   C1A12765   5.830   3.922   6.221 -0.1632 -0.0863  0.1297
  969POPC   D2A12766   5.628   4.062   6.574 -0.1862  0.3175  0.0480
  969POPC   C3A12767   5.608   3.807   6.930 -0.1142 -0.1891 -0.2484
  969POPC   C4A12768   5.676   3.538   7.316 -0.2973  0.1849  0.0921
  969POPC   C1B12769   6.381   4.535   6.358  0.2441 -0.3796 -0.0072
  969POPC   C2B12770   6.342   4.679   6.708 -0.2866 -0.0219  0.1263
  969POPC   C3B12771   6.399   4.466   7.169  0.1888  0.0441  0.0045
  969POPC   C4B12772   6.029   4.550   7.514 -0.1337 -0.0641  0.0931
  970POPC   NC312773   0.421   7.914   5.820  0.2123 -0.0413 -0.3833
  970POPC   PO412774   0.534   7.501   5.836  0.0257  0.0451 -0.1479
  970POPC   GL112775   0.222   7.520   6.246  0.2785 -0.3855 -0.3472
  970POPC   GL212776  -0.057   7.598   6.299 -0.0922 -0.1331  0.0100
  970POPC   C1A12777   0.282   7.543   6.706 -0.2922  0.0002  0.0130
  970POPC   D2A12778   0.253   7.560   7.219  0.1815 -0.0428  0.2454
  970POPC   C3A12779   0.398   7.443   7.674  0.1829  0.0539  0.1194
  970POPC   C4A12780   0.374   7.251   7.953 -0.1919  0.1800 -0.1405
  970POPC   C1B12781  -0.205   7.776   6.533  0.3095 -0.2190  0.1937
  970POPC   C2B12782  -0.241   7.731   6.948 -0.0573  0.2875  0.1150
  970POPC   C3B12783  -0.420   7.528   7.300  0.2733  0.1148 -0.0299
  970POPC   C4B12784  -0.465   7.302   7.733 -0.2269  0.0300 -0.1815
  971POPC   NC312785   3.190   6.686   5.996 -0.2492 -0.0312  0.3991
  971POPC   PO412786   3.038   7.104   6.059 -0.0132 -0.0789  0.1525
  971POPC   GL112787   3.232   7.060   6.381  0.3692  0.3589  0.0675
  971POPC   GL212788   3.535   6.806   6.328 -0.1554 -0.0756 -0.3512
  971POPC   C1A12789   3.472   7.191   6.689  0.0994 -0.0572 -0.0178
  971POPC   D2A12790   3.589   7.299   7.147  0.1419 -0.1210  0.1860
  971POPC   C3A12791   3.422   7.132   7.464 -0.1104  0.1739  0.5269
  971POPC   C4A12792   3.176   7.247   7.658  0.1570 -0.0570  0.0311
  971POPC   C1B12793   3.344   6.654   6.617  0.1838  0.3319 -0.1579
  971POPC   C2B12794   3.313   6.593   7.112  0.1760  0.0884 -0.0604
  971POPC   C3B12795   3.498   6.544   7.521  0.1550  0.0086  0.0744
  971POPC   C4B12796   3.830   6.418   7.928  0.0997  0.0031 -0.1075
  972POPC   NC312797   8.258  11.377   6.179  0.1245  0.0232  0.1866
  972POPC   PO412798   8.754  11.383   6.140 -0.1686 -0.0944 -0.1923
  972POPC   GL112799   8.751  11.398   6.543  0.4515 -0.0877  0.1206
  972POPC   GL212800   9.062  11.214   6.633  0.3224  0.1761  0.0240
  972POPC   C1A12801   8.495  11.410   6.831  0.1424  0.1101  0.1887
  972POPC   D2A12802   8.562  11.489   7.279  0.2481 -0.0020  0.0847
  972POPC   C3A12803   8.821  11.494   7.600 -0.1615  0.1282 -0.0141
  972POPC   C4A12804   8.918  11.427   8.048  0.5882  0.1449 -0.0119
  972POPC   C1B12805   9.318  11.490   6.600  0.0562 -0.0489  0.3069
  972POPC   C2B12806   9.399  11.708   6.927  0.1427  0.0804 -0.4340
  972POPC   C3B12807   9.336  11.594   7.383 -0.2014 -0.0523  0.2976
  972POPC   C4B12808   9.261  11.748   7.805 -0.0277  0.1776  0.0721
  973POPC   NC312809   2.411  13.500   5.897  0.2452 -0.0165 -0.1288
  973POPC   PO412810   2.711  13.186   6.221 -0.2324  0.2745  0.0079
  973POPC   GL112811   2.937  13.061   6.644  0.0436  0.1306 -0.0982
  973POPC   GL212812   2.599  13.050   6.805 -0.2138  0.0536  0.0183
  973POPC   C1A12813   3.083  13.127   7.050  0.1721 -0.0790 -0.0563
  973POPC   D2A12814   3.029  13.133   7.494 -0.0118 -0.2004 -0.2948
  973POPC   C3A12815   3.094  13.546   7.686  0.2159 -0.0201  0.1321
  973POPC   C4A12816   3.228  14.006   7.902  0.0016  0.1390 -0.2198
  973POPC   C1B12817   2.550  13.152   7.324  0.1036  0.1629 -0.4413
  973POPC   C2B12818   2.510  13.139   7.748  0.0030  0.0996 -0.1201
  973POPC   C3B12819   2.556  12.848   8.077 -0.1250 -0.4618 -0.3822
  973POPC   C4B12820   2.520  12.419   8.288 -0.1771  0.0923 -0.0928
  974POPC   NC312821  12.351  11.278   6.184  0.0250  0.0312 -0.0250
  974POPC   PO412822  12.000  11.202   6.058 -0.0588  0.1733  0.2158
  974POPC   GL112823  11.871  11.317   6.440  0.3759 -0.0287 -0.0947
  974POPC   GL212824  11.508  11.241   6.491  0.1057  0.0290 -0.1179
  974POPC   C1A12825  11.945  11.466   6.790 -0.0347 -0.0275 -0.1201
  974POPC   D2A12826  12.152  11.710   6.956 -0.0554  0.0593  0.0878
  974POPC   C3A12827  12.497  11.916   6.806 -0.1259  0.0973 -0.2446
  974POPC   C4A12828  12.884  12.112   6.715 -0.1077  0.1267  0.0081
  974POPC   C1B12829  11.521  11.292   6.970 -0.0841 -0.0316 -0.0829
  974POPC   C2B12830  11.555  11.421   7.389  0.0006 -0.2387  0.1344
  974POPC   C3B12831  11.689  11.637   7.732 -0.0172  0.0143  0.1243
  974POPC   C4B12832  12.068  11.745   7.968  0.0324  0.1304 -0.1442
  975POPC   NC312833   4.419   3.634   5.958 -0.1292 -0.2395 -0.1453
  975POPC   PO412834   4.739   3.437   5.722 -0.1201 -0.1734  0.3373
  975POPC   GL112835   4.934   3.387   6.152 -0.1808 -0.0824 -0.1473
  975POPC   GL212836   4.777   3.613   6.331  0.0201 -0.1125 -0.2585
  975POPC   C1A12837   5.002   3.228   6.631 -0.1535  0.0376  0.0283
  975POPC   D2A12838   5.252   2.907   6.748  0.1794  0.0570  0.2745
  975POPC   C3A12839   5.284   2.757   7.156 -0.0154 -0.3582 -0.1764
  975POPC   C4A12840   5.304   2.649   7.494  0.0656 -0.1535 -0.1727
  975POPC   C1B12841   4.656   3.625   6.794 -0.3248 -0.1705  0.2127
  975POPC   C2B12842   4.553   3.590   7.237 -0.3066 -0.1971  0.1410
  975POPC   C3B12843   4.361   3.575   7.652 -0.0015  0.0882  0.1539
  975POPC   C4B12844   4.305   3.885   8.032  0.1078  0.2057  0.1477
  976POPC   NC312845   7.109   7.043   5.927  0.2448  0.0343  0.2414
  976POPC   PO412846   7.207   6.568   5.856  0.2061 -0.2328  0.0496
  976POPC   GL112847   7.023   6.555   6.299 -0.2416 -0.0773  0.3870
  976POPC   GL212848   6.915   6.261   6.403 -0.2587 -0.0250 -0.0988
  976POPC   C1A12849   7.162   6.649   6.696  0.1102  0.1077  0.0255
  976POPC   D2A12850   7.482   6.664   6.930  0.2562 -0.1148  0.1432
  976POPC   C3A12851   7.396   6.809   7.272  0.1009  0.0320  0.0261
  976POPC   C4A12852   7.617   6.768   7.622  0.2047  0.1196  0.0220
  976POPC   C1B12853   6.874   6.207   6.836 -0.0971  0.1398  0.3888
  976POPC   C2B12854   7.058   6.420   7.181 -0.0975  0.0066 -0.1193
  976POPC   C3B12855   7.277   6.442   7.532 -0.1118 -0.1673 -0.1167
  976POPC   C4B12856   7.484   6.401   7.966  0.1587  0.0375  0.0080
  977POPC   NC312857  14.825   7.181   5.388  0.2450 -0.2213 -0.0761
  977POPC   PO412858  15.191   7.254   5.474  0.2268 -0.2837 -0.3399
  977POPC   GL112859  14.926   7.337   5.828  0.0759 -0.0313  0.0381
  977POPC   GL212860  14.979   7.669   6.065  0.0171 -0.1868 -0.0976
  977POPC   C1A12861  14.987   7.097   6.252  0.1295 -0.0150 -0.3711
  977POPC   D2A12862  14.895   6.839   6.584  0.0271 -0.2224  0.3829
  977POPC   C3A12863  14.787   6.789   6.944 -0.0257  0.0383 -0.0430
  977POPC   C4A12864  14.822   6.898   7.338  0.1251  0.0593 -0.3439
  977POPC   C1B12865  14.912   7.579   6.454  0.0874  0.0406 -0.0328
  977POPC   C2B12866  14.807   7.686   6.858  0.0523 -0.3014 -0.1325
  977POPC   C3B12867  14.668   7.792   7.228  0.0705 -0.2255 -0.1618
  977POPC   C4B12868  14.435   7.935   7.673  0.1300  0.0700 -0.1409
  978POPC   NC312869  10.917   9.481   6.382  0.4475  0.1305 -0.1882
  978POPC   PO412870  11.391   9.369   6.485 -0.2599  0.0694 -0.0677
  978POPC   GL112871  11.345   9.667   6.741 -0.1924  0.0047 -0.0454
  978POPC   GL212872  11.384   9.557   6.981  0.0467 -0.1097 -0.1137
  978POPC   C1A12873  11.301  10.000   7.081  0.5169 -0.0349  0.4186
  978POPC   D2A12874  11.238  10.068   7.479  0.0081 -0.0276  0.0164
  978POPC   C3A12875  11.186  10.159   7.910 -0.2002 -0.2684 -0.1441
  978POPC   C4A12876  11.339   9.827   8.194 -0.0490 -0.0839 -0.1228
  978POPC   C1B12877  11.262   9.596   7.383 -0.2976  0.1138  0.1333
  978POPC   C2B12878  11.111   9.567   7.717  0.1014  0.1077 -0.2228
  978POPC   C3B12879  10.869   9.763   7.998 -0.0299  0.1713 -0.3339
  978POPC   C4B12880  10.795   9.955   8.320  0.1182 -0.0850  0.2591
  979POPC   NC312881   6.847   9.137   6.090 -0.0282  0.4249  0.1531
  979POPC   PO412882   6.468   9.054   6.391 -0.1569  0.0576  0.0812
  979POPC   GL112883   6.508   8.847   6.815  0.0514  0.0115  0.0958
  979POPC   GL212884   6.534   8.543   6.664  0.2526 -0.0497  0.0182
  979POPC   C1A12885   6.608   8.803   7.309 -0.2049  0.0692 -0.4029
  979POPC   D2A12886   6.549   8.782   7.789  0.1371  0.0719 -0.2541
  979POPC   C3A12887   6.677   8.672   8.220 -0.1240 -0.1369  0.1869
  979POPC   C4A12888   6.996   8.814   8.367 -0.1952  0.0639 -0.0469
  979POPC   C1B12889   6.476   8.354   7.063 -0.2890  0.2436 -0.2077
  979POPC   C2B12890   6.510   8.304   7.456 -0.1268 -0.0015  0.1383
  979POPC   C3B12891   6.620   8.275   7.899  0.0460  0.0704 -0.0360
  979POPC   C4B12892   6.361   8.289   8.189 -0.0597  0.1456  0.1860
  980POPC   NC312893  11.502  17.301   6.826 -0.1855 -0.0750  0.0013
  980POPC   PO412894  11.149  17.618   6.795 -0.0824  0.1575  0.2103
  980POPC   GL112895  11.067  17.643   7.249  0.2116  0.0123 -0.3186
  980POPC   GL212896  11.219  17.503   7.496 -0.0516 -0.2359 -0.3683
  980POPC   C1A12897  10.760  17.497   7.483  0.0459 -0.1849  0.0250
  980POPC   D2A12898  10.846  17.391   7.900  0.0688 -0.2926  0.1201
  980POPC   C3A12899  10.879  17.648   8.280  0.0751  0.0021  0.1396
  980POPC   C4A12900  11.107  17.821   8.583 -0.1359 -0.1784  0.0001
  980POPC   C1B12901  11.577  17.713   7.537  0.2275 -0.2066  0.1065
  980POPC   C2B12902  11.703  18.068   7.849 -0.1074 -0.0001  0.1399
  980POPC   C3B12903  11.970  18.230   8.186 -0.1361 -0.1628 -0.0591
  980POPC   C4B12904  11.886  18.409   8.558  0.0045  0.2324 -0.2017
  981POPC   NC312905   2.158   5.409   5.714 -0.1166  0.2072  0.1296
  981POPC   PO412906   1.853   5.771   5.643  0.0482 -0.1165  0.1496
  981POPC   GL112907   1.768   5.664   6.045  0.1617  0.0551  0.3704
  981POPC   GL212908   1.728   5.317   6.172 -0.0866  0.0283  0.0201
  981POPC   C1A12909   1.937   5.845   6.360  0.0689  0.0971 -0.0458
  981POPC   D2A12910   2.198   5.757   6.717  0.2430 -0.3192  0.0545
  981POPC   C3A12911   2.170   5.903   7.155  0.1144  0.1899  0.0559
  981POPC   C4A12912   2.191   6.253   7.432  0.2472 -0.2530  0.0116
  981POPC   C1B12913   1.774   5.314   6.698  0.0588 -0.0034 -0.0660
  981POPC   C2B12914   1.913   5.440   7.090 -0.0492  0.0928  0.2962
  981POPC   C3B12915   2.042   5.537   7.461 -0.0961  0.1043 -0.2020
  981POPC   C4B12916   2.252   5.839   7.683  0.2126 -0.1989  0.0404
  982YOPC   NC312917   2.662  11.507   5.699  0.0469 -0.1054  0.1562
  982YOPC   PO412918   2.647  11.532   6.204 -0.1366  0.3038 -0.0339
  982YOPC   GL112919   2.911  11.514   6.693 -0.0980  0.2172  0.0629
  982YOPC   GL212920   2.667  11.286   6.980 -0.1282 -0.1461 -0.1766
  982YOPC   C1A12921   2.975  11.651   7.142 -0.3327  0.0356  0.0914
  982YOPC   D2A12922   3.098  11.645   7.585  0.2778 -0.2231  0.1480
  982YOPC   C3A12923   2.960  11.641   8.061  0.1784 -0.0297  0.0025
  982YOPC   C4A12924   2.966  11.313   8.400  0.2049 -0.2117 -0.0918
  982YOPC   C1B12925   2.769  11.296   7.383  0.0681 -0.0847  0.0127
  982YOPC   C2B12926   2.842  11.207   7.769 -0.0027 -0.1058  0.4141
  982YOPC   D3B12927   2.540  11.279   8.055 -0.2123 -0.0138 -0.1365
  982YOPC   C4B12928   2.523  11.604   8.395  0.1597  0.1385  0.0579
  983YOPC   NC312929   9.312   1.001   6.536  0.1205 -0.0935 -0.1134
  983YOPC   PO412930   9.627   0.638   6.651  0.1255  0.1335  0.0203
  983YOPC   GL112931   9.807   0.529   7.002 -0.0247  0.2375  0.1113
  983YOPC   GL212932   9.903   0.701   7.180  0.1559  0.0054 -0.2643
  983YOPC   C1A12933   9.925   0.254   7.373 -0.3613  0.5923 -0.1292
  983YOPC   D2A12934   9.737   0.285   7.750 -0.1493 -0.1580 -0.4065
  983YOPC   C3A12935   9.949   0.561   7.995  0.0184 -0.0376  0.1595
  983YOPC   C4A12936  10.004   0.544   8.486 -0.1453  0.0942 -0.1054
  983YOPC   C1B12937  10.015   0.878   7.589  0.2110 -0.0757 -0.0942
  983YOPC   C2B12938  10.130   1.097   7.926  0.0660 -0.1032  0.0383
  983YOPC   D3B12939   9.975   1.069   8.188  0.1212  0.1987  0.1644
  983YOPC   C4B12940   9.958   1.046   8.652  0.0482 -0.0099 -0.0495
  984YOPC   NC312941   3.029   3.126   6.121 -0.0589 -0.1462 -0.1742
  984YOPC   PO412942   2.909   2.775   6.029  0.3004 -0.1422  0.2008
  984YOPC   GL112943   2.662   2.892   6.368  0.0245  0.1511 -0.1919
  984YOPC   GL212944   2.337   2.731   6.342  0.0838 -0.1200  0.2374
  984YOPC   C1A12945   2.435   3.098   6.755 -0.3061  0.0781  0.1134
  984YOPC   D2A12946   2.254   3.145   7.022 -0.0201  0.0787  0.0773
  984YOPC   C3A12947   2.352   3.337   7.413  0.0601 -0.0502  0.1363
  984YOPC   C4A12948   2.407   3.083   7.734  0.2138 -0.0441  0.1614
  984YOPC   C1B12949   2.338   2.607   6.788  0.0553  0.0484 -0.1877
  984YOPC   C2B12950   2.312   2.699   7.230  0.1904  0.0022  0.2855
  984YOPC   D3B12951   2.182   2.629   7.680  0.2562 -0.0507  0.1924
  984YOPC   C4B12952   2.004   2.895   8.001  0.3076  0.0898  0.3381
  985YOPC   NC312953  14.102   9.645   5.764  0.4900  0.2486 -0.0170
  985YOPC   PO412954  14.415   9.369   5.953  0.1557 -0.1040 -0.3398
  985YOPC   GL112955  14.617   9.319   6.312 -0.5066  0.1010 -0.0625
  985YOPC   GL212956  14.726   8.986   6.326  0.1842  0.0319  0.3324
  985YOPC   C1A12957  14.803   9.231   6.717 -0.0276  0.4086  0.0868
  985YOPC   D2A12958  14.764   9.389   7.188  0.0922 -0.0357 -0.1235
  985YOPC   C3A12959  14.575   9.348   7.586  0.2326 -0.2287 -0.3667
  985YOPC   C4A12960  14.440   9.624   7.935 -0.0659  0.1076 -0.2352
  985YOPC   C1B12961  14.494   8.870   6.695 -0.3499  0.1017  0.1529
  985YOPC   C2B12962  14.525   8.887   7.110  0.2340 -0.2610 -0.1583
  985YOPC   D3B12963  14.807   8.759   7.456 -0.1632  0.1384  0.1792
  985YOPC   C4B12964  15.188   8.545   7.759  0.1931 -0.3023 -0.0846
  986YOPC   NC312965  12.681  13.978   6.081 -0.2478  0.0675  0.1590
  986YOPC   PO412966  13.010  14.217   5.969  0.1201 -0.2166 -0.3514
  986YOPC   GL112967  13.087  14.223   6.436  0.3173 -0.0552 -0.2591
  986YOPC   GL212968  13.314  14.026   6.523 -0.0489  0.0187  0.0506
  986YOPC   C1A12969  13.168  14.354   6.900  0.5185  0.1558  0.0953
  986YOPC   D2A12970  13.045  14.480   7.319  0.0504 -0.0324 -0.0922
  986YOPC   C3A12971  13.087  14.413   7.748  0.0265  0.5149 -0.1746
  986YOPC   C4A12972  13.094  14.339   8.236 -0.1192 -0.0564  0.0624
  986YOPC   C1B12973  13.182  13.876   6.889 -0.2726  0.2041 -0.3572
  986YOPC   C2B12974  13.271  13.958   7.327  0.2076 -0.0361 -0.0613
  986YOPC   D3B12975  12.943  13.929   7.662  0.3974 -0.2603 -0.1979
  986YOPC   C4B12976  12.790  13.958   8.003 -0.4858  0.0073 -0.1195
  987YOPC   NC312977  16.603  16.915   6.237  0.1778  0.2205 -0.2152
  987YOPC   PO412978  16.656  16.482   6.188  0.3680 -0.1306  0.0392
  987YOPC   GL112979  16.636  16.569   6.636  0.0850  0.2435 -0.0075
  987YOPC   GL212980  16.297  16.820   6.648  0.0939 -0.1911  0.0029
  987YOPC   C1A12981  16.755  16.790   6.939  0.1750 -0.3976  0.1620
  987YOPC   D2A12982  16.785  16.927   7.456 -0.0473  0.1386 -0.1644
  987YOPC   C3A12983  16.767  17.052   7.841  0.0497 -0.3357 -0.1864
  987YOPC   C4A12984  16.673  17.114   8.341  0.0480  0.1609  0.0432
  987YOPC   C1B12985  16.032  16.886   6.919 -0.1079  0.2107  0.2701
  987YOPC   C2B12986  16.005  17.074   7.304  0.2268  0.0170 -0.2109
  987YOPC   D3B12987  15.769  17.405   7.333 -0.1399 -0.4956 -0.1836
  987YOPC   C4B12988  15.661  17.766   7.019  0.0855 -0.2253 -0.1706
  988YOPC   NC312989  13.592  17.515   6.233  0.3920 -0.1025  0.0611
  988YOPC   PO412990  13.718  17.952   6.190  0.1096  0.0059 -0.2616
  988YOPC   GL112991  13.927  17.807   6.569 -0.2367  0.0465  0.0071
  988YOPC   GL212992  14.164  18.098   6.681 -0.2229  0.0308 -0.0675
  988YOPC   C1A12993  13.855  17.388   6.801 -0.0185  0.1600  0.0439
  988YOPC   D2A12994  13.828  17.147   7.194 -0.4435  0.1984  0.0394
  988YOPC   C3A12995  13.982  16.734   7.069  0.0411 -0.0426 -0.0325
  988YOPC   C4A12996  14.353  16.549   7.262  0.1281 -0.1558  0.1102
  988YOPC   C1B12997  14.142  17.893   7.137 -0.0197 -0.0252 -0.3687
  988YOPC   C2B12998  14.141  17.540   7.236  0.0260  0.1461 -0.3794
  988YOPC   D3B12999  14.110  17.305   7.695 -0.0986  0.3835 -0.0103
  988YOPC   C4B13000  14.109  17.414   8.120  0.3044  0.0590 -0.1964
  989YOPC   NC313001  12.922  14.695   6.133  0.0730 -0.3549  0.1831
  989YOPC   PO413002  12.529  14.488   6.018 -0.0981  0.2008 -0.1601
  989YOPC   GL113003  12.657  14.523   6.467 -0.1246  0.0626 -0.2072
  989YOPC   GL213004  12.952  14.674   6.586 -0.1681  0.0625  0.1061
  989YOPC   C1A13005  12.642  14.217   6.717  0.2644  0.3232 -0.1630
  989YOPC   D2A13006  12.776  14.092   7.082  0.1918 -0.2443  0.0390
  989YOPC   C3A13007  12.678  13.820   7.275 -0.1138 -0.0243  0.0973
  989YOPC   C4A13008  12.377  13.503   7.299  0.0264 -0.2797  0.0413
  989YOPC   C1B13009  12.795  14.719   6.889 -0.1235 -0.0453  0.1934
  989YOPC   C2B13010  12.735  14.912   7.221 -0.1541 -0.0645 -0.0711
  989YOPC   D3B13011  12.732  14.738   7.667  0.1831 -0.3290 -0.0918
  989YOPC   C4B13012  12.551  14.924   8.062  0.2612 -0.0435 -0.1019
  990YOPC   NC313013   9.248   5.929   5.381  0.2015 -0.2661 -0.0298
  990YOPC   PO413014   9.153   6.031   5.815 -0.1725  0.0962 -0.1888
  990YOPC   GL113015   9.233   5.925   6.162 -0.1570  0.3602  0.0812
  990YOPC   GL213016   9.191   6.268   6.285 -0.2907 -0.0938 -0.0522
  990YOPC   C1A13017   9.433   5.939   6.581 -0.1336 -0.1352 -0.0717
  990YOPC   D2A13018   9.605   6.127   6.896  0.1107 -0.5679 -0.0008
  990YOPC   C3A13019  10.098   6.076   7.040  0.1024  0.0755 -0.0003
  990YOPC   C4A13020  10.542   5.984   7.164  0.6460  0.0092 -0.1062
  990YOPC   C1B13021   8.919   6.354   6.593 -0.1642 -0.0459 -0.3884
  990YOPC   C2B13022   8.631   6.355   7.107 -0.0352  0.0880  0.2120
  990YOPC   D3B13023   8.840   6.281   7.509 -0.1302 -0.0511 -0.0298
  990YOPC   C4B13024   8.888   5.991   7.756  0.1460 -0.2506  0.0632
  991YOPC   NC313025  11.883   7.106   5.358 -0.0663  0.1788 -0.2055
  991YOPC   PO413026  11.970   6.631   5.569 -0.1917 -0.0163  0.0044
  991YOPC   GL113027  11.934   6.804   5.943 -0.1283  0.0291  0.0451
  991YOPC   GL213028  11.828   7.145   5.992 -0.8852  0.0480 -0.1894
  991YOPC   C1A13029  11.777   6.673   6.359 -0.2973 -0.1578  0.1167
  991YOPC   D2A13030  11.473   6.531   6.564  0.2457 -0.0393 -0.2208
  991YOPC   C3A13031  11.464   6.288   6.831 -0.0103  0.0166  0.0123
  991YOPC   C4A13032  11.356   6.318   7.278  0.2049 -0.0887 -0.1462
  991YOPC   C1B13033  11.902   7.136   6.382 -0.1864 -0.0806 -0.0696
  991YOPC   C2B13034  11.810   7.055   6.769 -0.0330  0.1691 -0.1368
  991YOPC   D3B13035  11.735   7.258   7.141  0.1338 -0.0745  0.0521
  991YOPC   C4B13036  11.318   7.287   7.436  0.0271 -0.1154  0.0872
  992YOPC   NC313037   2.639   7.266   5.569 -0.1380  0.1608  0.1941
  992YOPC   PO413038   2.478   7.188   5.963  0.0616  0.1529  0.0615
  992YOPC   GL113039   2.516   7.069   6.394  0.3501 -0.1421 -0.1125
  992YOPC   GL213040   2.718   7.284   6.396  0.1605  0.0440 -0.1965
  992YOPC   C1A13041   2.419   6.734   6.713 -0.0091 -0.0129  0.2674
  992YOPC   D2A13042   2.331   6.423   6.931  0.0439 -0.2816  0.2755
  992YOPC   C3A13043   2.570   6.068   6.888 -0.0665 -0.1070 -0.0311
  992YOPC   C4A13044   2.692   5.716   6.855  0.0294 -0.0965 -0.0900
  992YOPC   C1B13045   2.883   7.062   6.740 -0.0857 -0.1795 -0.1563
  992YOPC   C2B13046   3.105   7.023   7.159  0.2735 -0.0946 -0.0208
  992YOPC   D3B13047   2.907   6.852   7.503 -0.0240  0.3467  0.0468
  992YOPC   C4B13048   2.825   6.631   7.922 -0.2618  0.0368  0.2215
  993YOPC   NC313049   7.562   9.551   6.380 -0.0833  0.0649 -0.3093
  993YOPC   PO413050   7.380   9.237   6.199 -0.3311  0.1400  0.1315
  993YOPC   GL113051   7.415   8.995   6.525  0.1564 -0.1872 -0.2202
  993YOPC   GL213052   7.319   9.252   6.757  0.3115  0.0896  0.0690
  993YOPC   C1A13053   7.388   8.750   7.004 -0.0972 -0.0867  0.1052
  993YOPC   D2A13054   6.998   8.582   7.155 -0.2751 -0.1199 -0.1160
  993YOPC   C3A13055   6.984   8.536   7.647  0.4244  0.0145  0.0961
  993YOPC   C4A13056   7.074   8.416   7.977 -0.2157  0.1843 -0.2340
  993YOPC   C1B13057   7.538   9.183   7.227  0.0808  0.1370  0.0692
  993YOPC   C2B13058   7.483   9.212   7.618 -0.0918  0.1436 -0.2137
  993YOPC   D3B13059   7.868   9.046   7.824 -0.0466 -0.0274 -0.1980
  993YOPC   C4B13060   7.760   8.632   7.831 -0.2982 -0.4659  0.3919
  994YOPC   NC313061   7.496   0.958   6.574  0.2343 -0.2054 -0.0324
  994YOPC   PO413062   7.885   0.990   6.401 -0.2500 -0.0423 -0.0731
  994YOPC   GL113063   8.102   1.195   6.676  0.1363  0.0122 -0.0193
  994YOPC   GL213064   7.874   1.144   6.887  0.0918 -0.1701  0.2893
  994YOPC   C1A13065   8.331   1.276   7.101 -0.0527  0.0815 -0.3355
  994YOPC   D2A13066   8.228   1.195   7.574  0.2325 -0.1985 -0.0694
  994YOPC   C3A13067   8.296   1.646   7.868 -0.0018 -0.0119  0.1387
  994YOPC   C4A13068   8.148   2.005   7.970  0.0434  0.2625 -0.2584
  994YOPC   C1B13069   7.802   1.236   7.353  0.0426  0.0688 -0.1070
  994YOPC   C2B13070   7.836   1.422   7.714  0.0965  0.2187 -0.0443
  994YOPC   D3B13071   7.730   1.647   8.120  0.2433  0.2208 -0.0732
  994YOPC   C4B13072   7.768   1.899   8.358 -0.1869  0.2737  0.1665
  995YOPC   NC313073   5.335   1.512   6.223 -0.1348  0.0879  0.1096
  995YOPC   PO413074   5.522   1.178   6.227  0.2118 -0.0585 -0.1163
  995YOPC   GL113075   5.586   1.351   6.656  0.0621 -0.0077 -0.1107
  995YOPC   GL213076   5.446   1.708   6.645  0.2084 -0.1136 -0.1015
  995YOPC   C1A13077   5.870   1.502   6.972  0.2549  0.0062 -0.0359
  995YOPC   D2A13078   6.058   1.771   7.351  0.3878  0.1029  0.0939
  995YOPC   C3A13079   5.819   1.797   7.773  0.0867  0.1327  0.1994
  995YOPC   C4A13080   5.773   2.123   7.921 -0.3529 -0.0118 -0.0199
  995YOPC   C1B13081   5.533   1.905   7.023 -0.3466 -0.1702 -0.2594
  995YOPC   C2B13082   5.521   1.971   7.470 -0.0119 -0.2707  0.0377
  995YOPC   D3B13083   5.246   1.695   7.652 -0.2398 -0.0957 -0.0269
  995YOPC   C4B13084   5.361   1.783   8.096  0.1554  0.0001  0.1813
  996YOPC   NC313085  17.115   6.874   6.018 -0.3481  0.3018 -0.2657
  996YOPC   PO413086  17.393   7.320   5.956  0.0864 -0.2059  0.4362
  996YOPC   GL113087  17.138   7.342   6.335 -0.1834 -0.1782 -0.0824
  996YOPC   GL213088  16.757   7.195   6.355 -0.3127  0.3587  0.1595
  996YOPC   C1A13089  17.095   7.378   6.822  0.3025 -0.1495 -0.0787
  996YOPC   D2A13090  16.779   7.277   7.143  0.1928  0.1805  0.1603
  996YOPC   C3A13091  16.759   7.334   7.617  0.1431  0.3998  0.0527
  996YOPC   C4A13092  16.414   7.672   7.622  0.3557  0.1045 -0.0444
  996YOPC   C1B13093  16.664   7.536   6.671 -0.0002  0.1908 -0.3168
  996YOPC   C2B13094  17.021   7.830   7.051  0.1173  0.1138  0.0590
  996YOPC   D3B13095  16.932   7.776   7.525 -0.1383 -0.1168  0.2013
  996YOPC   C4B13096  17.149   7.812   7.902 -0.0792 -0.2282 -0.0833
  997YOPC   NC313097   6.608   1.283   5.898 -0.0278 -0.4475 -0.1428
  997YOPC   PO413098   6.250   1.336   6.081 -0.2060  0.0875 -0.0145
  997YOPC   GL113099   6.296   1.650   6.335 -0.0236 -0.0943  0.0440
  997YOPC   GL213100   6.200   1.643   6.675 -0.0540  0.0671  0.4685
  997YOPC   C1A13101   6.331   2.094   6.598  0.2111 -0.0836 -0.0589
  997YOPC   D2A13102   6.510   2.496   6.584 -0.1002  0.0792 -0.0744
  997YOPC   C3A13103   6.510   2.763   6.871  0.2366  0.1135 -0.2068
  997YOPC   C4A13104   6.586   2.975   7.265 -0.0933  0.1226 -0.0701
  997YOPC   C1B13105   6.379   1.695   7.019  0.0938  0.0064 -0.0031
  997YOPC   C2B13106   6.551   1.878   7.328 -0.0868  0.0145 -0.0795
  997YOPC   D3B13107   6.402   1.995   7.717 -0.5064  0.2419 -0.0335
  997YOPC   C4B13108   6.336   1.908   8.134  0.3010  0.2592 -0.0403
  998YOPC   NC313109   4.119  12.926   6.250  0.1516 -0.0218  0.1061
  998YOPC   PO413110   4.496  12.811   6.202  0.1982  0.0106 -0.4018
  998YOPC   GL113111   4.475  12.910   6.652  0.3843  0.0112 -0.0213
  998YOPC   GL213112   4.253  13.162   6.645 -0.0200  0.1705 -0.0332
  998YOPC   C1A13113   4.715  13.254   6.942  0.2028  0.0631 -0.1685
  998YOPC   D2A13114   4.939  13.399   7.266  0.1215  0.1936  0.0681
  998YOPC   C3A13115   4.831  13.425   7.606  0.0082  0.2151 -0.1604
  998YOPC   C4A13116   4.584  13.461   7.898  0.0840  0.2283 -0.0694
  998YOPC   C1B13117   4.221  13.092   7.091  0.1099  0.0528 -0.0214
  998YOPC   C2B13118   4.396  13.199   7.385 -0.1511  0.2019 -0.2147
  998YOPC   D3B13119   4.299  13.035   7.718 -0.1794 -0.2422  0.0888
  998YOPC   C4B13120   4.277  13.147   8.085 -0.1155  0.0379 -0.0968
  999YOPC   NC313121  15.027   3.465   5.866  0.1649 -0.0428  0.1129
  999YOPC   PO413122  14.589   3.718   5.922 -0.0197  0.0872 -0.1170
  999YOPC   GL113123  14.662   3.520   6.286  0.1397  0.5144  0.0736
  999YOPC   GL213124  14.448   3.716   6.427 -0.0550  0.1331 -0.4121
  999YOPC   C1A13125  14.982   3.539   6.612 -0.3506 -0.2168 -0.4189
  999YOPC   D2A13126  15.300   3.869   6.955  0.1543 -0.0234  0.1312
  999YOPC   C3A13127  15.282   4.184   7.345 -0.0482 -0.2048 -0.1620
  999YOPC   C4A13128  15.187   4.507   7.553 -0.2094  0.1174  0.2462
  999YOPC   C1B13129  14.319   4.022   6.707 -0.1264 -0.0397  0.1639
  999YOPC   C2B13130  14.362   4.069   7.089 -0.0017 -0.1298  0.1273
  999YOPC   D3B13131  14.210   4.089   7.521  0.0486  0.0797 -0.0444
  999YOPC   C4B13132  14.395   4.054   7.961  0.1508 -0.1913  0.1465
 1000YOPC   NC313133   8.627  10.052   6.038 -0.1640  0.0310 -0.1338
 1000YOPC   PO413134   8.628   9.684   6.385  0.0182  0.0114 -0.4875
 1000YOPC   GL113135   8.558   9.570   6.780 -0.0625 -0.2055 -0.1485
 1000YOPC   GL213136   8.327   9.728   6.890 -0.0932 -0.1191  0.0033
 1000YOPC   C1A13137   8.597   9.355   7.137  0.0449 -0.1711  0.1615
 1000YOPC   D2A13138   8.557   9.420   7.605 -0.1421 -0.1747  0.0178
 1000YOPC   C3A13139   8.245   9.395   7.868  0.2671 -0.2397 -0.0309
 1000YOPC   C4A13140   7.874   9.527   8.019 -0.0558  0.1167 -0.2950
 1000YOPC   C1B13141   8.573   9.859   7.182  0.3108 -0.0168  0.1052
 1000YOPC   C2B13142   8.675  10.036   7.530 -0.0864 -0.1899 -0.0944
 1000YOPC   D3B13143   8.387   9.851   7.801 -0.3433 -0.0162  0.0263
 1000YOPC   C4B13144   8.535   9.682   8.182  0.2232  0.1870 -0.0607
 1001YOPC   NC313145  10.141  15.783   6.566  0.0581  0.2654 -0.1110
 1001YOPC   PO413146   9.844  16.118   6.625  0.0040 -0.0063 -0.1033
 1001YOPC   GL113147  10.089  16.056   6.981 -0.0773 -0.1451 -0.2199
 1001YOPC   GL213148   9.974  16.484   7.145  0.0915 -0.0603 -0.1532
 1001YOPC   C1A13149  10.189  16.144   7.488  0.2140 -0.0508 -0.0379
 1001YOPC   D2A13150  10.233  16.346   7.832 -0.1095  0.2494  0.1084
 1001YOPC   C3A13151  10.207  16.330   8.330 -0.1446  0.1033  0.3093
 1001YOPC   C4A13152  10.502  16.391   8.748 -0.0709 -0.3587 -0.1017
 1001YOPC   C1B13153  10.277  16.647   7.453 -0.0348  0.1144  0.1167
 1001YOPC   C2B13154  10.698  16.730   7.548  0.0098 -0.0527 -0.0615
 1001YOPC   D3B13155  10.647  16.581   7.984  0.3050  0.0390 -0.0193
 1001YOPC   C4B13156  10.744  16.555   8.391 -0.0840  0.3922  0.0575
 1002YOPC   NC313157  15.220   7.760   5.614  0.0124 -0.2511 -0.1797
 1002YOPC   PO413158  15.554   8.004   5.987 -0.1394 -0.1143  0.1976
 1002YOPC   GL113159  15.349   7.928   6.327 -0.1662 -0.2227  0.0003
 1002YOPC   GL213160  15.111   8.039   6.348 -0.0100 -0.1496 -0.1074
 1002YOPC   C1A13161  15.327   7.750   6.702 -0.0991  0.0696  0.1509
 1002YOPC   D2A13162  15.326   7.461   7.164  0.0523  0.2604  0.2219
 1002YOPC   C3A13163  15.584   7.605   7.430 -0.1189 -0.0642 -0.2838
 1002YOPC   C4A13164  15.451   7.580   7.793 -0.1965  0.0237 -0.4601
 1002YOPC   C1B13165  15.136   8.141   6.848 -0.1516  0.1686  0.0066
 1002YOPC   C2B13166  15.168   7.946   7.156 -0.1723  0.1019  0.0959
 1002YOPC   D3B13167  15.034   7.699   7.521  0.1690  0.0504 -0.0729
 1002YOPC   C4B13168  14.970   7.739   7.931 -0.0101 -0.0217 -0.2450
 1003YOPC   NC313169  13.694  11.807   6.199 -0.1786  0.2721  0.0365
 1003YOPC   PO413170  13.458  12.245   6.304  0.4414 -0.2352 -0.1155
 1003YOPC   GL113171  13.404  12.239   6.694  0.1060  0.2896  0.0277
 1003YOPC   GL213172  13.232  12.508   6.925 -0.3807  0.3700  0.4189
 1003YOPC   C1A13173  13.379  11.918   6.964  0.0585  0.2020 -0.0161
 1003YOPC   D2A13174  13.478  11.538   7.042 -0.0088 -0.0558  0.1535
 1003YOPC   C3A13175  13.306  11.259   6.929 -0.4694 -0.1639 -0.0506
 1003YOPC   C4A13176  12.886  11.125   6.885  0.1722 -0.3642 -0.3855
 1003YOPC   C1B13177  13.269  12.357   7.303 -0.2774  0.1778  0.1120
 1003YOPC   C2B13178  13.037  12.212   7.652 -0.1227  0.0948 -0.2023
 1003YOPC   D3B13179  12.819  12.343   7.935 -0.1061 -0.2787  0.2552
 1003YOPC   C4B13180  12.365  12.405   8.057 -0.0327  0.0701 -0.3590
 1004YOPC   NC313181  11.985  11.992   5.707  0.0168 -0.0602 -0.3875
 1004YOPC   PO413182  11.845  11.698   6.113  0.2081 -0.0593  0.3450
 1004YOPC   GL113183  11.541  11.767   6.496 -0.3226  0.1309 -0.0730
 1004YOPC   GL213184  11.169  11.723   6.584  0.0203  0.0510  0.0768
 1004YOPC   C1A13185  11.556  11.842   6.946  0.0140  0.1688 -0.0756
 1004YOPC   D2A13186  11.482  11.935   7.432 -0.0871  0.0987 -0.2087
 1004YOPC   C3A13187  11.166  11.803   7.680 -0.0645  0.1999  0.1976
 1004YOPC   C4A13188  11.198  11.552   8.020  0.1004 -0.2288 -0.3029
 1004YOPC   C1B13189  10.721  11.584   6.778 -0.1107 -0.2504 -0.1195
 1004YOPC   C2B13190  10.340  11.517   6.883  0.2259 -0.1650 -0.1758
 1004YOPC   D3B13191  10.228  11.191   7.154  0.0512  0.2682 -0.0895
 1004YOPC   C4B13192   9.805  10.938   7.209 -0.2091 -0.1456 -0.2558
 1005YOPC   NC313193   8.068   5.122   6.105  0.0124  0.2156 -0.2730
 1005YOPC   PO413194   8.414   5.415   6.106  0.0875  0.0122  0.0538
 1005YOPC   GL113195   8.702   5.299   6.444 -0.1685  0.2920 -0.0869
 1005YOPC   GL213196   8.439   5.503   6.668  0.3429  0.1362  0.1831
 1005YOPC   C1A13197   8.779   5.076   6.864  0.0181 -0.1256 -0.0547
 1005YOPC   D2A13198   9.148   5.110   7.098 -0.1547 -0.1101 -0.0771
 1005YOPC   C3A13199   9.004   4.696   7.395  0.1086 -0.0983  0.1262
 1005YOPC   C4A13200   8.865   4.412   7.721 -0.2237  0.1184 -0.2642
 1005YOPC   C1B13201   8.355   5.412   6.984  0.1641  0.0070 -0.0196
 1005YOPC   C2B13202   8.355   5.329   7.361  0.1395 -0.2876 -0.1359
 1005YOPC   D3B13203   8.783   5.168   7.488  0.1178  0.2781 -0.1237
 1005YOPC   C4B13204   8.920   4.887   7.888 -0.0157 -0.1612  0.0244
 1006YOPC   NC313205   6.983  11.254   5.926  0.2173  0.0466 -0.3231
 1006YOPC   PO413206   6.633  11.161   6.344  0.2545 -0.0785  0.5170
 1006YOPC   GL113207   6.709  11.083   6.724  0.0260  0.2104  0.0706
 1006YOPC   GL213208   6.672  10.751   6.565  0.1217 -0.0761  0.0339
 1006YOPC   C1A13209   6.707  11.067   7.131  0.1889 -0.2127 -0.0572
 1006YOPC   D2A13210   6.859  11.299   7.531  0.3781  0.0288  0.0446
 1006YOPC   C3A13211   7.132  11.155   7.768  0.0791 -0.3911  0.1673
 1006YOPC   C4A13212   7.109  11.109   8.270 -0.1192 -0.0413 -0.2572
 1006YOPC   C1B13213   6.617  10.596   6.881 -0.0774 -0.0364  0.2352
 1006YOPC   C2B13214   6.669  10.605   7.301 -0.4011 -0.0985 -0.0337
 1006YOPC   D3B13215   6.691  10.900   7.651 -0.2656 -0.1746  0.0189
 1006YOPC   C4B13216   6.673  11.043   8.074  0.0108  0.0366  0.2014
 1007YOPC   NC313217   7.190   5.127   5.822 -0.1781 -0.0461 -0.0706
 1007YOPC   PO413218   7.062   5.551   6.100  0.0113  0.2069  0.0717
 1007YOPC   GL113219   7.102   5.796   6.527 -0.0010  0.1024 -0.2729
 1007YOPC   GL213220   7.435   5.686   6.567 -0.0269 -0.1790 -0.0630
 1007YOPC   C1A13221   7.121   5.786   7.001 -0.0378  0.2918  0.0876
 1007YOPC   D2A13222   6.866   5.821   7.272 -0.1521  0.0163  0.1387
 1007YOPC   C3A13223   6.895   5.598   7.633 -0.1473 -0.1415 -0.1584
 1007YOPC   C4A13224   7.206   5.378   7.817  0.1230  0.0159 -0.2119
 1007YOPC   C1B13225   7.495   5.526   6.927  0.1179 -0.0478 -0.0349
 1007YOPC   C2B13226   7.330   5.580   7.377 -0.1474  0.0369  0.2807
 1007YOPC   D3B13227   7.238   5.890   7.697  0.2227 -0.0217  0.0823
 1007YOPC   C4B13228   7.360   5.878   8.116  0.1865  0.0143  0.0866
 1008YOPC   NC313229  12.214   9.827   6.117  0.1800  0.2621 -0.3995
 1008YOPC   PO413230  12.455  10.275   6.059 -0.1441  0.0221  0.0725
 1008YOPC   GL113231  12.452  10.169   6.498 -0.3618 -0.0461  0.1179
 1008YOPC   GL213232  12.212   9.948   6.605 -0.3547 -0.1328  0.0306
 1008YOPC   C1A13233  12.640  10.430   6.881 -0.0770  0.4447  0.0061
 1008YOPC   D2A13234  12.621  10.440   7.351  0.2377 -0.1349 -0.1290
 1008YOPC   C3A13235  13.018  10.280   7.481 -0.1364 -0.1726 -0.1027
 1008YOPC   C4A13236  13.288  10.163   7.830  0.2427  0.1755  0.0918
 1008YOPC   C1B13237  12.295   9.983   6.971 -0.1011  0.2382 -0.0909
 1008YOPC   C2B13238  12.247   9.781   7.327  0.1135 -0.1939  0.1145
 1008YOPC   D3B13239  12.210  10.027   7.695  0.2058  0.2543  0.0997
 1008YOPC   C4B13240  12.365  10.303   8.034  0.1071  0.0585  0.0295
 1009YOPC   NC313241  14.986   1.778   5.548 -0.0337 -0.3243  0.3329
 1009YOPC   PO413242  15.166   1.711   5.991  0.1775 -0.0258  0.3132
 1009YOPC   GL113243  15.134   1.763   6.390 -0.1092 -0.1530  0.0027
 1009YOPC   GL213244  15.348   1.697   6.474  0.1000  0.1262  0.0716
 1009YOPC   C1A13245  15.161   1.806   6.885  0.1591 -0.0722  0.0650
 1009YOPC   D2A13246  15.504   1.812   7.149  0.1358 -0.0829 -0.0612
 1009YOPC   C3A13247  15.492   1.873   7.569 -0.3306 -0.2359  0.1234
 1009YOPC   C4A13248  15.781   2.089   7.937  0.2429  0.0151  0.3220
 1009YOPC   C1B13249  15.594   1.969   6.691 -0.1380 -0.0795  0.0752
 1009YOPC   C2B13250  15.709   2.265   7.057  0.5147 -0.2399 -0.0109
 1009YOPC   D3B13251  15.525   2.372   7.452  0.2517 -0.2785 -0.0222
 1009YOPC   C4B13252  15.507   2.522   7.825 -0.0713 -0.3406 -0.0570
 1010YOPC   NC313253  16.745   7.823   5.700  0.2518 -0.1247 -0.1251
 1010YOPC   PO413254  16.727   8.171   6.023  0.0976  0.0707  0.0538
 1010YOPC   GL113255  16.515   8.333   6.320  0.4044  0.0343 -0.0644
 1010YOPC   GL213256  16.253   8.282   6.376  0.2175  0.0959  0.2400
 1010YOPC   C1A13257  16.343   8.697   6.569  0.1131  0.2676  0.0803
 1010YOPC   D2A13258  16.421   8.648   6.972  0.2604  0.1395 -0.0589
 1010YOPC   C3A13259  16.416   8.893   7.277 -0.0587  0.3843  0.0051
 1010YOPC   C4A13260  16.519   9.164   7.637 -0.0983 -0.1705 -0.1113
 1010YOPC   C1B13261  16.146   8.265   6.789 -0.0794  0.1657  0.3610
 1010YOPC   C2B13262  16.257   8.107   7.263  0.0144 -0.0334 -0.0971
 1010YOPC   D3B13263  16.703   8.222   7.301 -0.2263  0.2963  0.0036
 1010YOPC   C4B13264  17.040   8.277   7.619 -0.3156  0.0710 -0.0617
 1011YOPC   NC313265   0.551  12.390   6.044 -0.0195  0.1107  0.0771
 1011YOPC   PO413266   0.079  12.320   6.061 -0.0783 -0.3180  0.0984
 1011YOPC   GL113267   0.004  12.200   6.399  0.3950 -0.1622 -0.0727
 1011YOPC   GL213268  -0.348  12.094   6.482  0.3537  0.0664  0.3487
 1011YOPC   C1A13269   0.020  12.139   6.832  0.1657  0.1995 -0.2289
 1011YOPC   D2A13270  -0.070  11.938   7.256  0.3580 -0.0452 -0.1743
 1011YOPC   C3A13271  -0.245  11.556   7.189  0.4276  0.2589  0.1195
 1011YOPC   C4A13272  -0.439  11.379   7.491  0.3121 -0.2619  0.2609
 1011YOPC   C1B13273  -0.404  11.658   6.712 -0.4005  0.3079 -0.1178
 1011YOPC   C2B13274  -0.478  11.320   6.793  0.1013  0.1066 -0.0371
 1011YOPC   D3B13275  -0.194  11.131   6.968 -0.0802  0.0458 -0.0996
 1011YOPC   C4B13276  -0.058  11.061   7.361 -0.2230  0.0401 -0.2732
 1012YOPC   NC313277  17.269  13.959   6.571  0.0134 -0.0307 -0.0380
 1012YOPC   PO413278  17.000  13.689   6.458 -0.0051 -0.1477  0.1333
 1012YOPC   GL113279  17.345  13.415   6.670 -0.0846  0.1376  0.1066
 1012YOPC   GL213280  17.582  13.547   6.707 -0.0464  0.0890  0.0589
 1012YOPC   C1A13281  17.502  13.157   6.942  0.4392  0.2403  0.0401
 1012YOPC   D2A13282  17.374  12.767   7.204 -0.0470 -0.2716 -0.2932
 1012YOPC   C3A13283  16.987  12.780   7.500  0.0594  0.0021  0.0235
 1012YOPC   C4A13284  16.569  12.851   7.687  0.4228 -0.2423  0.7328
 1012YOPC   C1B13285  17.653  13.569   7.163  0.0884  0.3760 -0.2545
 1012YOPC   C2B13286  17.493  13.835   7.577  0.1717  0.0258 -0.2134
 1012YOPC   D3B13287  17.733  13.675   8.011 -0.1250 -0.0160  0.0100
 1012YOPC   C4B13288  17.886  13.669   8.420 -0.1481  0.0530  0.1215
 1013YOPC   NC313289   4.676   4.980   5.642 -0.2184 -0.0749  0.0712
 1013YOPC   PO413290   4.394   4.827   5.858  0.0001 -0.2240 -0.0662
 1013YOPC   GL113291   4.401   4.679   6.197 -0.1131  0.0562  0.3101
 1013YOPC   GL213292   4.422   4.914   6.508 -0.0557  0.0182  0.0283
 1013YOPC   C1A13293   4.361   4.442   6.700 -0.0451 -0.0595 -0.0583
 1013YOPC   D2A13294   4.249   4.591   7.020  0.0021 -0.1521 -0.0323
 1013YOPC   C3A13295   4.328   4.568   7.449  0.2368 -0.0373 -0.0825
 1013YOPC   C4A13296   3.994   4.372   7.774  0.1969  0.3045 -0.1579
 1013YOPC   C1B13297   4.555   4.957   6.869 -0.2198  0.2889  0.0931
 1013YOPC   C2B13298   4.818   5.065   7.135 -0.4106 -0.0666 -0.0726
 1013YOPC   D3B13299   4.636   5.165   7.497 -0.0810 -0.3806 -0.1657
 1013YOPC   C4B13300   4.377   5.521   7.706 -0.3188 -0.2776  0.0596
 1014YOPC   NC313301   9.574   8.481   6.415  0.2551 -0.2486 -0.1948
 1014YOPC   PO413302   9.800   8.733   6.526  0.5995 -0.1497 -0.1705
 1014YOPC   GL113303   9.732   8.842   6.983 -0.2016 -0.3662 -0.0669
 1014YOPC   GL213304   9.886   9.072   7.004 -0.1191 -0.1462  0.1997
 1014YOPC   C1A13305   9.794   8.694   7.464 -0.1221  0.3999  0.0331
 1014YOPC   D2A13306   9.695   8.624   7.849  0.2006  0.1184 -0.0924
 1014YOPC   C3A13307   9.865   8.650   8.181 -0.0599  0.0633  0.2600
 1014YOPC   C4A13308  10.312   8.593   8.335 -0.3220 -0.1151  0.0546
 1014YOPC   C1B13309  10.210   8.939   7.321  0.0396 -0.0841 -0.1085
 1014YOPC   C2B13310  10.214   8.828   7.788  0.2097 -0.1231 -0.3046
 1014YOPC   D3B13311  10.508   9.003   8.054 -0.0325  0.3945 -0.0923
 1014YOPC   C4B13312  10.915   9.283   8.038  0.3301  0.2902  0.0632
 1015YOPC   NC313313  14.788   0.036   5.597 -0.2748 -0.2548  0.0744
 1015YOPC   PO413314  14.893   0.137   6.069  0.0174 -0.1733 -0.1921
 1015YOPC   GL113315  14.980   0.195   6.505  0.1027  0.0157  0.0700
 1015YOPC   GL213316  15.153   0.189   6.842 -0.1304 -0.0113 -0.0955
 1015YOPC   C1A13317  14.635   0.267   6.907  0.0432  0.3157  0.1160
 1015YOPC   D2A13318  14.666   0.239   7.354  0.2759  0.0655 -0.0308
 1015YOPC   C3A13319  14.312   0.113   7.631  0.0610 -0.2204 -0.0014
 1015YOPC   C4A13320  13.945   0.132   7.786  0.2893  0.0658  0.0094
 1015YOPC   C1B13321  15.153   0.255   7.299  0.0083 -0.3914  0.0533
 1015YOPC   C2B13322  15.170   0.295   7.714 -0.0805  0.2090 -0.1872
 1015YOPC   D3B13323  15.012   0.089   7.896  0.1174  0.1763 -0.3144
 1015YOPC   C4B13324  14.659   0.104   8.020  0.0463  0.2097 -0.0343
 1016YOPC   NC313325  10.064  11.942   6.048  0.1003 -0.1475  0.2168
 1016YOPC   PO413326  10.261  12.174   6.337 -0.2647  0.2266  0.0233
 1016YOPC   GL113327  10.490  12.326   6.666 -0.0420  0.1051 -0.0316
 1016YOPC   GL213328  10.164  12.445   6.737  0.0561 -0.2929  0.3228
 1016YOPC   C1A13329  10.622  12.131   6.969 -0.0245  0.4185  0.0271
 1016YOPC   D2A13330  10.487  12.109   7.405 -0.1076 -0.0976  0.0106
 1016YOPC   C3A13331  10.715  11.947   7.737 -0.0729 -0.0977 -0.3206
 1016YOPC   C4A13332  10.980  12.051   8.144 -0.1984 -0.3237  0.0532
 1016YOPC   C1B13333  10.108  12.408   7.144  0.0042  0.1038  0.2669
 1016YOPC   C2B13334  10.151  12.388   7.580 -0.1819 -0.2853 -0.1082
 1016YOPC   D3B13335  10.061  12.391   8.002  0.0552  0.0457  0.4212
 1016YOPC   C4B13336  10.176  12.429   8.396  0.1806  0.0052 -0.1031
 1017YOPC   NC313337  15.525  11.670   6.186 -0.3473  0.1649  0.1249
 1017YOPC   PO413338  15.136  11.590   6.226 -0.0620 -0.2993 -0.0931
 1017YOPC   GL113339  15.116  11.591   6.724 -0.0183 -0.0488 -0.2632
 1017YOPC   GL213340  14.878  11.757   6.890 -0.0107 -0.1451  0.0753
 1017YOPC   C1A13341  15.119  11.312   7.091  0.1537  0.2992  0.1037
 1017YOPC   D2A13342  15.200  11.145   7.512 -0.1483  0.2068 -0.2374
 1017YOPC   C3A13343  14.956  11.021   7.878 -0.2414  0.2840 -0.0117
 1017YOPC   C4A13344  14.789  11.143   8.214  0.2763  0.2161 -0.0953
 1017YOPC   C1B13345  14.854  11.682   7.206  0.0410  0.1707  0.1074
 1017YOPC   C2B13346  15.121  11.637   7.474  0.1170 -0.2188  0.2627
 1017YOPC   D3B13347  15.073  11.924   7.898 -0.1450  0.0151  0.2351
 1017YOPC   C4B13348  14.973  12.119   8.262 -0.0091 -0.0737  0.1346
 1018YOPC   NC313349   1.324  11.721   5.916 -0.0053 -0.1814 -0.1008
 1018YOPC   PO413350   1.554  12.047   6.148 -0.1481 -0.1324  0.0287
 1018YOPC   GL113351   1.369  11.972   6.676  0.2290 -0.1319 -0.0356
 1018YOPC   GL213352   1.233  12.371   6.772 -0.1800 -0.2987 -0.1884
 1018YOPC   C1A13353   1.232  11.915   7.136  0.2724 -0.2085 -0.1192
 1018YOPC   D2A13354   1.346  11.939   7.520  0.1757  0.1243 -0.0215
 1018YOPC   C3A13355   1.146  11.618   7.833 -0.3378 -0.2189 -0.4096
 1018YOPC   C4A13356   0.800  11.586   8.088 -0.0317 -0.3285  0.3671
 1018YOPC   C1B13357   1.264  12.508   7.097 -0.5596 -0.1291  0.1291
 1018YOPC   C2B13358   1.054  12.592   7.450 -0.2033  0.1079 -0.5755
 1018YOPC   D3B13359   0.944  12.484   7.945  0.2473 -0.0066 -0.1881
 1018YOPC   C4B13360   1.165  12.696   8.391 -0.0252  0.0233 -0.0796
 1019YOPC   NC313361   4.277   7.450   5.539 -0.0618 -0.3300  0.4427
 1019YOPC   PO413362   4.122   7.197   5.895  0.1904 -0.1164  0.0749
 1019YOPC   GL113363   3.964   7.072   6.200  0.0321 -0.1662 -0.1171
 1019YOPC   GL213364   4.102   7.329   6.414  0.3236  0.3127 -0.0321
 1019YOPC   C1A13365   3.900   6.969   6.649 -0.2405  0.2950  0.2283
 1019YOPC   D2A13366   3.640   6.856   6.975  0.1222 -0.1812 -0.1468
 1019YOPC   C3A13367   3.806   6.847   7.311  0.0150  0.2212  0.2682
 1019YOPC   C4A13368   3.779   6.861   7.771 -0.0371  0.0477  0.0994
 1019YOPC   C1B13369   3.919   7.444   6.812  0.2053 -0.2665  0.1647
 1019YOPC   C2B13370   3.987   7.640   7.109 -0.0992  0.2386  0.1673
 1019YOPC   D3B13371   3.891   7.432   7.467  0.0797  0.0814 -0.0396
 1019YOPC   C4B13372   4.039   7.322   7.909  0.0173  0.0137 -0.1606
 1020YOPC   NC313373  14.196   4.184   5.653 -0.1514 -0.0483 -0.0802
 1020YOPC   PO413374  13.971   4.574   5.807  0.1384  0.0772  0.0660
 1020YOPC   GL113375  14.010   4.426   6.150 -0.0653 -0.1993  0.0788
 1020YOPC   GL213376  13.994   4.195   6.383  0.0946 -0.1668 -0.2519
 1020YOPC   C1A13377  14.397   4.504   6.443  0.0878  0.2173 -0.3049
 1020YOPC   D2A13378  14.669   4.900   6.478 -0.0033  0.3501 -0.1100
 1020YOPC   C3A13379  14.779   4.915   6.791 -0.1491  0.1643  0.0735
 1020YOPC   C4A13380  14.997   5.304   7.008 -0.1888  0.1829 -0.0334
 1020YOPC   C1B13381  13.867   4.420   6.673 -0.1670 -0.0199 -0.0800
 1020YOPC   C2B13382  13.765   4.557   7.028  0.2446 -0.0731 -0.1918
 1020YOPC   D3B13383  13.741   4.286   7.433  0.1997 -0.2685  0.2138
 1020YOPC   C4B13384  13.823   4.342   7.898  0.0512 -0.3374 -0.1023
 1021YOPC   NC313385  13.474  16.796   5.603 -0.1651 -0.3168 -0.2535
 1021YOPC   PO413386  13.492  16.508   6.006 -0.0160  0.0854  0.2193
 1021YOPC   GL113387  13.719  16.501   6.422 -0.2271  0.1697 -0.0089
 1021YOPC   GL213388  13.461  16.567   6.679  0.1576 -0.0844 -0.1910
 1021YOPC   C1A13389  14.097  16.405   6.578  0.1569  0.0167 -0.1593
 1021YOPC   D2A13390  14.379  16.606   6.750 -0.2167  0.4226 -0.0705
 1021YOPC   C3A13391  14.252  17.037   6.843 -0.0871  0.1587 -0.1606
 1021YOPC   C4A13392  14.322  17.486   6.771  0.2681 -0.0584 -0.1861
 1021YOPC   C1B13393  13.557  16.969   6.838 -0.1359  0.1493 -0.1909
 1021YOPC   C2B13394  13.387  17.353   7.021 -0.0162  0.1658 -0.1887
 1021YOPC   D3B13395  13.126  17.672   6.938  0.1193  0.0013 -0.1714
 1021YOPC   C4B13396  12.734  17.859   6.948  0.0032 -0.0277  0.1689
 1022YOPC   NC313397  11.068  13.664   6.048 -0.2118 -0.1228  0.1036
 1022YOPC   PO413398  10.627  13.562   6.043 -0.0476 -0.1836  0.0208
 1022YOPC   GL113399  10.759  13.516   6.413 -0.2696 -0.0703  0.0267
 1022YOPC   GL213400  10.675  13.296   6.572 -0.2204  0.2048 -0.0271
 1022YOPC   C1A13401  10.873  13.709   6.785  0.2597  0.0179 -0.1459
 1022YOPC   D2A13402  10.918  14.122   7.056  0.0839 -0.0788  0.1129
 1022YOPC   C3A13403  10.763  14.218   7.418  0.0352 -0.1495  0.0355
 1022YOPC   C4A13404  10.916  14.037   7.717  0.2463  0.0533  0.1238
 1022YOPC   C1B13405  10.682  13.298   7.019 -0.0067 -0.0304 -0.1087
 1022YOPC   C2B13406  10.539  13.133   7.462  0.2094 -0.0943 -0.1205
 1022YOPC   D3B13407  10.748  12.915   7.829 -0.1925  0.1220  0.0970
 1022YOPC   C4B13408  10.760  13.182   8.145 -0.2396 -0.3388 -0.1791
 1023YOPC   NC313409  11.041   0.967   5.953 -0.0749  0.1887  0.0122
 1023YOPC   PO413410  10.904   1.223   6.342 -0.4172  0.3020  0.2833
 1023YOPC   GL113411  11.157   1.218   6.732 -0.0148 -0.1992 -0.0508
 1023YOPC   GL213412  11.372   1.468   6.822  0.2071  0.0150  0.2573
 1023YOPC   C1A13413  11.084   1.235   7.090  0.2859 -0.1395 -0.1265
 1023YOPC   D2A13414  11.335   1.335   7.427  0.1324 -0.0780  0.2500
 1023YOPC   C3A13415  11.356   1.749   7.638  0.1092 -0.1695 -0.2382
 1023YOPC   C4A13416  11.372   2.139   7.882 -0.0285 -0.2873  0.0254
 1023YOPC   C1B13417  11.701   1.367   7.074  0.0002 -0.0752  0.0090
 1023YOPC   C2B13418  12.128   1.425   7.238  0.4741 -0.0556 -0.1190
 1023YOPC   D3B13419  12.375   1.218   7.258 -0.2010 -0.2743 -0.0304
 1023YOPC   C4B13420  12.850   1.277   7.400 -0.0191 -0.1710  0.0722
 1024YOPC   NC313421  16.387   0.883   6.048  0.0949  0.0269  0.2062
 1024YOPC   PO413422  16.285   0.613   6.282  0.1694  0.2480 -0.2768
 1024YOPC   GL113423  16.170   0.647   6.632 -0.3375 -0.2529  0.3373
 1024YOPC   GL213424  15.945   0.428   6.601 -0.0149  0.2279 -0.0346
 1024YOPC   C1A13425  16.309   0.729   7.062  0.0665 -0.1759 -0.1103
 1024YOPC   D2A13426  16.326   0.858   7.546  0.2491  0.1846 -0.1533
 1024YOPC   C3A13427  16.578   0.864   7.814 -0.3509 -0.0891  0.1362
 1024YOPC   C4A13428  16.637   0.982   8.254  0.1191  0.1993  0.0238
 1024YOPC   C1B13429  15.816   0.572   7.002  0.4608  0.1218 -0.0718
 1024YOPC   C2B13430  15.446   0.667   7.201 -0.1919  0.1161  0.1267
 1024YOPC   D3B13431  15.435   0.686   7.675  0.1846 -0.0806 -0.0160
 1024YOPC   C4B13432  15.416   0.868   8.072 -0.0871 -0.1628 -0.0453
 1025YOPC   NC313433  16.643   2.152   5.874 -0.1020 -0.2688  0.1628
 1025YOPC   PO413434  16.433   1.895   6.111 -0.3753 -0.1975 -0.0205
 1025YOPC   GL113435  16.536   1.731   6.430 -0.1497  0.1559  0.3958
 1025YOPC   GL213436  16.900   1.861   6.442 -0.0526  0.0763 -0.3184
 1025YOPC   C1A13437  16.565   1.955   6.848 -0.0353  0.0658  0.1064
 1025YOPC   D2A13438  16.630   1.976   7.310 -0.2458  0.0460  0.0397
 1025YOPC   C3A13439  16.665   1.791   7.709 -0.1464  0.2128 -0.0746
 1025YOPC   C4A13440  16.640   1.716   8.155 -0.3985 -0.0269  0.0455
 1025YOPC   C1B13441  17.197   1.910   6.714  0.0447 -0.2674 -0.0836
 1025YOPC   C2B13442  17.102   2.009   7.093 -0.1973  0.0579 -0.0783
 1025YOPC   D3B13443  17.398   2.012   7.439 -0.1496  0.0771  0.1226
 1025YOPC   C4B13444  17.606   1.755   7.705 -0.0240 -0.1513  0.3633
 1026YOPC   NC313445   0.305  14.474   6.327 -0.0499  0.2299  0.0966
 1026YOPC   PO413446  -0.105  14.385   6.600 -0.0952  0.1489  0.0233
 1026YOPC   GL113447  -0.146  14.373   6.944  0.0582 -0.0800 -0.1132
 1026YOPC   GL213448  -0.228  14.060   6.986 -0.1900  0.0546 -0.0235
 1026YOPC   C1A13449  -0.077  14.265   7.389  0.1946 -0.2435 -0.0191
 1026YOPC   D2A13450   0.020  14.182   7.780  0.0886 -0.0704 -0.1048
 1026YOPC   C3A13451   0.010  14.207   8.209  0.1459 -0.0840 -0.2500
 1026YOPC   C4A13452   0.304  14.139   8.613 -0.0542 -0.1865  0.0628
 1026YOPC   C1B13453  -0.534  14.086   7.255  0.1615  0.0511  0.2425
 1026YOPC   C2B13454  -0.589  14.294   7.661 -0.0340  0.0709 -0.1054
 1026YOPC   D3B13455  -0.445  14.137   7.982 -0.1365  0.1422 -0.0631
 1026YOPC   C4B13456  -0.473  13.867   8.336 -0.0938  0.1022 -0.2694
 1027YOPC   NC313457   1.859  11.976   6.570  0.1248 -0.2825 -0.0505
 1027YOPC   PO413458   2.147  12.459   6.575 -0.1393 -0.0918 -0.1491
 1027YOPC   GL113459   2.099  12.764   6.795  0.1994 -0.0697  0.0800
 1027YOPC   GL213460   1.705  12.659   6.880 -0.0313 -0.0493 -0.1532
 1027YOPC   C1A13461   2.131  13.028   7.100  0.1486  0.0620 -0.0052
 1027YOPC   D2A13462   2.120  13.316   7.440  0.2924 -0.2173  0.0538
 1027YOPC   C3A13463   2.001  13.445   7.936  0.2427 -0.2213 -0.0584
 1027YOPC   C4A13464   2.073  13.606   8.368  0.1072 -0.0357  0.1772
 1027YOPC   C1B13465   1.600  12.890   7.258  0.0327  0.1943  0.2470
 1027YOPC   C2B13466   1.354  12.837   7.726  0.2488 -0.3105  0.0193
 1027YOPC   D3B13467   0.942  13.020   7.774 -0.0002 -0.0452 -0.1024
 1027YOPC   C4B13468   0.715  12.927   8.234 -0.0525 -0.1129 -0.1961
 1028YOPC   NC313469   2.302   6.795   5.700 -0.1416  0.1660 -0.2999
 1028YOPC   PO413470   2.030   6.521   5.786  0.0017  0.3861  0.0261
 1028YOPC   GL113471   2.106   6.642   6.162  0.2821  0.2032 -0.0675
 1028YOPC   GL213472   2.029   6.949   6.262 -0.0991  0.0531  0.0980
 1028YOPC   C1A13473   2.000   6.470   6.527  0.1160 -0.3053 -0.1841
 1028YOPC   D2A13474   1.892   6.152   6.742  0.1100 -0.1683 -0.3900
 1028YOPC   C3A13475   1.835   6.263   7.094 -0.0845 -0.2019  0.0847
 1028YOPC   C4A13476   1.722   6.012   7.489 -0.1275 -0.0754  0.2456
 1028YOPC   C1B13477   1.882   6.906   6.566  0.0224  0.0029 -0.0607
 1028YOPC   C2B13478   2.037   6.801   6.994  0.1837  0.0978 -0.1513
 1028YOPC   D3B13479   1.875   6.732   7.352 -0.3568 -0.0163 -0.0994
 1028YOPC   C4B13480   1.948   6.676   7.824  0.1690  0.0767  0.1348
 1029YOPC   NC313481   8.503   2.370   5.846 -0.0540  0.5230 -0.1921
 1029YOPC   PO413482   8.321   2.739   5.912 -0.0805 -0.1671 -0.0305
 1029YOPC   GL113483   8.230   2.935   6.291  0.0989  0.1198  0.1785
 1029YOPC   GL213484   8.019   2.734   6.410  0.2217  0.1247  0.1105
 1029YOPC   C1A13485   8.341   3.073   6.762 -0.1777 -0.0021  0.1360
 1029YOPC   D2A13486   8.582   3.230   7.080  0.1860 -0.1274 -0.1433
 1029YOPC   C3A13487   8.438   3.158   7.567 -0.1270  0.2067  0.1475
 1029YOPC   C4A13488   8.497   3.241   7.978  0.2936  0.0264  0.2887
 1029YOPC   C1B13489   7.939   2.737   6.779 -0.1483  0.0467 -0.0303
 1029YOPC   C2B13490   8.054   3.004   7.160 -0.1243 -0.2118 -0.0471
 1029YOPC   D3B13491   7.979   2.909   7.554 -0.0055  0.2585 -0.0494
 1029YOPC   C4B13492   8.056   2.846   8.018 -0.0635  0.0642 -0.0821
 1030YOPC   NC313493  12.527  12.833   5.897  0.2257  0.1684  0.2204
 1030YOPC   PO413494  12.388  12.475   5.941  0.0285  0.1296 -0.0922
 1030YOPC   GL113495  12.467  12.572   6.407 -0.2109  0.3981 -0.0248
 1030YOPC   GL213496  12.313  12.666   6.660  0.0415 -0.0871 -0.0227
 1030YOPC   C1A13497  12.773  12.571   6.787 -0.0962  0.0391 -0.0098
 1030YOPC   D2A13498  12.825  12.346   7.183  0.1973  0.0723 -0.0477
 1030YOPC   C3A13499  12.617  12.482   7.513 -0.2280  0.3505  0.1845
 1030YOPC   C4A13500  12.510  12.738   7.778  0.2404 -0.2622 -0.4184
 1030YOPC   C1B13501  12.353  12.310   7.064 -0.1234  0.1144  0.1046
 1030YOPC   C2B13502  12.438  12.052   7.300 -0.2033 -0.0254  0.1523
 1030YOPC   D3B13503  12.389  12.035   7.707 -0.0609  0.1868 -0.0739
 1030YOPC   C4B13504  12.485  11.926   8.114  0.0958  0.0764  0.0030
 1031YOPC   NC313505  15.758   2.358   5.876  0.2137  0.0697  0.1085
 1031YOPC   PO413506  16.223   2.385   5.973  0.0642 -0.4347 -0.1911
 1031YOPC   GL113507  16.162   2.593   6.365 -0.3499 -0.1774  0.0168
 1031YOPC   GL213508  16.172   2.868   6.502 -0.4827  0.0852  0.1777
 1031YOPC   C1A13509  16.016   2.419   6.659  0.0564 -0.1223  0.1157
 1031YOPC   D2A13510  15.993   2.717   7.032  0.0220  0.1857 -0.0161
 1031YOPC   C3A13511  16.031   2.525   7.478 -0.2786 -0.0040  0.0404
 1031YOPC   C4A13512  15.995   2.497   7.970 -0.1565 -0.0839  0.1308
 1031YOPC   C1B13513  16.318   3.079   6.881  0.2087  0.2672  0.1022
 1031YOPC   C2B13514  16.265   3.445   6.979 -0.0094 -0.1981  0.0039
 1031YOPC   D3B13515  16.054   3.525   7.406 -0.1375 -0.1185 -0.1677
 1031YOPC   C4B13516  15.912   3.592   7.757  0.1243  0.2447  0.0255
 1032YOPC   NC313517   4.345   3.146   5.776  0.3101  0.1428 -0.0769
 1032YOPC   PO413518   4.423   3.102   6.242  0.1447 -0.0471 -0.1617
 1032YOPC   GL113519   4.298   3.070   6.584  0.2975 -0.0067  0.0365
 1032YOPC   GL213520   4.084   2.853   6.601 -0.2061  0.3248 -0.2649
 1032YOPC   C1A13521   4.313   3.142   7.021 -0.2037 -0.1059 -0.0663
 1032YOPC   D2A13522   4.253   2.964   7.471  0.2645  0.0870 -0.1176
 1032YOPC   C3A13523   4.228   3.134   7.849  0.1533  0.1048 -0.1192
 1032YOPC   C4A13524   4.192   3.390   8.173  0.0483 -0.0992 -0.0375
 1032YOPC   C1B13525   4.196   2.670   7.058 -0.0054  0.1726  0.0551
 1032YOPC   C2B13526   4.281   2.391   7.501 -0.0031 -0.1039  0.0520
 1032YOPC   D3B13527   4.560   2.204   7.710 -0.0094 -0.1215 -0.0309
 1032YOPC   C4B13528   4.837   1.973   7.999  0.0882 -0.1571 -0.0799
 1033YOPC   NC313529   9.353  16.126   6.590  0.3834  0.0064  0.1355
 1033YOPC   PO413530   8.912  16.152   6.809  0.0590 -0.1468  0.0524
 1033YOPC   GL113531   8.836  16.407   7.247  0.2382  0.2312  0.3927
 1033YOPC   GL213532   9.100  16.195   7.374  0.1746 -0.0564  0.0298
 1033YOPC   C1A13533   8.928  16.387   7.760 -0.0295  0.0014  0.0871
 1033YOPC   D2A13534   8.822  16.472   8.183  0.0932 -0.3199  0.1877
 1033YOPC   C3A13535   8.496  16.339   8.495 -0.2319  0.2971 -0.1715
 1033YOPC   C4A13536   8.119  16.132   8.698 -0.0703  0.0667 -0.1022
 1033YOPC   C1B13537   9.207  15.958   7.708 -0.0272  0.3818 -0.1344
 1033YOPC   C2B13538   9.272  16.091   8.056  0.2019 -0.1319 -0.2568
 1033YOPC   D3B13539   9.426  15.897   8.462  0.0396 -0.1620 -0.1417
 1033YOPC   C4B13540   9.630  15.793   8.846 -0.0551 -0.0682  0.0215
 1034YOPC   NC313541   0.541  17.698   5.569  0.3611  0.2327 -0.0015
 1034YOPC   PO413542   0.702  17.735   6.027  0.0089 -0.0608  0.1034
 1034YOPC   GL113543   0.458  17.657   6.369  0.0397  0.0020 -0.0457
 1034YOPC   GL213544   0.675  17.569   6.624 -0.1048  0.0577  0.1051
 1034YOPC   C1A13545   0.175  17.624   6.676 -0.0524  0.1722  0.0954
 1034YOPC   D2A13546  -0.210  17.730   6.828  0.0572 -0.0127 -0.2579
 1034YOPC   C3A13547  -0.386  17.550   7.175 -0.0291  0.1039  0.2606
 1034YOPC   C4A13548  -0.761  17.253   7.080 -0.1454  0.2168  0.1420
 1034YOPC   C1B13549   0.810  17.763   7.084 -0.0836  0.0137 -0.1021
 1034YOPC   C2B13550   0.598  18.183   7.290  0.0062 -0.0876 -0.0739
 1034YOPC   D3B13551   0.297  18.124   7.599 -0.1940  0.1918  0.2094
 1034YOPC   C4B13552   0.182  18.091   8.012 -0.0596 -0.0336 -0.0336
 1035YOPC   NC313553   4.644  10.435   5.790 -0.2477 -0.3721  0.2530
 1035YOPC   PO413554   4.474  10.694   6.110  0.1326  0.1300 -0.1267
 1035YOPC   GL113555   4.606  10.758   6.546 -0.0843 -0.1345 -0.1066
 1035YOPC   GL213556   4.384  10.870   6.776 -0.1912 -0.0423  0.1670
 1035YOPC   C1A13557   4.878  10.641   6.988 -0.2410  0.0859 -0.0410
 1035YOPC   D2A13558   5.110  10.809   7.388 -0.2296  0.0373  0.2240
 1035YOPC   C3A13559   5.078  11.032   7.709  0.1328 -0.3011  0.0500
 1035YOPC   C4A13560   5.082  10.988   8.204 -0.0917  0.0394 -0.0503
 1035YOPC   C1B13561   3.928  10.804   6.911  0.2763 -0.1464 -0.0383
 1035YOPC   C2B13562   3.580  10.552   6.947  0.0824 -0.1678 -0.0593
 1035YOPC   D3B13563   3.428  10.326   7.243  0.0554 -0.1653  0.2353
 1035YOPC   C4B13564   3.309  10.217   7.601 -0.2300  0.1826  0.5748
 1036YOPC   NC313565   6.582  14.381   5.811 -0.1053 -0.0216  0.1158
 1036YOPC   PO413566   6.603  14.151   6.165  0.1425 -0.1635  0.0571
 1036YOPC   GL113567   6.710  14.393   6.706  0.1075 -0.0478  0.1446
 1036YOPC   GL213568   6.668  14.695   6.746  0.0535 -0.3052  0.1835
 1036YOPC   C1A13569   6.582  14.272   7.130 -0.3569  0.1238 -0.1966
 1036YOPC   D2A13570   6.459  13.962   7.517  0.0954  0.0183  0.1282
 1036YOPC   C3A13571   6.665  14.040   7.894  0.0721  0.1482 -0.1006
 1036YOPC   C4A13572   6.612  14.014   8.468 -0.0005  0.2865  0.2058
 1036YOPC   C1B13573   6.603  14.849   7.139  0.0057  0.0090 -0.1652
 1036YOPC   C2B13574   6.657  15.006   7.518 -0.0813 -0.4940 -0.0470
 1036YOPC   D3B13575   6.691  15.395   7.457 -0.0262 -0.0082 -0.0783
 1036YOPC   C4B13576   6.771  15.325   7.054 -0.3012 -0.2676 -0.0298
 1037YOPC   NC313577  10.940   5.587   5.225 -0.5327 -0.0219  0.0064
 1037YOPC   PO413578  11.305   5.642   5.464 -0.1705 -0.1984 -0.0611
 1037YOPC   GL113579  11.363   5.594   5.915 -0.0696  0.0519 -0.1046
 1037YOPC   GL213580  11.480   5.398   6.162 -0.1459  0.1958 -0.2262
 1037YOPC   C1A13581  11.008   5.874   6.068  0.2434 -0.1901 -0.4473
 1037YOPC   D2A13582  10.828   5.840   6.405  0.0839  0.2829 -0.0446
 1037YOPC   C3A13583  10.947   5.985   6.838 -0.2751 -0.2539  0.0567
 1037YOPC   C4A13584  11.054   5.927   7.230  0.1274  0.1114  0.2457
 1037YOPC   C1B13585  11.955   5.634   6.286 -0.1592 -0.1698 -0.0029
 1037YOPC   C2B13586  12.353   5.618   6.528 -0.4027 -0.0406  0.0321
 1037YOPC   D3B13587  12.467   5.576   6.890  0.2674 -0.2318  0.0049
 1037YOPC   C4B13588  12.362   5.452   7.296  0.2824 -0.1083  0.1544
 1038YOPC   NC313589   1.241  13.028   5.786  0.0685  0.1031 -0.0963
 1038YOPC   PO413590   0.958  13.054   6.039 -0.1457 -0.0875  0.1389
 1038YOPC   GL113591   1.007  13.301   6.405  0.0985  0.0641  0.1194
 1038YOPC   GL213592   1.255  13.379   6.544  0.0169  0.0113 -0.2709
 1038YOPC   C1A13593   0.892  13.332   6.884  0.3546  0.2799  0.1204
 1038YOPC   D2A13594   1.068  13.042   7.179 -0.0083  0.3431  0.3136
 1038YOPC   C3A13595   1.277  13.261   7.360 -0.1377 -0.0074  0.0808
 1038YOPC   C4A13596   1.402  13.634   7.571  0.1474 -0.0853  0.3219
 1038YOPC   C1B13597   1.327  13.497   6.942 -0.0009 -0.1256  0.1870
 1038YOPC   C2B13598   1.506  13.829   7.094 -0.2683  0.1596  0.1549
 1038YOPC   D3B13599   1.344  14.174   6.924  0.0251 -0.1565 -0.1301
 1038YOPC   C4B13600   1.230  14.423   6.690  0.1623  0.2371 -0.1443
 1039YOPC   NC313601  16.255   9.655   5.611  0.1074 -0.1834 -0.0122
 1039YOPC   PO413602  16.322   9.316   5.664  0.1505  0.0255 -0.2522
 1039YOPC   GL113603  16.378   9.279   6.046  0.2348 -0.0840 -0.1205
 1039YOPC   GL213604  16.579   9.102   6.258 -0.1441  0.3611 -0.1571
 1039YOPC   C1A13605  16.436   9.561   6.404  0.0859 -0.0542 -0.0562
 1039YOPC   D2A13606  16.397   9.636   6.782 -0.1535  0.1960 -0.1802
 1039YOPC   C3A13607  16.126   9.921   6.896  0.1232  0.1932  0.1972
 1039YOPC   C4A13608  16.181  10.244   7.241  0.1906 -0.0727 -0.0921
 1039YOPC   C1B13609  16.582   9.171   6.735  0.0002  0.2028 -0.4434
 1039YOPC   C2B13610  16.707   9.264   7.147 -0.1238 -0.1159  0.1898
 1039YOPC   D3B13611  16.535   9.509   7.276  0.0939  0.0293  0.0395
 1039YOPC   C4B13612  16.224   9.827   7.446  0.0265  0.4308 -0.3105
 1040YOPC   NC313613   7.180   3.940   5.681  0.0818 -0.2688 -0.0616
 1040YOPC   PO413614   6.873   4.246   5.865 -0.0408 -0.1134  0.3793
 1040YOPC   GL113615   6.805   4.287   6.301 -0.2967 -0.0471  0.1676
 1040YOPC   GL213616   6.780   3.981   6.441  0.0947  0.3258 -0.0425
 1040YOPC   C1A13617   6.803   4.491   6.689  0.0450 -0.1795  0.0467
 1040YOPC   D2A13618   6.913   4.625   7.064 -0.0376  0.2023 -0.0775
 1040YOPC   C3A13619   7.142   4.530   7.355  0.0330 -0.0210  0.2553
 1040YOPC   C4A13620   6.851   4.396   7.822  0.2793 -0.1128  0.0659
 1040YOPC   C1B13621   6.421   4.090   6.588  0.0279 -0.0558  0.2615
 1040YOPC   C2B13622   6.136   4.161   6.848 -0.0813  0.1578 -0.1572
 1040YOPC   D3B13623   6.035   4.031   7.338  0.1779  0.0212 -0.0088
 1040YOPC   C4B13624   6.017   4.119   7.815 -0.0681  0.3641  0.0546
 1041YOPC   NC313625   5.160  15.078   6.574 -0.0942  0.2098 -0.0766
 1041YOPC   PO413626   5.617  15.029   6.446 -0.3152  0.3733 -0.0578
 1041YOPC   GL113627   5.706  15.093   6.873  0.2724  0.1792  0.3490
 1041YOPC   GL213628   5.391  15.257   6.998  0.1232 -0.1872  0.0561
 1041YOPC   C1A13629   5.780  14.945   7.366  0.3312  0.1305 -0.2912
 1041YOPC   D2A13630   5.852  14.829   7.809 -0.0401 -0.2059 -0.2121
 1041YOPC   C3A13631   5.605  14.607   8.066 -0.1614  0.3974  0.1415
 1041YOPC   C4A13632   5.336  14.476   8.458 -0.3293  0.1612 -0.2387
 1041YOPC   C1B13633   5.641  15.423   7.326  0.2771  0.3687  0.2802
 1041YOPC   C2B13634   5.703  15.442   7.750 -0.0002 -0.0238  0.0593
 1041YOPC   D3B13635   5.473  15.156   8.029  0.3160  0.1153  0.0988
 1041YOPC   C4B13636   5.424  14.983   8.436 -0.1154 -0.1254  0.0761
 1042YOPC   NC313637   5.568  10.169   5.945  0.0327  0.0438 -0.1216
 1042YOPC   PO413638   5.318   9.810   6.000  0.0632 -0.0716  0.1464
 1042YOPC   GL113639   5.475   9.900   6.475  0.0154  0.0041 -0.3910
 1042YOPC   GL213640   5.373   9.814   6.709  0.1068 -0.0760  0.1040
 1042YOPC   C1A13641   5.825  10.114   6.765 -0.1651 -0.3395 -0.1126
 1042YOPC   D2A13642   6.224  10.285   7.023 -0.1728  0.0438  0.1588
 1042YOPC   C3A13643   6.326  10.310   7.427 -0.0839  0.3185 -0.1401
 1042YOPC   C4A13644   6.364  10.126   7.805  0.0107 -0.1065 -0.2249
 1042YOPC   C1B13645   5.133   9.747   7.041  0.2520  0.1106  0.0990
 1042YOPC   C2B13646   5.033   9.830   7.446 -0.0541  0.0509 -0.0231
 1042YOPC   D3B13647   4.895  10.067   7.725 -0.0647  0.1057  0.2680
 1042YOPC   C4B13648   4.935  10.403   8.084 -0.2200  0.0383 -0.1543
 1043YOPC   NC313649  13.355   6.162   5.007  0.0539 -0.4927  0.1221
 1043YOPC   PO413650  13.455   6.440   5.336  0.3098 -0.2661  0.2782
 1043YOPC   GL113651  13.491   6.700   5.677 -0.0343  0.0882  0.4338
 1043YOPC   GL213652  13.340   6.601   6.015 -0.0413 -0.0320  0.1632
 1043YOPC   C1A13653  13.783   6.838   5.993  0.1694 -0.1668 -0.1069
 1043YOPC   D2A13654  13.792   6.670   6.416 -0.1913  0.2172 -0.1092
 1043YOPC   C3A13655  13.658   6.441   6.682  0.1938 -0.0751  0.5624
 1043YOPC   C4A13656  13.642   6.211   7.003  0.2676  0.1903 -0.0847
 1043YOPC   C1B13657  13.206   6.667   6.431  0.0624 -0.1723  0.0972
 1043YOPC   C2B13658  13.230   6.638   6.913  0.1965  0.0027  0.0994
 1043YOPC   D3B13659  13.299   6.411   7.323 -0.1677  0.0991 -0.0098
 1043YOPC   C4B13660  13.421   5.932   7.490  0.0582 -0.0668 -0.0555
 1044YOPC   NC313661   5.720   3.217   5.776 -0.0358  0.2156 -0.0821
 1044YOPC   PO413662   5.227   3.245   5.760 -0.1567 -0.3692 -0.0404
 1044YOPC   GL113663   5.463   3.466   6.079  0.1432 -0.1264 -0.1439
 1044YOPC   GL213664   5.760   3.463   6.222 -0.1421  0.4059 -0.0403
 1044YOPC   C1A13665   5.313   3.628   6.503 -0.2005 -0.2652 -0.0733
 1044YOPC   D2A13666   5.108   3.775   6.852 -0.0179 -0.2022 -0.1910
 1044YOPC   C3A13667   5.225   3.698   7.240  0.0685  0.3339  0.2108
 1044YOPC   C4A13668   5.085   3.529   7.615 -0.2564  0.0567 -0.3077
 1044YOPC   C1B13669   5.953   3.629   6.623 -0.0916  0.1474 -0.0525
 1044YOPC   C2B13670   6.094   3.631   7.032 -0.0586 -0.2159 -0.1700
 1044YOPC   D3B13671   6.484   3.436   7.177  0.2136  0.1446  0.3702
 1044YOPC   C4B13672   6.832   3.183   6.837  0.0641 -0.1607  0.0057
 1045YOPC   NC313673  14.961  17.439   6.301  0.0114  0.0100  0.0603
 1045YOPC   PO413674  15.337  17.472   6.394  0.0212 -0.1433 -0.3417
 1045YOPC   GL113675  15.376  17.370   6.756 -0.0349  0.3470 -0.0050
 1045YOPC   GL213676  15.608  17.245   6.791  0.0413  0.0432 -0.2377
 1045YOPC   C1A13677  15.317  17.489   7.187 -0.0448 -0.1085  0.2446
 1045YOPC   D2A13678  15.326  17.533   7.552  0.3306 -0.0294  0.3656
 1045YOPC   C3A13679  15.634  17.468   7.860  0.0825 -0.0032 -0.0461
 1045YOPC   C4A13680  15.675  17.434   8.314  0.0180 -0.1752 -0.4396
 1045YOPC   C1B13681  16.059  17.361   6.782 -0.0717  0.0994 -0.0104
 1045YOPC   C2B13682  16.440  17.295   6.986 -0.4030  0.2336 -0.1497
 1045YOPC   D3B13683  16.420  17.342   7.491 -0.2091 -0.0847  0.0328
 1045YOPC   C4B13684  16.504  17.514   7.956 -0.3608  0.2374 -0.1034
 1046YOPC   NC313685  15.557   9.865   5.973 -0.2438  0.1403  0.0446
 1046YOPC   PO413686  15.416  10.243   5.906  0.1124 -0.2498 -0.1087
 1046YOPC   GL113687  15.566  10.403   6.278  0.0762 -0.1497  0.1806
 1046YOPC   GL213688  15.550  10.158   6.471 -0.2507  0.3069 -0.1820
 1046YOPC   C1A13689  15.302  10.503   6.715 -0.1110 -0.0295 -0.0086
 1046YOPC   D2A13690  15.023  10.445   7.068  0.1427  0.0528 -0.0494
 1046YOPC   C3A13691  15.145  10.254   7.467 -0.0916  0.1645 -0.1274
 1046YOPC   C4A13692  15.203  10.041   7.796 -0.3041  0.2050  0.1090
 1046YOPC   C1B13693  15.282   9.827   6.605 -0.5306 -0.0802 -0.2208
 1046YOPC   C2B13694  15.261   9.421   6.752  0.0390 -0.0770  0.2301
 1046YOPC   D3B13695  15.290   9.445   7.010 -0.0864  0.0554  0.2319
 1046YOPC   C4B13696  15.311   9.745   7.412 -0.1514 -0.2075  0.1282
 1047YOPC   NC313697   3.982  17.036   6.273  0.1893 -0.0077 -0.1126
 1047YOPC   PO413698   3.626  16.865   6.466  0.2659 -0.0802  0.0897
 1047YOPC   GL113699   3.800  17.151   6.802  0.0351 -0.2170 -0.2733
 1047YOPC   GL213700   3.938  17.379   6.622 -0.2331  0.0135 -0.0342
 1047YOPC   C1A13701   3.914  17.411   7.225  0.0882 -0.2469 -0.1741
 1047YOPC   D2A13702   4.051  17.666   7.464 -0.0145  0.1163 -0.1355
 1047YOPC   C3A13703   4.121  17.538   7.899 -0.2968 -0.1482  0.0508
 1047YOPC   C4A13704   4.299  17.617   8.206 -0.0255 -0.2913 -0.2133
 1047YOPC   C1B13705   4.255  17.324   6.788 -0.1487 -0.2085  0.1283
 1047YOPC   C2B13706   4.469  17.420   7.128  0.1646  0.0347  0.2271
 1047YOPC   D3B13707   4.454  17.302   7.576 -0.1195  0.1199  0.2135
 1047YOPC   C4B13708   4.643  17.311   7.948 -0.2758 -0.0084  0.1944
 1048YOPC   NC313709   0.355   2.951   5.987  0.1309  0.3234  0.1863
 1048YOPC   PO413710  -0.070   3.043   5.768  0.2868 -0.0513 -0.3636
 1048YOPC   GL113711  -0.154   3.259   6.247  0.0097 -0.1399  0.2457
 1048YOPC   GL213712   0.201   3.233   6.352 -0.1153 -0.1352  0.0343
 1048YOPC   C1A13713  -0.059   3.285   6.743  0.1216  0.0392 -0.1863
 1048YOPC   D2A13714   0.031   3.236   7.160 -0.0732  0.0496  0.2958
 1048YOPC   C3A13715   0.126   2.976   7.510  0.0959 -0.2200  0.0431
 1048YOPC   C4A13716   0.053   3.157   7.950 -0.0276  0.2348  0.0383
 1048YOPC   C1B13717   0.428   3.216   6.771 -0.2567  0.0915  0.0927
 1048YOPC   C2B13718   0.653   3.309   7.118  0.4495  0.0305  0.0821
 1048YOPC   D3B13719   0.528   3.288   7.538 -0.0780 -0.1792 -0.3114
 1048YOPC   C4B13720   0.587   3.341   8.023 -0.1566 -0.0140  0.0347
 1049YOPC   NC313721  13.935   2.604   5.706  0.1549  0.1372  0.0582
 1049YOPC   PO413722  13.508   2.628   5.941 -0.0492 -0.1080  0.1546
 1049YOPC   GL113723  13.674   2.711   6.244 -0.1219  0.3129  0.1758
 1049YOPC   GL213724  13.741   2.458   6.551 -0.2590 -0.1170  0.1909
 1049YOPC   C1A13725  13.732   3.025   6.534 -0.1780 -0.0153  0.0340
 1049YOPC   D2A13726  13.818   3.274   6.874 -0.1416  0.0392  0.1582
 1049YOPC   C3A13727  14.012   3.168   7.207  0.0584 -0.3572  0.3153
 1049YOPC   C4A13728  14.013   3.345   7.568 -0.1088  0.1579  0.5012
 1049YOPC   C1B13729  13.745   2.670   6.912 -0.0977  0.2573  0.0347
 1049YOPC   C2B13730  13.768   2.707   7.351 -0.3019 -0.0212 -0.3054
 1049YOPC   D3B13731  13.806   2.435   7.648 -0.0210 -0.1591  0.0762
 1049YOPC   C4B13732  13.951   2.469   8.077 -0.1191  0.1903  0.2000
 1050YOPC   NC313733   6.531  16.729   6.401 -0.1160 -0.2819 -0.0470
 1050YOPC   PO413734   6.620  16.392   6.249 -0.0763 -0.0267 -0.3796
 1050YOPC   GL113735   6.738  16.210   6.690 -0.0634  0.0175  0.0777
 1050YOPC   GL213736   6.818  16.463   6.782 -0.1354  0.1349 -0.0069
 1050YOPC   C1A13737   6.786  15.991   7.012 -0.0231  0.0127 -0.0188
 1050YOPC   D2A13738   6.817  15.980   7.393  0.2409 -0.3947 -0.0201
 1050YOPC   C3A13739   6.885  16.272   7.774 -0.1796 -0.0805 -0.0361
 1050YOPC   C4A13740   7.104  16.516   8.101  0.0055 -0.0148  0.0735
 1050YOPC   C1B13741   6.823  16.536   7.257 -0.2214 -0.1091 -0.1729
 1050YOPC   C2B13742   6.882  16.753   7.533  0.4479  0.5141 -0.0559
 1050YOPC   D3B13743   6.786  16.820   7.902  0.1042  0.0629  0.1795
 1050YOPC   C4B13744   6.614  16.978   8.231 -0.0063  0.0139 -0.1115
 1051YOPC   NC313745  12.362  17.161   6.285  0.0430  0.3618 -0.2989
 1051YOPC   PO413746  12.760  17.099   6.342 -0.2133  0.0622 -0.2125
 1051YOPC   GL113747  12.718  17.262   6.740  0.0680  0.0060  0.0303
 1051YOPC   GL213748  12.457  17.468   6.781  0.3917 -0.1447  0.0721
 1051YOPC   C1A13749  12.918  17.259   7.131 -0.0966  0.2027  0.0251
 1051YOPC   D2A13750  13.228  17.394   7.533 -0.3013 -0.1309 -0.0580
 1051YOPC   C3A13751  13.109  17.386   8.013 -0.0363  0.1317  0.2440
 1051YOPC   C4A13752  13.289  17.687   8.293 -0.4574  0.2473 -0.0389
 1051YOPC   C1B13753  12.333  17.246   7.172 -0.1232  0.3323  0.2680
 1051YOPC   C2B13754  12.415  17.025   7.560  0.0466  0.2405  0.2198
 1051YOPC   D3B13755  12.641  16.709   7.841 -0.2315  0.0501 -0.1196
 1051YOPC   C4B13756  12.651  16.665   8.323 -0.0826 -0.1206 -0.1433
 1052YOPC   NC313757   6.036   2.106   6.032 -0.1340 -0.1313  0.0414
 1052YOPC   PO413758   6.208   2.557   6.176 -0.0100 -0.2260  0.3280
 1052YOPC   GL113759   6.290   2.976   6.509 -0.3593 -0.1534 -0.0226
 1052YOPC   GL213760   6.270   3.248   6.356 -0.3054 -0.2709  0.1243
 1052YOPC   C1A13761   6.148   3.126   6.874 -0.1271 -0.0710  0.0095
 1052YOPC   D2A13762   6.073   3.247   7.360  0.0602 -0.0681 -0.2463
 1052YOPC   C3A13763   6.298   3.048   7.711 -0.2458 -0.1998 -0.0187
 1052YOPC   C4A13764   6.007   2.951   8.157 -0.0758 -0.1592 -0.1289
 1052YOPC   C1B13765   6.452   3.504   6.728 -0.0423 -0.3119  0.1514
 1052YOPC   C2B13766   6.735   3.794   6.885 -0.0441  0.3560 -0.1267
 1052YOPC   D3B13767   6.520   3.993   7.141  0.2192  0.1691  0.2899
 1052YOPC   C4B13768   6.460   4.154   7.605 -0.2171 -0.0482  0.1506
 1053YOPC   NC313769  12.096   2.055   5.894  0.0387 -0.0900  0.1674
 1053YOPC   PO413770  12.180   2.478   6.036 -0.3237 -0.2216 -0.0846
 1053YOPC   GL113771  12.214   2.693   6.489 -0.2930  0.0966  0.0900
 1053YOPC   GL213772  12.029   2.909   6.570  0.1571  0.0577 -0.0378
 1053YOPC   C1A13773  12.363   2.693   6.972 -0.4003  0.0394 -0.0163
 1053YOPC   D2A13774  12.345   2.861   7.365 -0.1010  0.2005 -0.0171
 1053YOPC   C3A13775  12.458   3.296   7.369  0.2742  0.3212  0.0390
 1053YOPC   C4A13776  12.694   3.463   7.790  0.1422 -0.2884  0.1173
 1053YOPC   C1B13777  11.890   2.910   7.062 -0.1565 -0.4583  0.3117
 1053YOPC   C2B13778  11.836   3.001   7.464  0.0793  0.1670  0.0373
 1053YOPC   D3B13779  11.891   3.404   7.651  0.0143 -0.2571  0.0153
 1053YOPC   C4B13780  11.659   3.775   7.722  0.0452  0.0204 -0.2840
 1054YOPC   NC313781   3.961   8.375   5.908  0.0112  0.2434  0.0112
 1054YOPC   PO413782   3.999   8.861   5.817  0.0387 -0.1572 -0.2276
 1054YOPC   GL113783   4.047   8.664   6.327 -0.1234  0.0838 -0.0646
 1054YOPC   GL213784   3.860   8.464   6.429 -0.0835  0.1364  0.2900
 1054YOPC   C1A13785   4.200   8.565   6.769 -0.0747  0.2355 -0.1549
 1054YOPC   D2A13786   4.512   8.470   7.044 -0.0056 -0.2332  0.0216
 1054YOPC   C3A13787   4.704   8.442   7.527 -0.0787 -0.3345 -0.2281
 1054YOPC   C4A13788   5.209   8.599   7.610 -0.3732  0.1002 -0.0374
 1054YOPC   C1B13789   3.702   8.473   6.849  0.0792 -0.0517  0.0208
 1054YOPC   C2B13790   3.427   8.396   7.151  0.1876  0.0182 -0.1917
 1054YOPC   D3B13791   3.580   8.395   7.518 -0.2391 -0.3291 -0.1748
 1054YOPC   C4B13792   3.852   8.304   7.897  0.1645 -0.1967 -0.2098
 1055YOPC   NC313793  10.453  14.486   6.166  0.1073  0.0390 -0.1304
 1055YOPC   PO413794  10.865  14.461   6.280 -0.0684 -0.1633  0.1366
 1055YOPC   GL113795  10.909  14.437   6.659 -0.2421 -0.2531 -0.4907
 1055YOPC   GL213796  10.582  14.449   6.716  0.0553  0.1258 -0.5481
 1055YOPC   C1A13797  10.962  14.717   7.063 -0.0997 -0.0433  0.0233
 1055YOPC   D2A13798  10.949  14.828   7.445  0.1350  0.0469  0.1712
 1055YOPC   C3A13799  10.857  14.641   7.886 -0.3409 -0.2657 -0.1131
 1055YOPC   C4A13800  10.743  14.610   8.450 -0.5414  0.1479  0.0931
 1055YOPC   C1B13801  10.458  14.620   7.158  0.2253  0.0122  0.2977
 1055YOPC   C2B13802  10.515  14.617   7.517  0.0351 -0.0978  0.2212
 1055YOPC   D3B13803  10.532  14.941   7.857 -0.0908 -0.1686  0.2466
 1055YOPC   C4B13804  10.760  15.216   7.966  0.1028 -0.2151  0.3356
 1056YOPC   NC313805   5.275   8.262   6.076  0.2973  0.1589 -0.0516
 1056YOPC   PO413806   5.683   8.476   6.143  0.0722  0.1675  0.2821
 1056YOPC   GL113807   5.396   8.548   6.460 -0.3369  0.1720  0.1610
 1056YOPC   GL213808   5.390   8.267   6.574  0.1290  0.0554 -0.1693
 1056YOPC   C1A13809   5.549   8.668   6.881 -0.2136 -0.2623  0.2023
 1056YOPC   D2A13810   5.634   8.863   7.272  0.1604 -0.1301 -0.0267
 1056YOPC   C3A13811   5.728   8.826   7.679  0.1353  0.0455 -0.1181
 1056YOPC   C4A13812   5.837   8.950   7.982 -0.0651  0.0420  0.1404
 1056YOPC   C1B13813   5.477   8.146   6.933  0.1244  0.0380  0.0240
 1056YOPC   C2B13814   5.518   8.323   7.315 -0.0361  0.3042 -0.3691
 1056YOPC   D3B13815   5.630   8.118   7.727  0.0460  0.1418 -0.0838
 1056YOPC   C4B13816   5.323   7.891   8.011  0.2348 -0.0313  0.2064
 1057YOPC   NC313817   6.043  15.290   6.330  0.1761 -0.1096  0.1948
 1057YOPC   PO413818   6.544  15.405   6.317  0.1243 -0.0212  0.0242
 1057YOPC   GL113819   6.396  15.501   6.664  0.1164 -0.0045 -0.1173
 1057YOPC   GL213820   6.325  15.073   6.788 -0.2009 -0.1334 -0.1528
 1057YOPC   C1A13821   6.391  15.766   7.075 -0.0258 -0.2149 -0.0029
 1057YOPC   D2A13822   6.341  15.727   7.479  0.1933 -0.0846  0.3042
 1057YOPC   C3A13823   6.748  15.699   7.870  0.1255 -0.0732  0.1036
 1057YOPC   C4A13824   6.877  15.439   8.197 -0.1249  0.1365  0.3007
 1057YOPC   C1B13825   6.234  15.320   7.150  0.0407  0.0150  0.0336
 1057YOPC   C2B13826   6.208  15.183   7.621  0.0844 -0.2441  0.0876
 1057YOPC   D3B13827   6.345  15.418   8.035  0.1109  0.2202  0.0164
 1057YOPC   C4B13828   6.360  15.459   8.382  0.0207  0.0720  0.1485
 1058YOPC   NC313829   9.759   1.312   6.461 -0.0158 -0.2182  0.1109
 1058YOPC   PO413830   9.946   1.596   6.246 -0.2871  0.0401  0.0666
 1058YOPC   GL113831  10.148   1.602   6.724 -0.2043  0.3637  0.2467
 1058YOPC   GL213832  10.402   1.494   6.666  0.0013  0.0667 -0.4131
 1058YOPC   C1A13833  10.130   1.474   7.108  0.0591 -0.3354 -0.0732
 1058YOPC   D2A13834  10.126   1.312   7.470  0.0359 -0.2105  0.1321
 1058YOPC   C3A13835  10.126   1.596   7.802  0.2339  0.0844 -0.1791
 1058YOPC   C4A13836  10.420   2.008   8.008  0.0937 -0.4417  0.1914
 1058YOPC   C1B13837  10.630   1.440   7.046  0.2266  0.0453 -0.2210
 1058YOPC   C2B13838  10.570   1.480   7.482  0.0744  0.2537  0.1552
 1058YOPC   D3B13839  10.622   1.572   7.985 -0.2629  0.3446 -0.1793
 1058YOPC   C4B13840  10.686   1.690   8.373  0.2685 -0.1183  0.0357
 1059YOPC   NC313841  11.480   4.304   5.574 -0.0130 -0.0464 -0.0938
 1059YOPC   PO413842  11.418   4.716   5.381  0.3030  0.0691  0.0052
 1059YOPC   GL113843  11.368   4.690   5.944 -0.0433  0.0258  0.0048
 1059YOPC   GL213844  11.061   4.984   6.040 -0.1681 -0.1004 -0.4505
 1059YOPC   C1A13845  11.618   4.827   6.292  0.1291  0.1432 -0.0855
 1059YOPC   D2A13846  11.603   4.799   6.684  0.1924  0.2713  0.1047
 1059YOPC   C3A13847  11.603   5.095   7.014  0.1683 -0.1124 -0.2071
 1059YOPC   C4A13848  11.787   5.376   7.143 -0.3501 -0.1669 -0.2398
 1059YOPC   C1B13849  11.060   4.945   6.503 -0.0072 -0.0616  0.1873
 1059YOPC   C2B13850  11.064   5.067   6.960  0.1084  0.0144  0.0292
 1059YOPC   D3B13851  11.235   5.424   7.196 -0.0172 -0.2963  0.1863
 1059YOPC   C4B13852  11.382   5.649   7.556  0.2085  0.1440 -0.0218
 1060YOPC   NC313853   7.549   6.170   5.669  0.0101 -0.4827  0.0048
 1060YOPC   PO413854   7.642   6.394   5.984 -0.0194 -0.0174 -0.2216
 1060YOPC   GL113855   7.571   6.722   6.245 -0.4162 -0.3765  0.0753
 1060YOPC   GL213856   7.826   6.720   6.462 -0.0521  0.1681  0.2506
 1060YOPC   C1A13857   7.422   7.112   6.622  0.0509  0.3297  0.0384
 1060YOPC   D2A13858   7.409   7.253   7.079  0.0958  0.0692  0.3926
 1060YOPC   C3A13859   7.388   7.236   7.544 -0.0046 -0.1572 -0.1005
 1060YOPC   C4A13860   7.542   7.188   7.913  0.0336 -0.1242 -0.0385
 1060YOPC   C1B13861   7.955   6.519   6.821  0.1045 -0.0353 -0.2314
 1060YOPC   C2B13862   7.816   6.488   7.288 -0.2748  0.0527  0.3416
 1060YOPC   D3B13863   8.063   6.507   7.710  0.1698  0.0564 -0.1443
 1060YOPC   C4B13864   7.885   6.630   8.075 -0.0177  0.2049 -0.0001
 1061YOPC   NC313865   4.990   6.015   5.481 -0.2973  0.0249 -0.3438
 1061YOPC   PO413866   4.656   6.325   5.525 -0.2699  0.0535 -0.1838
 1061YOPC   GL113867   4.290   6.207   5.755 -0.1257  0.3845 -0.0707
 1061YOPC   GL213868   4.064   6.449   5.802  0.1108 -0.0689  0.1426
 1061YOPC   C1A13869   4.358   5.920   6.087 -0.1273  0.0129 -0.1013
 1061YOPC   D2A13870   4.243   5.525   6.242  0.0164 -0.0637  0.1411
 1061YOPC   C3A13871   4.383   5.384   6.612  0.1204  0.0766  0.3024
 1061YOPC   C4A13872   4.448   5.386   7.014  0.0346 -0.0482  0.0597
 1061YOPC   C1B13873   3.973   6.473   6.173  0.0027 -0.0075 -0.0847
 1061YOPC   C2B13874   4.193   6.373   6.676 -0.0650  0.0634 -0.1536
 1061YOPC   D3B13875   4.054   6.542   6.986 -0.0773 -0.5460 -0.0334
 1061YOPC   C4B13876   4.064   6.470   7.484 -0.2062  0.0852 -0.1570
 1062YOPC   NC313877   5.287   0.321   6.492  0.0695  0.0823  0.0103
 1062YOPC   PO413878   5.724   0.095   6.423  0.1316  0.0591  0.0362
 1062YOPC   GL113879   6.092   0.017   6.772  0.0238 -0.1090 -0.0398
 1062YOPC   GL213880   6.311   0.246   6.882 -0.2580 -0.1417  0.1390
 1062YOPC   C1A13881   5.903  -0.015   7.212  0.1047  0.0083 -0.0345
 1062YOPC   D2A13882   5.895   0.342   7.494 -0.0893  0.0435  0.0341
 1062YOPC   C3A13883   5.818   0.247   7.979 -0.1631 -0.0204 -0.0018
 1062YOPC   C4A13884   5.674   0.445   8.416  0.0371  0.1558 -0.2720
 1062YOPC   C1B13885   6.694   0.195   7.119  0.1180  0.4530 -0.2666
 1062YOPC   C2B13886   6.843   0.022   7.413  0.2691 -0.0771  0.0735
 1062YOPC   D3B13887   6.764   0.158   7.864 -0.1661  0.1213 -0.2407
 1062YOPC   C4B13888   6.808   0.395   8.233 -0.0174 -0.1813 -0.0442
 1063YOPC   NC313889   3.904   4.589   5.910 -0.1795 -0.4278  0.3156
 1063YOPC   PO413890   3.472   4.437   5.867  0.1835  0.1241  0.2012
 1063YOPC   GL113891   3.549   4.492   6.260 -0.0356  0.0294  0.3662
 1063YOPC   GL213892   3.884   4.524   6.424 -0.0896 -0.0517 -0.2770
 1063YOPC   C1A13893   3.367   4.374   6.609 -0.0620  0.1453 -0.1549
 1063YOPC   D2A13894   3.322   4.347   7.079  0.0156  0.1478  0.1191
 1063YOPC   C3A13895   3.267   4.650   7.388  0.0867 -0.1319 -0.0272
 1063YOPC   C4A13896   3.145   4.790   7.790 -0.2648 -0.1237  0.0005
 1063YOPC   C1B13897   3.771   4.434   6.838 -0.0183  0.0326 -0.2438
 1063YOPC   C2B13898   3.826   4.209   7.239  0.1843 -0.2602  0.3816
 1063YOPC   D3B13899   3.510   4.115   7.498 -0.1019 -0.1363  0.0781
 1063YOPC   C4B13900   3.299   3.767   7.605  0.3213  0.0301  0.0614
 1064YOPC   NC313901  13.826  14.921   6.366  0.3106 -0.2303  0.1746
 1064YOPC   PO413902  14.198  15.051   6.697  0.1677  0.2299  0.0970
 1064YOPC   GL113903  14.148  15.422   6.855 -0.0526 -0.0068 -0.1878
 1064YOPC   GL213904  14.038  15.693   6.831 -0.2528 -0.1597 -0.0791
 1064YOPC   C1A13905  14.122  15.473   7.307 -0.3126  0.0143 -0.0183
 1064YOPC   D2A13906  13.894  15.751   7.379  0.1214 -0.0898  0.0641
 1064YOPC   C3A13907  13.875  15.998   7.790  0.1391  0.0476 -0.3103
 1064YOPC   C4A13908  13.945  16.383   8.182 -0.0529 -0.1305  0.2312
 1064YOPC   C1B13909  13.743  16.014   6.898  0.3685  0.1586 -0.0546
 1064YOPC   C2B13910  13.662  16.323   7.140  0.1808 -0.2899  0.1035
 1064YOPC   D3B13911  13.939  16.343   7.444  0.0352 -0.0638  0.4016
 1064YOPC   C4B13912  14.254  16.419   7.790 -0.1183  0.1459 -0.1213
 1065YOPC   NC313913  16.251  10.481   5.607  0.0041 -0.4487 -0.0930
 1065YOPC   PO413914  16.469  10.114   5.829 -0.1166 -0.0227  0.0304
 1065YOPC   GL113915  16.403   9.995   6.231 -0.0802 -0.2348  0.0928
 1065YOPC   GL213916  16.495  10.082   6.506  0.1103  0.1111  0.1132
 1065YOPC   C1A13917  16.002   9.752   6.392  0.0459 -0.1170 -0.2386
 1065YOPC   D2A13918  15.690   9.693   6.870 -0.2004  0.2651  0.5782
 1065YOPC   C3A13919  15.803   9.885   7.224  0.1716  0.1315  0.0505
 1065YOPC   C4A13920  15.686  10.218   7.480 -0.0555 -0.1200 -0.2892
 1065YOPC   C1B13921  16.048  10.314   6.512 -0.1836 -0.1728  0.1208
 1065YOPC   C2B13922  15.811  10.352   6.910  0.0340 -0.4043 -0.2740
 1065YOPC   D3B13923  15.416  10.142   6.979  0.2409  0.2328 -0.1255
 1065YOPC   C4B13924  14.993   9.908   7.059 -0.1349  0.1418  0.1807
 1066YOPC   NC313925  10.093   4.763   5.553 -0.0264 -0.0960  0.2824
 1066YOPC   PO413926  10.066   4.464   5.882 -0.2325 -0.1118  0.1337
 1066YOPC   GL113927  10.153   4.561   6.268 -0.0496 -0.1953 -0.1147
 1066YOPC   GL213928  10.194   4.325   6.466 -0.0530  0.0181 -0.0509
 1066YOPC   C1A13929  10.064   4.950   6.523 -0.0402 -0.0336 -0.0662
 1066YOPC   D2A13930  10.013   5.231   6.907  0.0010 -0.1069 -0.1426
 1066YOPC   C3A13931   9.673   5.201   7.219  0.2590 -0.0887  0.3024
 1066YOPC   C4A13932   9.559   5.164   7.578  0.0522 -0.2400  0.1247
 1066YOPC   C1B13933  10.098   4.182   6.884  0.1048 -0.0928  0.0072
 1066YOPC   C2B13934   9.850   4.268   7.240  0.0063 -0.0092 -0.0777
 1066YOPC   D3B13935   9.729   4.154   7.704 -0.0270  0.1666 -0.1609
 1066YOPC   C4B13936   9.918   4.159   8.128  0.1708  0.0579 -0.1806
 1067YOPC   NC313937   8.232  12.624   5.571  0.0961 -0.1811 -0.0588
 1067YOPC   PO413938   8.283  12.782   6.017 -0.1680  0.2829  0.4030
 1067YOPC   GL113939   8.250  12.925   6.465 -0.2898 -0.1693  0.1974
 1067YOPC   GL213940   8.049  12.730   6.632  0.0179  0.1839  0.1400
 1067YOPC   C1A13941   8.379  13.169   6.825  0.0879  0.1547 -0.0020
 1067YOPC   D2A13942   8.254  13.419   7.181  0.2117  0.0798  0.0539
 1067YOPC   C3A13943   8.273  13.308   7.578 -0.2476  0.1471  0.1888
 1067YOPC   C4A13944   8.251  13.405   8.057  0.0510  0.3866  0.0205
 1067YOPC   C1B13945   8.377  12.557   6.965  0.5660 -0.2698  0.2512
 1067YOPC   C2B13946   8.727  12.417   7.312 -0.2225  0.1174 -0.1720
 1067YOPC   D3B13947   8.672  12.397   7.785 -0.1304  0.1064  0.0811
 1067YOPC   C4B13948   8.526  12.399   8.173 -0.0148 -0.2416  0.2658
 1068YOPC   NC313949  17.339  13.554   6.092 -0.0284 -0.0952 -0.0422
 1068YOPC   PO413950  17.737  13.399   6.284  0.2414 -0.0998 -0.2471
 1068YOPC   GL113951  17.924  13.197   6.614  0.1350  0.3408 -0.0718
 1068YOPC   GL213952  17.985  12.915   6.757 -0.0778 -0.2991  0.1749
 1068YOPC   C1A13953  18.043  13.330   7.002 -0.0371 -0.1436  0.0843
 1068YOPC   D2A13954  18.326  13.200   7.383  0.0281 -0.1660 -0.0581
 1068YOPC   C3A13955  18.316  12.798   7.392  0.0887  0.1471 -0.0884
 1068YOPC   C4A13956  18.237  12.439   7.584  0.1362 -0.0091  0.3581
 1068YOPC   C1B13957  17.945  12.845   7.048  0.0286 -0.1792  0.2524
 1068YOPC   C2B13958  17.786  13.034   7.373 -0.1864  0.5307 -0.4508
 1068YOPC   D3B13959  17.903  13.332   7.615 -0.0373  0.0935  0.0495
 1068YOPC   C4B13960  18.288  13.379   7.803  0.2227  0.2148 -0.0692
 1069YOPC   NC313961   0.063  15.246   6.131 -0.4247  0.0813  0.0842
 1069YOPC   PO413962   0.066  15.592   6.368 -0.1737  0.1651  0.0743
 1069YOPC   GL113963  -0.008  15.621   6.847  0.1393  0.1052  0.0680
 1069YOPC   GL213964   0.276  15.844   6.814 -0.0773  0.1831  0.0607
 1069YOPC   C1A13965  -0.062  15.242   7.105 -0.0919 -0.0303 -0.0413
 1069YOPC   D2A13966  -0.214  15.290   7.571  0.3385  0.2941 -0.0861
 1069YOPC   C3A13967  -0.050  15.231   7.865  0.1058  0.0175  0.1430
 1069YOPC   C4A13968   0.042  15.085   8.318  0.1628  0.2201 -0.1706
 1069YOPC   C1B13969   0.228  15.610   7.291  0.0404  0.1870  0.0221
 1069YOPC   C2B13970   0.354  15.340   7.545  0.0601 -0.2619  0.1905
 1069YOPC   D3B13971   0.313  15.509   7.990  0.1477  0.1208  0.0214
 1069YOPC   C4B13972   0.033  15.605   8.236 -0.1032 -0.1020 -0.1038
 1070YOPC   NC313973  15.984   8.164   5.980  0.1380 -0.3339 -0.0631
 1070YOPC   PO413974  16.286   7.850   5.923  0.2458  0.0708  0.3750
 1070YOPC   GL113975  16.190   7.762   6.329 -0.3008 -0.0653 -0.2932
 1070YOPC   GL213976  16.219   7.383   6.492  0.0103 -0.0073  0.4104
 1070YOPC   C1A13977  16.160   7.737   6.855  0.1035 -0.0857  0.3406
 1070YOPC   D2A13978  16.069   7.669   7.267  0.1800 -0.0774  0.0501
 1070YOPC   C3A13979  16.013   7.969   7.675  0.0130 -0.0544 -0.1447
 1070YOPC   C4A13980  15.736   7.977   8.083  0.2105 -0.2407 -0.2992
 1070YOPC   C1B13981  16.345   7.232   6.855 -0.2362  0.1956  0.0366
 1070YOPC   C2B13982  16.322   7.191   7.322  0.1641 -0.1653  0.2211
 1070YOPC   D3B13983  16.070   6.826   7.468  0.2417 -0.1481  0.0834
 1070YOPC   C4B13984  15.613   6.577   7.228 -0.4046 -0.2787  0.0728
 1071YOPC   NC313985  10.164  17.162   6.092  0.0550  0.0659 -0.1360
 1071YOPC   PO413986  10.291  17.497   6.472  0.0102 -0.1867 -0.0661
 1071YOPC   GL113987  10.214  17.381   6.932  0.0598  0.1115 -0.0029
 1071YOPC   GL213988  10.300  17.666   7.113  0.0304  0.1902  0.1780
 1071YOPC   C1A13989  10.375  17.198   7.397  0.1881  0.2118 -0.1423
 1071YOPC   D2A13990  10.321  17.219   7.786 -0.0190  0.1043 -0.2036
 1071YOPC   C3A13991  10.516  17.011   8.118  0.2723 -0.1164  0.0168
 1071YOPC   C4A13992  10.309  16.795   8.443  0.0192 -0.1187  0.0993
 1071YOPC   C1B13993  10.326  17.717   7.566 -0.1321  0.3146  0.1375
 1071YOPC   C2B13994  10.190  17.841   7.967  0.0414 -0.3156  0.1887
 1071YOPC   D3B13995  10.139  17.670   8.393 -0.0961  0.0594 -0.0571
 1071YOPC   C4B13996   9.870  17.717   8.758  0.1662  0.0793 -0.1214
 1072YOPC   NC313997  15.774   4.574   5.757 -0.0805  0.0361 -0.0318
 1072YOPC   PO413998  15.620   4.122   5.653  0.1104 -0.3935 -0.1620
 1072YOPC   GL113999  15.680   4.213   6.123 -0.0663  0.3312  0.0588
 1072YOPC   GL214000  15.668   4.502   6.376 -0.0191  0.0724  0.0242
 1072YOPC   C1A14001  15.933   3.884   6.227 -0.3273 -0.2771 -0.1642
 1072YOPC   D2A14002  15.954   3.592   6.589 -0.2261 -0.1231  0.3093
 1072YOPC   C3A14003  15.795   3.630   6.898  0.1839  0.3040 -0.0085
 1072YOPC   C4A14004  15.716   3.882   7.268 -0.1147  0.0044 -0.1240
 1072YOPC   C1B14005  15.626   4.763   6.758  0.2290  0.0123  0.1658
 1072YOPC   C2B14006  15.626   4.886   7.193 -0.0153  0.0410  0.2259
 1072YOPC   D3B14007  15.618   4.748   7.572 -0.0529  0.1365  0.1216
 1072YOPC   C4B14008  15.904   4.801   7.926  0.4043 -0.1292 -0.2245
 1073YOPC   NC314009  13.840   9.432   5.222  0.0158  0.1214 -0.0277
 1073YOPC   PO414010  14.108   9.180   5.553  0.0764  0.0838  0.0809
 1073YOPC   GL114011  14.011   9.019   6.082  0.1261 -0.0092 -0.3096
 1073YOPC   GL214012  14.187   8.949   6.299 -0.1125  0.0393 -0.0698
 1073YOPC   C1A14013  13.791   8.666   6.354 -0.1105  0.0162  0.2624
 1073YOPC   D2A14014  13.715   8.403   6.656  0.1163  0.0222  0.1722
 1073YOPC   C3A14015  13.589   8.146   6.647 -0.0848  0.1417  0.3299
 1073YOPC   C4A14016  13.267   7.918   6.733 -0.0827  0.2052  0.0164
 1073YOPC   C1B14017  14.025   8.951   6.749  0.0215  0.4562 -0.1951
 1073YOPC   C2B14018  13.988   8.889   7.214 -0.3130 -0.0337 -0.1681
 1073YOPC   D3B14019  14.284   8.947   7.587 -0.1028  0.2232 -0.1464
 1073YOPC   C4B14020  14.599   8.687   7.891 -0.1855  0.1065 -0.2347
 1074YOPC   NC314021   0.239  11.426   6.021 -0.1573  0.0736  0.0917
 1074YOPC   PO414022   0.606  11.492   6.305 -0.1777 -0.0628  0.0974
 1074YOPC   GL114023   0.616  11.161   6.539 -0.3943 -0.0671  0.1044
 1074YOPC   GL214024   0.916  11.109   6.582  0.0839  0.2201  0.0256
 1074YOPC   C1A14025   0.541  11.210   6.977 -0.0354  0.0225 -0.1194
 1074YOPC   D2A14026   0.598  11.115   7.446 -0.2386  0.0341  0.0513
 1074YOPC   C3A14027   0.858  10.724   7.618  0.0579  0.0121  0.3494
 1074YOPC   C4A14028   0.893  10.434   7.961 -0.0602 -0.1593 -0.2544
 1074YOPC   C1B14029   0.983  10.991   7.097 -0.0043  0.2512  0.1785
 1074YOPC   C2B14030   1.186  11.075   7.542  0.0666 -0.2890  0.0683
 1074YOPC   D3B14031   0.865  11.127   7.964 -0.0596  0.0895 -0.0996
 1074YOPC   C4B14032   0.899  10.888   8.242  0.2005 -0.3708  0.3053
 1075YOPC   NC314033   2.067   2.882   5.195 -0.1517  0.4486  0.1788
 1075YOPC   PO414034   2.055   3.119   5.615 -0.2183 -0.1557  0.0440
 1075YOPC   GL114035   1.936   3.166   6.127  0.1916  0.0511  0.1935
 1075YOPC   GL214036   1.665   3.340   6.239 -0.1169  0.0526  0.3904
 1075YOPC   C1A14037   1.983   3.000   6.563 -0.3856 -0.0042 -0.1447
 1075YOPC   D2A14038   1.862   2.819   7.010  0.0352  0.1316  0.2750
 1075YOPC   C3A14039   1.839   2.985   7.377  0.1155  0.0256  0.1619
 1075YOPC   C4A14040   1.533   3.123   7.622 -0.1568  0.2269 -0.0581
 1075YOPC   C1B14041   1.652   3.577   6.533 -0.1224  0.3447  0.0657
 1075YOPC   C2B14042   1.605   3.918   6.758 -0.0447  0.2834  0.1723
 1075YOPC   D3B14043   1.802   3.910   7.054 -0.3038 -0.0842 -0.0180
 1075YOPC   C4B14044   1.752   4.052   7.353 -0.0421  0.1118  0.1450
 1076YOPC   NC314045  15.531  16.057   6.403  0.0480 -0.2503 -0.1406
 1076YOPC   PO414046  15.926  15.995   6.663  0.1205  0.0625  0.0013
 1076YOPC   GL114047  15.746  15.791   6.976  0.4411 -0.2213  0.3193
 1076YOPC   GL214048  15.860  16.058   7.153  0.1494 -0.0695 -0.1110
 1076YOPC   C1A14049  15.515  15.829   7.398  0.3375  0.1381 -0.0422
 1076YOPC   D2A14050  15.179  15.808   7.640 -0.4525 -0.0084  0.1349
 1076YOPC   C3A14051  15.156  15.915   8.004 -0.1516 -0.0066 -0.0251
 1076YOPC   C4A14052  14.997  16.079   8.396  0.1138  0.0805  0.2215
 1076YOPC   C1B14053  15.884  16.089   7.573 -0.1010  0.2051  0.2247
 1076YOPC   C2B14054  15.615  15.918   7.860 -0.1055 -0.0136 -0.1120
 1076YOPC   D3B14055  15.502  15.472   7.852 -0.0350 -0.2280  0.0718
 1076YOPC   C4B14056  15.074  15.258   7.746  0.1730 -0.2584 -0.0916
 1077YOPC   NC314057  10.004   2.566   5.754 -0.0562  0.1850 -0.0177
 1077YOPC   PO414058  10.394   2.432   6.041  0.1026  0.3826 -0.2236
 1077YOPC   GL114059  10.338   2.348   6.473  0.0486  0.1055  0.1374
 1077YOPC   GL214060  10.152   2.082   6.587 -0.0144 -0.1730 -0.1446
 1077YOPC   C1A14061  10.449   2.389   6.974 -0.0634 -0.1832 -0.1403
 1077YOPC   D2A14062  10.590   2.503   7.437  0.1967 -0.1455  0.1993
 1077YOPC   C3A14063  10.339   2.511   7.755  0.2258 -0.0685 -0.0344
 1077YOPC   C4A14064  10.225   2.513   8.256 -0.1147  0.4856  0.2776
 1077YOPC   C1B14065   9.982   2.307   6.907  0.0994  0.1146  0.4286
 1077YOPC   C2B14066   9.618   2.305   7.256 -0.1062 -0.1049  0.0483
 1077YOPC   D3B14067   9.256   1.965   7.323  0.1018 -0.0549  0.1656
 1077YOPC   C4B14068   8.923   1.829   7.066  0.1457 -0.0119 -0.1330
 1078YOPC   NC314069   0.779   0.785   5.656  0.0615  0.0080  0.1082
 1078YOPC   PO414070   1.011   1.130   5.549  0.0575  0.1571  0.1354
 1078YOPC   GL114071   0.856   1.196   5.951  0.0498 -0.0225 -0.2176
 1078YOPC   GL214072   0.864   0.941   6.155 -0.1180 -0.0399  0.4441
 1078YOPC   C1A14073   0.604   1.277   6.428  0.0173 -0.2329 -0.2394
 1078YOPC   D2A14074   0.341   1.547   6.694  0.1242 -0.1281 -0.0649
 1078YOPC   C3A14075   0.570   1.521   7.139  0.0295  0.0024  0.0444
 1078YOPC   C4A14076   0.577   1.550   7.535  0.1640  0.2631  0.0702
 1078YOPC   C1B14077   0.902   0.806   6.523 -0.2838  0.3348  0.2391
 1078YOPC   C2B14078   0.949   0.643   6.947 -0.1164 -0.2337  0.0235
 1078YOPC   D3B14079   1.281   0.326   6.981 -0.1703  0.1383 -0.1731
 1078YOPC   C4B14080   1.640  -0.072   7.012  0.2218  0.0852  0.0076
 1079YOPC   NC314081   5.691   0.666   6.349 -0.0030  0.1198  0.0034
 1079YOPC   PO414082   6.100   0.485   6.459 -0.0201 -0.4170 -0.0621
 1079YOPC   GL114083   6.104   0.765   6.828  0.2400  0.1252 -0.1272
 1079YOPC   GL214084   5.833   1.055   6.976 -0.2813 -0.0066  0.0846
 1079YOPC   C1A14085   6.215   0.757   7.217  0.1285 -0.2752 -0.2787
 1079YOPC   D2A14086   6.109   0.865   7.669  0.1957  0.0454  0.1075
 1079YOPC   C3A14087   6.115   0.631   8.187 -0.0922 -0.4797  0.3880
 1079YOPC   C4A14088   6.392   0.414   8.534 -0.4477  0.0169 -0.1456
 1079YOPC   C1B14089   5.652   0.915   7.435  0.1145  0.2402 -0.0965
 1079YOPC   C2B14090   5.380   1.125   7.662 -0.1192  0.3008  0.0795
 1079YOPC   D3B14091   5.496   1.255   8.093  0.1647  0.1269  0.2035
 1079YOPC   C4B14092   5.653   1.027   8.441  0.4412 -0.0110 -0.1853
 1080YOPC   NC314093  17.265  14.779   6.659  0.2028 -0.2800  0.1040
 1080YOPC   PO414094  17.065  14.422   6.415 -0.2547 -0.0109  0.2783
 1080YOPC   GL114095  17.060  14.369   6.849 -0.1337  0.1154 -0.0524
 1080YOPC   GL214096  16.852  14.042   6.881 -0.1460  0.1944  0.1802
 1080YOPC   C1A14097  16.881  14.540   7.230 -0.0609  0.3367 -0.1277
 1080YOPC   D2A14098  16.853  14.907   7.492  0.1614  0.0719  0.2051
 1080YOPC   C3A14099  17.138  14.812   7.748 -0.0558 -0.0423  0.2232
 1080YOPC   C4A14100  17.527  14.662   8.084 -0.1260  0.2446  0.1626
 1080YOPC   C1B14101  16.524  14.192   7.147 -0.2275 -0.1405 -0.1879
 1080YOPC   C2B14102  16.626  14.271   7.549  0.3172  0.1959  0.0314
 1080YOPC   D3B14103  16.740  14.113   7.945 -0.0301 -0.2762 -0.2378
 1080YOPC   C4B14104  16.761  14.161   8.392 -0.1570 -0.4792 -0.0985
 1081YOPC   NC314105   3.537  14.019   5.669 -0.3320 -0.1397  0.2142
 1081YOPC   PO414106   3.369  14.262   6.018  0.0335  0.0776 -0.0483
 1081YOPC   GL114107   3.239  14.095   6.402 -0.0778  0.5185  0.0252
 1081YOPC   GL214108   2.897  14.112   6.491 -0.0209 -0.2474  0.1174
 1081YOPC   C1A14109   3.330  13.989   6.804 -0.3221 -0.1043 -0.1081
 1081YOPC   D2A14110   3.509  14.048   7.157  0.0964  0.1956  0.1317
 1081YOPC   C3A14111   3.712  14.478   7.222 -0.3002 -0.3163 -0.3539
 1081YOPC   C4A14112   3.742  14.873   7.512  0.0721 -0.2725  0.1821
 1081YOPC   C1B14113   2.773  13.836   6.760  0.2568 -0.0298 -0.1997
 1081YOPC   C2B14114   2.485  13.532   6.902  0.5175  0.1219  0.1635
 1081YOPC   D3B14115   2.540  13.651   7.419  0.0933  0.1010  0.5998
 1081YOPC   C4B14116   2.498  13.621   7.848  0.4620  0.1507 -0.2416
 1082YOPC   NC314117   1.150  10.863   5.866 -0.0425  0.2275  0.0114
 1082YOPC   PO414118   0.954  10.655   6.173  0.0054 -0.2687 -0.0541
 1082YOPC   GL114119   1.201  10.424   6.446 -0.4644  0.0877 -0.1228
 1082YOPC   GL214120   1.253  10.610   6.803 -0.1082 -0.0486 -0.1455
 1082YOPC   C1A14121   1.360  10.132   6.854 -0.0212  0.3042  0.0933
 1082YOPC   D2A14122   1.388  10.073   7.333 -0.0691  0.3098 -0.2752
 1082YOPC   C3A14123   1.262   9.729   7.619 -0.1040 -0.0279 -0.0392
 1082YOPC   C4A14124   0.985   9.364   7.551 -0.1566  0.0524  0.0590
 1082YOPC   C1B14125   1.412  10.569   7.145 -0.3073 -0.0384 -0.1739
 1082YOPC   C2B14126   1.292  10.520   7.603 -0.0405  0.0595  0.1057
 1082YOPC   D3B14127   1.301  10.101   7.945 -0.0971 -0.1725 -0.2671
 1082YOPC   C4B14128   1.287   9.700   8.098  0.2274 -0.1396 -0.0630
 1083YOPC   NC314129  10.824  10.834   6.294  0.1176 -0.0192  0.1572
 1083YOPC   PO414130  10.614  10.491   6.244 -0.1847  0.1595  0.0435
 1083YOPC   GL114131  10.394  10.492   6.579 -0.1802  0.1301 -0.2441
 1083YOPC   GL214132  10.183  10.792   6.453  0.1985  0.1552  0.0223
 1083YOPC   C1A14133  10.455  10.765   6.892 -0.0314  0.0448 -0.1287
 1083YOPC   D2A14134  10.659  11.078   6.940 -0.0444 -0.1120  0.0836
 1083YOPC   C3A14135  10.682  11.047   7.371  0.0516 -0.1443  0.1127
 1083YOPC   C4A14136  10.676  10.804   7.725  0.0669  0.1491  0.0398
 1083YOPC   C1B14137   9.892  11.229   6.617 -0.1727 -0.0915  0.0333
 1083YOPC   C2B14138   9.820  11.471   6.920 -0.1763 -0.2151  0.0741
 1083YOPC   D3B14139   9.760  11.379   7.340 -0.0538  0.1354  0.0954
 1083YOPC   C4B14140   9.815  11.466   7.790  0.2865  0.0103  0.1300
 1084YOPC   NC314141   4.815   9.790   6.138  0.1116 -0.2225  0.0211
 1084YOPC   PO414142   4.994   9.970   6.491  0.1419  0.2928  0.0934
 1084YOPC   GL114143   4.709  10.199   6.916  0.1132  0.0469 -0.0256
 1084YOPC   GL214144   4.432  10.409   6.866  0.2778 -0.0549  0.0816
 1084YOPC   C1A14145   4.681  10.244   7.317  0.1374 -0.0990 -0.0310
 1084YOPC   D2A14146   4.788  10.558   7.599 -0.5169  0.1984  0.1433
 1084YOPC   C3A14147   4.623  10.792   7.962  0.0690 -0.0084  0.2542
 1084YOPC   C4A14148   4.512  10.667   8.293 -0.2667 -0.0359  0.2389
 1084YOPC   C1B14149   4.303  10.506   7.218 -0.2148 -0.0340  0.1928
 1084YOPC   C2B14150   4.267  10.633   7.678  0.0730 -0.3229  0.0390
 1084YOPC   D3B14151   4.125  10.516   8.024 -0.0457  0.2313 -0.1969
 1084YOPC   C4B14152   4.022  10.381   8.417 -0.2739 -0.1708 -0.0734
 1085YOPC   NC314153  17.650   1.968   5.805  0.1607  0.0690 -0.0917
 1085YOPC   PO414154  17.348   1.662   5.804 -0.1257  0.0887  0.0203
 1085YOPC   GL114155  17.349   1.591   6.250 -0.1906  0.0699 -0.1908
 1085YOPC   GL214156  17.584   1.755   6.316  0.1647 -0.0685  0.1230
 1085YOPC   C1A14157  17.146   1.423   6.557 -0.1007  0.1972  0.1379
 1085YOPC   D2A14158  16.842   1.549   6.923 -0.0574  0.0452  0.3561
 1085YOPC   C3A14159  16.878   1.571   7.300  0.1661 -0.4752  0.0674
 1085YOPC   C4A14160  17.197   1.454   7.513  0.3756  0.1681  0.2181
 1085YOPC   C1B14161  17.663   1.870   6.760 -0.0452  0.0398  0.3355
 1085YOPC   C2B14162  17.787   1.713   7.152 -0.0441  0.1049  0.4284
 1085YOPC   D3B14163  17.940   1.910   7.452  0.0796 -0.0579  0.2239
 1085YOPC   C4B14164  18.091   1.956   7.840  0.0560  0.1439  0.1697
 1086YOPC   NC314165   6.880  15.115   6.505 -0.3028  0.0960 -0.1650
 1086YOPC   PO414166   7.400  15.166   6.584  0.1592 -0.0281  0.0479
 1086YOPC   GL114167   7.310  15.390   6.988  0.2638 -0.1754  0.0757
 1086YOPC   GL214168   7.609  15.407   7.211  0.0488  0.4056 -0.2046
 1086YOPC   C1A14169   7.171  15.671   7.185  0.0093  0.1444  0.0936
 1086YOPC   D2A14170   7.142  15.603   7.603 -0.3094  0.0261  0.2259
 1086YOPC   C3A14171   7.193  15.899   7.921  0.2933 -0.1403 -0.2177
 1086YOPC   C4A14172   6.860  15.980   8.307  0.1952 -0.1894 -0.1581
 1086YOPC   C1B14173   7.597  15.312   7.539  0.0322  0.0282 -0.0229
 1086YOPC   C2B14174   7.652  15.230   7.919 -0.2238  0.3787  0.0062
 1086YOPC   D3B14175   7.353  15.253   8.219 -0.1147  0.1737  0.2282
 1086YOPC   C4B14176   7.140  15.168   8.552  0.4023 -0.1384  0.1223
 1087YOPC   NC314177  15.366   3.181   5.507  0.1142 -0.0980 -0.1116
 1087YOPC   PO414178  15.455   3.214   5.965 -0.0752 -0.3445  0.1121
 1087YOPC   GL114179  15.560   3.125   6.370 -0.2865  0.0160  0.2698
 1087YOPC   GL214180  15.446   3.405   6.465 -0.0807 -0.0090 -0.2042
 1087YOPC   C1A14181  15.795   3.122   6.744  0.0039 -0.1131 -0.4168
 1087YOPC   D2A14182  15.827   3.139   7.187  0.0526  0.1520 -0.0187
 1087YOPC   C3A14183  15.555   3.349   7.412 -0.1935 -0.0694  0.0661
 1087YOPC   C4A14184  15.450   3.355   7.839  0.1576 -0.4410 -0.1024
 1087YOPC   C1B14185  15.372   3.350   6.893 -0.1108 -0.2559 -0.1783
 1087YOPC   C2B14186  15.125   3.310   7.207  0.1120  0.3599 -0.1340
 1087YOPC   D3B14187  15.187   3.665   7.419 -0.0198  0.2260  0.2550
 1087YOPC   C4B14188  15.425   3.847   7.681  0.1398  0.0159  0.0081
 1088YOPC   NC314189   0.681   8.810   5.267 -0.1914 -0.0195  0.2706
 1088YOPC   PO414190   0.375   8.891   5.601 -0.5018 -0.1484 -0.2654
 1088YOPC   GL114191   0.525   8.834   6.057  0.1105  0.4030 -0.0480
 1088YOPC   GL214192   0.657   9.084   6.294 -0.2375  0.0045 -0.4135
 1088YOPC   C1A14193   0.626   8.587   6.417 -0.0488  0.0815  0.0253
 1088YOPC   D2A14194   0.631   8.409   6.791 -0.0599  0.0203  0.0114
 1088YOPC   C3A14195   0.700   8.459   7.311 -0.0987  0.3428  0.0151
 1088YOPC   C4A14196   0.665   8.259   7.639 -0.1672 -0.1051 -0.1350
 1088YOPC   C1B14197   0.677   8.971   6.729  0.3503  0.0264 -0.0315
 1088YOPC   C2B14198   0.403   8.924   7.081  0.0620 -0.0586  0.0921
 1088YOPC   D3B14199   0.465   9.141   7.485  0.3608 -0.0414 -0.2555
 1088YOPC   C4B14200   0.583   9.111   7.832 -0.0389 -0.1683 -0.1567
 1089YOPC   NC314201   2.244  17.607   6.157 -0.0375  0.0264  0.1687
 1089YOPC   PO414202   2.115  17.983   6.024 -0.1408  0.0537  0.0377
 1089YOPC   GL114203   2.049  18.037   6.396  0.4580 -0.2540  0.0517
 1089YOPC   GL214204   2.291  17.844   6.627 -0.0521  0.2368  0.1774
 1089YOPC   C1A14205   1.755  18.087   6.745  0.1136 -0.1666  0.2956
 1089YOPC   D2A14206   1.718  18.290   7.155  0.2020 -0.2242 -0.2086
 1089YOPC   C3A14207   1.767  18.667   7.205  0.0477 -0.1722 -0.0783
 1089YOPC   C4A14208   1.826  19.060   6.906 -0.1201  0.2547  0.1011
 1089YOPC   C1B14209   2.147  17.846   6.972 -0.0144  0.0500 -0.0843
 1089YOPC   C2B14210   2.020  17.941   7.397 -0.1274  0.6864  0.0430
 1089YOPC   D3B14211   1.575  17.933   7.488 -0.0047 -0.0262 -0.0920
 1089YOPC   C4B14212   1.057  18.031   7.518 -0.1238  0.3514 -0.1828
 1090YOPC   NC314213  15.993  14.502   6.671 -0.0407 -0.0008 -0.3307
 1090YOPC   PO414214  15.622  14.492   6.781  0.1638  0.0402 -0.0180
 1090YOPC   GL114215  15.638  14.439   7.117  0.3164  0.0007 -0.0193
 1090YOPC   GL214216  16.028  14.383   7.156 -0.1087 -0.3473  0.0352
 1090YOPC   C1A14217  15.682  14.345   7.524 -0.1887  0.1799 -0.5293
 1090YOPC   D2A14218  15.802  14.430   7.883  0.1683  0.4186  0.0085
 1090YOPC   C3A14219  15.825  14.725   8.120 -0.3858  0.1066  0.0280
 1090YOPC   C4A14220  16.023  15.134   8.165  0.0334 -0.1651  0.3959
 1090YOPC   C1B14221  15.863  14.808   7.347 -0.1394 -0.0938  0.3142
 1090YOPC   C2B14222  16.089  15.053   7.405 -0.1170 -0.4724 -0.1857
 1090YOPC   D3B14223  16.326  15.046   7.755 -0.3133 -0.2503  0.2308
 1090YOPC   C4B14224  16.772  14.969   8.031 -0.0439 -0.0895 -0.0270
 1091YOPC   NC314225   5.486   7.165   6.079  0.0581 -0.2228  0.2778
 1091YOPC   PO414226   5.040   7.435   5.984 -0.1572 -0.0052  0.0507
 1091YOPC   GL114227   4.933   7.392   6.476  0.1788 -0.0747  0.2116
 1091YOPC   GL214228   5.181   7.249   6.621 -0.1090  0.1069 -0.1504
 1091YOPC   C1A14229   4.718   7.356   6.809 -0.1273  0.1357  0.1680
 1091YOPC   D2A14230   4.613   7.324   7.296  0.2300 -0.1024  0.0923
 1091YOPC   C3A14231   4.353   7.531   7.503  0.0320 -0.1435 -0.0337
 1091YOPC   C4A14232   4.475   7.550   7.978 -0.0543 -0.1732 -0.4153
 1091YOPC   C1B14233   5.468   6.864   6.716  0.3732  0.0227  0.1280
 1091YOPC   C2B14234   5.406   6.773   7.122 -0.3542 -0.0343 -0.2479
 1091YOPC   D3B14235   5.174   6.547   7.235  0.2383 -0.1674 -0.1439
 1091YOPC   C4B14236   4.780   6.259   7.322 -0.1332  0.1787  0.0275
 1092YOPC   NC314237   4.959   6.712   5.724 -0.1570  0.2431  0.1876
 1092YOPC   PO414238   5.396   6.733   5.835  0.0794  0.1384 -0.0152
 1092YOPC   GL114239   5.318   6.543   6.176 -0.1515  0.1752 -0.1955
 1092YOPC   GL214240   5.348   6.306   6.171  0.2123 -0.2039  0.0625
 1092YOPC   C1A14241   4.995   6.557   6.590  0.1334 -0.2380 -0.0779
 1092YOPC   D2A14242   4.637   6.460   6.943  0.2883  0.0391  0.1723
 1092YOPC   C3A14243   4.455   6.695   7.216  0.1352 -0.4731 -0.1801
 1092YOPC   C4A14244   4.283   6.957   7.584 -0.1109  0.0975 -0.1097
 1092YOPC   C1B14245   5.165   6.097   6.478  0.1662  0.1439  0.0227
 1092YOPC   C2B14246   4.971   6.116   6.815 -0.0550  0.1261 -0.0456
 1092YOPC   D3B14247   5.225   5.958   7.150 -0.0408 -0.1074 -0.2235
 1092YOPC   C4B14248   5.339   5.668   7.418  0.0513 -0.1613 -0.2862
 1093YOPC   NC314249  10.311  12.885   5.803 -0.1050  0.0050 -0.0963
 1093YOPC   PO414250  10.246  13.225   6.210  0.2199 -0.1012 -0.0453
 1093YOPC   GL114251  10.133  13.148   6.583 -0.0503  0.1603  0.3624
 1093YOPC   GL214252  10.184  13.414   6.749 -0.1680 -0.0501 -0.4429
 1093YOPC   C1A14253  10.125  12.987   7.017 -0.0184  0.0942 -0.2274
 1093YOPC   D2A14254  10.070  12.894   7.386 -0.1072 -0.1834  0.2969
 1093YOPC   C3A14255  10.246  12.802   7.754  0.0511 -0.0229 -0.3572
 1093YOPC   C4A14256  10.423  12.849   8.201 -0.0864  0.1736 -0.3847
 1093YOPC   C1B14257  10.193  13.464   7.163 -0.0547  0.2201  0.2678
 1093YOPC   C2B14258  10.075  13.340   7.529 -0.1461  0.0855 -0.2206
 1093YOPC   D3B14259  10.286  13.287   7.913 -0.1060  0.0822 -0.2927
 1093YOPC   C4B14260  10.158  13.190   8.328 -0.0893  0.0205  0.0281
 1094YOPC   NC314261   5.015  13.214   5.893 -0.2932 -0.0737  0.1136
 1094YOPC   PO414262   5.011  12.857   6.093  0.2017  0.0332 -0.0058
 1094YOPC   GL114263   5.112  12.805   6.533 -0.3081  0.0575 -0.1675
 1094YOPC   GL214264   5.440  12.873   6.514  0.0291 -0.0153  0.0268
 1094YOPC   C1A14265   5.118  13.042   6.897  0.0032 -0.0680 -0.1579
 1094YOPC   D2A14266   5.422  13.218   7.222  0.3308  0.2753  0.0743
 1094YOPC   C3A14267   5.296  13.273   7.633  0.0170 -0.1156 -0.0337
 1094YOPC   C4A14268   5.026  13.361   8.071 -0.1240 -0.0421 -0.3363
 1094YOPC   C1B14269   5.616  12.833   6.902 -0.0044 -0.0348 -0.0562
 1094YOPC   C2B14270   5.403  12.716   7.187 -0.1708 -0.0491  0.0287
 1094YOPC   D3B14271   5.460  12.755   7.590  0.1139 -0.0500 -0.1112
 1094YOPC   C4B14272   5.751  12.663   7.953 -0.0444 -0.1690  0.0525
 1095YOPC   NC314273   5.373  13.999   6.228 -0.0482  0.0947 -0.0590
 1095YOPC   PO414274   5.656  13.673   6.246 -0.2475  0.0040 -0.0299
 1095YOPC   GL114275   5.649  13.842   6.664  0.0328 -0.3364  0.2277
 1095YOPC   GL214276   5.684  14.275   6.550  0.1489  0.2049  0.1179
 1095YOPC   C1A14277   5.747  14.041   6.997  0.3334  0.0052 -0.1060
 1095YOPC   D2A14278   5.993  14.067   7.367  0.0386 -0.2422  0.0628
 1095YOPC   C3A14279   5.991  13.938   7.819 -0.0112  0.0115  0.3668
 1095YOPC   C4A14280   6.182  13.903   8.250 -0.2830  0.2220  0.3185
 1095YOPC   C1B14281   6.164  14.138   6.741 -0.0626 -0.2225 -0.2880
 1095YOPC   C2B14282   6.343  13.889   7.003  0.0081  0.0247  0.0833
 1095YOPC   D3B14283   6.714  13.782   7.019 -0.0523  0.1999  0.1623
 1095YOPC   C4B14284   7.023  13.708   6.763  0.2895 -0.2014  0.0338
 1096YOPC   NC314285  12.615  16.035   6.424  0.1933 -0.0014  0.3255
 1096YOPC   PO414286  12.905  15.738   6.305  0.1566  0.1998 -0.1881
 1096YOPC   GL114287  13.011  15.702   6.732  0.1485 -0.4314  0.0784
 1096YOPC   GL214288  12.703  15.709   6.918 -0.1094  0.2839  0.0991
 1096YOPC   C1A14289  13.266  15.704   7.105 -0.1880 -0.2911 -0.1975
 1096YOPC   D2A14290  13.446  15.960   7.465 -0.0001 -0.0084 -0.0878
 1096YOPC   C3A14291  13.498  16.352   7.612 -0.0411 -0.2628  0.1220
 1096YOPC   C4A14292  13.541  16.628   7.857  0.0892  0.0342 -0.1650
 1096YOPC   C1B14293  12.534  15.354   7.115  0.1867  0.2692 -0.0686
 1096YOPC   C2B14294  12.507  15.226   7.560 -0.3252 -0.2615  0.0113
 1096YOPC   D3B14295  12.835  15.238   7.827 -0.4427 -0.2500 -0.2450
 1096YOPC   C4B14296  13.090  15.517   7.985  0.0589  0.4304 -0.2956
 1097YOPC   NC314297  16.659  13.124   6.040 -0.0014 -0.0613 -0.1401
 1097YOPC   PO414298  16.979  13.263   6.230  0.4190 -0.0312  0.3378
 1097YOPC   GL114299  16.806  13.248   6.607 -0.0226  0.2893  0.4068
 1097YOPC   GL214300  16.887  13.164   6.809  0.1814 -0.2181 -0.3607
 1097YOPC   C1A14301  16.503  12.876   6.882 -0.1491 -0.3431 -0.0952
 1097YOPC   D2A14302  16.554  12.415   6.834 -0.1637  0.1422  0.2667
 1097YOPC   C3A14303  16.438  12.095   7.111 -0.0463  0.2705  0.4209
 1097YOPC   C4A14304  16.396  11.973   7.480  0.2678  0.2857 -0.0516
 1097YOPC   C1B14305  16.713  13.203   7.202 -0.0262  0.0785 -0.0097
 1097YOPC   C2B14306  16.842  13.284   7.665  0.0510 -0.0189  0.1079
 1097YOPC   D3B14307  16.628  13.199   8.056  0.1912  0.0537 -0.1566
 1097YOPC   C4B14308  16.363  13.296   8.448  0.0688 -0.3306  0.0136
 1098YOPC   NC314309   8.022   5.367   5.539 -0.1185 -0.2356 -0.0279
 1098YOPC   PO414310   8.021   5.599   5.909  0.2584  0.1368  0.0526
 1098YOPC   GL114311   7.996   5.557   6.360 -0.4271  0.0048  0.1329
 1098YOPC   GL214312   7.758   5.260   6.625 -0.1871  0.1017  0.0896
 1098YOPC   C1A14313   7.956   5.685   6.791  0.1632 -0.2548  0.0752
 1098YOPC   D2A14314   7.877   5.534   7.235 -0.1806 -0.0103  0.2919
 1098YOPC   C3A14315   8.027   5.756   7.541  0.1537  0.1887 -0.1004
 1098YOPC   C4A14316   8.243   5.744   7.935  0.0461  0.3004 -0.1076
 1098YOPC   C1B14317   7.745   5.072   7.010  0.0016 -0.0222 -0.2645
 1098YOPC   C2B14318   7.645   4.703   7.251  0.1893 -0.3655 -0.1503
 1098YOPC   D3B14319   7.544   4.668   7.621 -0.1421  0.1449 -0.1388
 1098YOPC   C4B14320   7.923   4.745   7.924  0.1226  0.2426 -0.0270
 1099YOPC   NC314321   9.874  17.703   6.815 -0.1750 -0.2826 -0.1118
 1099YOPC   PO414322  10.200  17.976   6.768 -0.0395  0.4696  0.1537
 1099YOPC   GL114323  10.336  18.163   7.128 -0.0636  0.0346  0.1856
 1099YOPC   GL214324  10.625  18.047   7.097 -0.0920  0.0849  0.0499
 1099YOPC   C1A14325  10.346  18.186   7.583 -0.3222 -0.1225  0.1052
 1099YOPC   D2A14326  10.423  18.270   8.050  0.0079 -0.0426 -0.1188
 1099YOPC   C3A14327  10.530  17.965   8.414  0.1301 -0.0213  0.0381
 1099YOPC   C4A14328  10.455  17.855   8.764 -0.1077  0.0619  0.0216
 1099YOPC   C1B14329  10.806  18.011   7.482 -0.0894 -0.0972 -0.0458
 1099YOPC   C2B14330  10.719  17.854   7.848 -0.0109 -0.0204  0.1173
 1099YOPC   D3B14331  10.911  18.146   8.133  0.0393  0.1701 -0.0350
 1099YOPC   C4B14332  10.883  18.452   8.501  0.1046 -0.0094 -0.5053
 1100YOPC   NC314333   8.437   0.969   6.259 -0.1293  0.0244 -0.0078
 1100YOPC   PO414334   8.812   0.789   6.559  0.2644  0.2381 -0.0661
 1100YOPC   GL114335   8.776   0.814   7.027  0.2286  0.0089  0.3945
 1100YOPC   GL214336   8.882   0.499   7.217 -0.2163 -0.0667 -0.0709
 1100YOPC   C1A14337   8.638   0.918   7.351 -0.1266  0.1623 -0.1116
 1100YOPC   D2A14338   8.493   0.853   7.756 -0.2445 -0.0171  0.1034
 1100YOPC   C3A14339   8.550   0.773   8.133 -0.1464  0.4251  0.2509
 1100YOPC   C4A14340   8.767   0.661   8.526 -0.1699  0.1134 -0.1978
 1100YOPC   C1B14341   8.759   0.496   7.649 -0.0091 -0.1233 -0.0393
 1100YOPC   C2B14342   8.784   0.323   8.012  0.0837  0.1947  0.0351
 1100YOPC   D3B14343   8.620   0.174   8.382 -0.0232 -0.2047  0.1739
 1100YOPC   C4B14344   8.753   0.206   8.815  0.0495  0.0188 -0.0908
 1101YOPC   NC314345   0.480   3.736   5.431  0.0600 -0.0065  0.1323
 1101YOPC   PO414346   0.606   3.930   5.881 -0.0427  0.1674 -0.3664
 1101YOPC   GL114347   0.491   3.820   6.278  0.0948 -0.0838  0.0764
 1101YOPC   GL214348   0.697   3.752   6.637 -0.0361  0.2331 -0.0650
 1101YOPC   C1A14349   0.263   3.657   6.593 -0.0997 -0.1254 -0.2995
 1101YOPC   D2A14350   0.267   3.612   6.995 -0.0340  0.1567 -0.5067
 1101YOPC   C3A14351   0.371   3.892   7.386 -0.0519 -0.1348  0.1052
 1101YOPC   C4A14352   0.549   3.914   7.790 -0.2879 -0.4732 -0.1104
 1101YOPC   C1B14353   0.855   3.767   7.037 -0.1230 -0.3312  0.1446
 1101YOPC   C2B14354   0.849   3.721   7.467  0.0528  0.0063 -0.2344
 1101YOPC   D3B14355   1.019   3.279   7.688 -0.2704 -0.2825  0.2372
 1101YOPC   C4B14356   1.143   2.783   7.866  0.1185  0.0222 -0.0066
 1102YOPC   NC314357   8.298   4.589   5.495 -0.0325  0.2858 -0.2070
 1102YOPC   PO414358   8.116   4.212   5.667  0.1371  0.1778  0.1420
 1102YOPC   GL114359   7.944   4.243   6.036 -0.0570  0.2107 -0.1476
 1102YOPC   GL214360   7.648   4.230   6.040  0.2252  0.1623 -0.2916
 1102YOPC   C1A14361   8.153   4.204   6.366  0.1582  0.0481  0.2255
 1102YOPC   D2A14362   8.353   4.210   6.737  0.1021 -0.0460 -0.2589
 1102YOPC   C3A14363   8.440   4.095   7.173 -0.1706 -0.0266  0.0197
 1102YOPC   C4A14364   8.374   4.133   7.510 -0.1285 -0.4948  0.2317
 1102YOPC   C1B14365   7.710   4.168   6.525  0.1109 -0.4228  0.1320
 1102YOPC   C2B14366   7.937   3.935   6.823 -0.1990 -0.2790  0.3256
 1102YOPC   D3B14367   7.994   3.966   7.212  0.1439  0.1751  0.1641
 1102YOPC   C4B14368   7.919   3.949   7.667  0.2417  0.0758  0.1255
 1103YOPC   NC314369   1.300   7.016   6.040 -0.2009 -0.0948  0.1663
 1103YOPC   PO414370   1.153   6.728   5.855  0.1698  0.0013  0.3328
 1103YOPC   GL114371   0.901   6.808   6.294 -0.1144 -0.0672 -0.0837
 1103YOPC   GL214372   0.592   6.588   6.347 -0.2514 -0.0959 -0.0479
 1103YOPC   C1A14373   1.021   6.892   6.620  0.3357 -0.3395 -0.0533
 1103YOPC   D2A14374   1.057   7.052   7.085 -0.0285  0.3556 -0.1374
 1103YOPC   C3A14375   1.056   7.017   7.509  0.0582 -0.2469  0.2271
 1103YOPC   C4A14376   0.968   6.827   7.879  0.2544 -0.0964  0.2676
 1103YOPC   C1B14377   0.675   6.533   6.738 -0.0878  0.1750 -0.2425
 1103YOPC   C2B14378   0.877   6.591   7.002  0.1004  0.1196  0.3915
 1103YOPC   D3B14379   0.911   6.497   7.445  0.2580  0.3251 -0.1706
 1103YOPC   C4B14380   1.032   6.309   7.869 -0.1022 -0.3689  0.0826
 1104YOPC   NC314381   2.396  15.209   6.377  0.1573 -0.0588 -0.2455
 1104YOPC   PO414382   1.950  15.007   6.225  0.0751  0.0997 -0.1514
 1104YOPC   GL114383   2.165  14.771   6.644 -0.1158  0.0954  0.1632
 1104YOPC   GL214384   2.514  14.657   6.559  0.0188  0.0629 -0.0733
 1104YOPC   C1A14385   2.202  14.720   7.049  0.2183 -0.0933  0.0671
 1104YOPC   D2A14386   2.142  14.615   7.436  0.0035  0.0001 -0.2821
 1104YOPC   C3A14387   2.368  14.293   7.506  0.1102 -0.1275  0.0486
 1104YOPC   C4A14388   2.664  14.047   7.738 -0.0700  0.1865 -0.1353
 1104YOPC   C1B14389   2.914  14.506   6.787  0.0531 -0.0807 -0.0865
 1104YOPC   C2B14390   3.238  14.507   7.057 -0.1732 -0.1415 -0.0836
 1104YOPC   D3B14391   3.412  14.867   7.134  0.2081 -0.1852  0.1685
 1104YOPC   C4B14392   3.851  14.921   6.982 -0.2566  0.3768  0.0532
 1105YOPC   NC314393   0.093  12.830   6.240  0.2361 -0.0013  0.3200
 1105YOPC   PO414394   0.557  12.897   6.368  0.0129 -0.0907 -0.2074
 1105YOPC   GL114395   0.877  12.836   6.640 -0.0266 -0.0846  0.1468
 1105YOPC   GL214396   0.784  12.640   6.901  0.1594 -0.0592  0.0392
 1105YOPC   C1A14397   1.303  12.870   6.754  0.1542 -0.1536  0.0361
 1105YOPC   D2A14398   1.616  13.112   6.755  0.0203  0.0135 -0.2552
 1105YOPC   C3A14399   1.754  13.372   7.154  0.1384  0.0049 -0.0952
 1105YOPC   C4A14400   1.700  13.156   7.637 -0.2540 -0.2197  0.0757
 1105YOPC   C1B14401   0.373  12.393   7.005 -0.0873 -0.0161  0.1367
 1105YOPC   C2B14402   0.041  12.465   7.292 -0.0218  0.1507 -0.1308
 1105YOPC   D3B14403  -0.048  12.578   7.750 -0.1256  0.3749 -0.0462
 1105YOPC   C4B14404  -0.410  12.661   7.933 -0.1325  0.2681 -0.1059
 1106YOPC   NC314405   3.147  15.101   6.109  0.1462  0.1294  0.0374
 1106YOPC   PO414406   2.739  14.948   6.173 -0.1029 -0.0461 -0.0103
 1106YOPC   GL114407   2.785  15.034   6.652  0.0291 -0.1980  0.1519
 1106YOPC   GL214408   3.087  14.962   6.699 -0.1806 -0.0693  0.0191
 1106YOPC   C1A14409   2.692  14.966   7.055 -0.2403  0.2906  0.0368
 1106YOPC   D2A14410   2.538  14.961   7.487  0.0888 -0.4122 -0.1067
 1106YOPC   C3A14411   2.622  14.641   7.748  0.2489  0.0185 -0.1348
 1106YOPC   C4A14412   2.387  14.401   8.004 -0.1057  0.0848 -0.3511
 1106YOPC   C1B14413   3.071  15.258   7.080 -0.0068 -0.0947  0.0427
 1106YOPC   C2B14414   2.956  15.215   7.460  0.2142  0.0820  0.1553
 1106YOPC   D3B14415   3.229  15.118   7.772 -0.1384 -0.2617 -0.0910
 1106YOPC   C4B14416   3.555  14.964   7.987  0.1349 -0.1570  0.0888
 1107YOPC   NC314417  14.608  10.395   5.891  0.2630  0.0834 -0.1656
 1107YOPC   PO414418  14.229  10.714   6.018  0.0474 -0.0258 -0.0807
 1107YOPC   GL114419  14.047  10.409   6.220 -0.0962 -0.0402 -0.1190
 1107YOPC   GL214420  14.262  10.100   6.275 -0.0097 -0.2680  0.0147
 1107YOPC   C1A14421  14.028  10.354   6.688 -0.0523 -0.2131 -0.0173
 1107YOPC   D2A14422  13.788  10.633   6.945  0.1672  0.2791 -0.1160
 1107YOPC   C3A14423  13.713  11.003   7.105 -0.0441 -0.3416  0.1427
 1107YOPC   C4A14424  13.458  11.261   7.440  0.2136 -0.1982  0.0947
 1107YOPC   C1B14425  14.488   9.807   6.494 -0.1822 -0.0994 -0.0075
 1107YOPC   C2B14426  14.638   9.695   6.827 -0.1370 -0.0115  0.3248
 1107YOPC   D3B14427  14.455   9.782   7.169  0.2949 -0.0069  0.1885
 1107YOPC   C4B14428  14.304   9.932   7.591  0.1483 -0.0033  0.3375
 1108YOPC   NC314429   9.191  10.161   6.071  0.1583 -0.1588 -0.1613
 1108YOPC   PO414430   8.922  10.523   5.975 -0.0079  0.3544  0.1573
 1108YOPC   GL114431   8.891  10.632   6.378 -0.2665  0.1245 -0.1891
 1108YOPC   GL214432   8.674  10.928   6.379 -0.2168 -0.0861 -0.2972
 1108YOPC   C1A14433   9.143  10.580   6.711  0.1156  0.0800  0.1385
 1108YOPC   D2A14434   9.222  10.744   7.064 -0.1170 -0.1704  0.0172
 1108YOPC   C3A14435   9.566  10.546   7.347 -0.1201 -0.3039 -0.3693
 1108YOPC   C4A14436   9.984  10.482   7.102 -0.0329 -0.0245  0.3489
 1108YOPC   C1B14437   8.646  10.867   6.838 -0.1958 -0.0578  0.0487
 1108YOPC   C2B14438   8.786  11.033   7.178 -0.0723 -0.2203  0.1537
 1108YOPC   D3B14439   8.983  11.405   7.060 -0.0040 -0.0888  0.0543
 1108YOPC   C4B14440   8.911  11.760   6.834  0.0336 -0.2781  0.0917
 1109YOPC   NC314441  11.600   2.111   6.440  0.0620  0.0603  0.3706
 1109YOPC   PO414442  12.077   2.133   6.455  0.2896 -0.1035 -0.1469
 1109YOPC   GL114443  11.957   2.109   6.798  0.1620 -0.1015  0.3546
 1109YOPC   GL214444  11.787   2.438   6.903 -0.0225  0.3154 -0.4111
 1109YOPC   C1A14445  11.967   1.942   7.202  0.0253 -0.2454 -0.3221
 1109YOPC   D2A14446  11.763   2.066   7.621  0.2015  0.1111 -0.0947
 1109YOPC   C3A14447  11.942   2.239   8.117 -0.1565 -0.0687  0.1225
 1109YOPC   C4A14448  12.055   2.657   8.265 -0.3219 -0.2562  0.3421
 1109YOPC   C1B14449  11.947   2.465   7.358 -0.2316  0.1774 -0.1603
 1109YOPC   C2B14450  12.128   2.525   7.723  0.1206  0.0340 -0.0454
 1109YOPC   D3B14451  12.487   2.392   8.048  0.1532  0.0530 -0.0407
 1109YOPC   C4B14452  12.847   2.626   8.218  0.1246  0.1545 -0.0876
 1110YOPC   NC314453   5.283   0.770   5.523  0.0615 -0.0568  0.4454
 1110YOPC   PO414454   5.343   0.794   5.942 -0.3531  0.0523  0.0571
 1110YOPC   GL114455   5.224   0.857   6.467  0.1120  0.0176  0.0042
 1110YOPC   GL214456   4.896   0.615   6.617  0.0557  0.0483 -0.0186
 1110YOPC   C1A14457   5.391   0.752   6.902  0.1896 -0.3731 -0.1722
 1110YOPC   D2A14458   5.358   0.535   7.270  0.0948 -0.2341 -0.0659
 1110YOPC   C3A14459   5.327   0.612   7.707 -0.0609 -0.1023 -0.0865
 1110YOPC   C4A14460   5.710   0.768   8.000 -0.0388 -0.2385  0.0213
 1110YOPC   C1B14461   4.913   0.714   7.044 -0.0070  0.1964  0.1310
 1110YOPC   C2B14462   4.927   0.932   7.486  0.0680  0.3131  0.0407
 1110YOPC   D3B14463   4.828   0.801   7.918 -0.0228  0.1141  0.1107
 1110YOPC   C4B14464   4.759   0.829   8.311  0.1662 -0.0355  0.0694
 1111YOPC   NC314465  10.842   8.068   6.189 -0.4790  0.0190 -0.0179
 1111YOPC   PO414466  10.400   7.998   6.200 -0.0969  0.1589  0.0384
 1111YOPC   GL114467  10.590   7.941   6.605 -0.4903  0.0611 -0.1499
 1111YOPC   GL214468  10.643   8.237   6.876 -0.0253 -0.2132 -0.1227
 1111YOPC   C1A14469  10.877   7.766   6.917  0.1354 -0.1172 -0.0871
 1111YOPC   D2A14470  11.007   7.538   7.230  0.1425 -0.0119 -0.1354
 1111YOPC   C3A14471  10.787   7.359   7.609 -0.1289 -0.0827  0.0448
 1111YOPC   C4A14472  10.494   7.588   8.008 -0.0437 -0.0562 -0.0860
 1111YOPC   C1B14473  10.616   8.115   7.222 -0.0633 -0.1103 -0.1098
 1111YOPC   C2B14474  10.555   8.006   7.690 -0.1433  0.0282 -0.2125
 1111YOPC   D3B14475  10.526   8.123   8.148  0.1067  0.2876  0.1874
 1111YOPC   C4B14476  10.728   7.941   8.493 -0.3693  0.1206  0.0689
 1112YOPC   NC314477   0.413   6.012   5.727 -0.1711  0.0048  0.4602
 1112YOPC   PO414478   0.694   6.184   6.034 -0.0609 -0.1442 -0.3241
 1112YOPC   GL114479   1.006   6.303   6.273 -0.2165 -0.0198  0.0140
 1112YOPC   GL214480   1.235   6.167   6.194  0.1894 -0.4336  0.0515
 1112YOPC   C1A14481   1.015   6.186   6.629  0.4143 -0.1158  0.3527
 1112YOPC   D2A14482   1.114   6.066   7.069  0.1904 -0.0615  0.0056
 1112YOPC   C3A14483   1.157   6.027   7.461  0.0270  0.1879 -0.1399
 1112YOPC   C4A14484   1.368   5.849   7.873  0.1950 -0.1638  0.0216
 1112YOPC   C1B14485   1.406   5.875   6.501  0.1419  0.1161 -0.3171
 1112YOPC   C2B14486   1.549   5.894   7.017 -0.0454  0.4152 -0.1472
 1112YOPC   D3B14487   1.552   5.559   7.370  0.2758 -0.0686  0.0354
 1112YOPC   C4B14488   1.309   5.372   7.756 -0.0852 -0.1912 -0.1486
 1113YOPC   NC314489  17.438   5.246   5.294  0.0243 -0.1099 -0.0017
 1113YOPC   PO414490  17.273   5.469   5.640  0.1469 -0.0561 -0.0296
 1113YOPC   GL114491  17.359   5.380   6.002  0.3624 -0.2821 -0.1224
 1113YOPC   GL214492  17.616   5.434   6.271 -0.2242  0.2107 -0.0469
 1113YOPC   C1A14493  17.135   5.538   6.488  0.0353  0.0233  0.0585
 1113YOPC   D2A14494  17.088   5.438   6.956 -0.0007  0.0710 -0.2235
 1113YOPC   C3A14495  17.101   5.330   7.427 -0.0165  0.2197  0.0672
 1113YOPC   C4A14496  16.841   5.338   7.781  0.1447 -0.1104 -0.2921
 1113YOPC   C1B14497  18.003   5.771   6.332  0.0578  0.4773 -0.2471
 1113YOPC   C2B14498  18.218   6.098   6.509  0.0587 -0.0042  0.4768
 1113YOPC   D3B14499  18.165   6.138   6.916 -0.1040  0.0409  0.1745
 1113YOPC   C4B14500  18.138   6.469   7.294  0.2312 -0.1946  0.1730
 1114YOPC   NC314501   3.643  11.503   6.371 -0.2722  0.1404  0.0028
 1114YOPC   PO414502   3.264  11.310   6.334  0.1142  0.1888 -0.0148
 1114YOPC   GL114503   3.365  11.415   6.858  0.0300 -0.1454  0.1947
 1114YOPC   GL214504   3.631  11.244   6.783 -0.1237  0.2797 -0.0746
 1114YOPC   C1A14505   3.391  11.399   7.253  0.2550  0.2195  0.1362
 1114YOPC   D2A14506   3.451  11.338   7.649 -0.0790  0.1340  0.3898
 1114YOPC   C3A14507   3.727  11.036   7.821 -0.2529  0.1518 -0.1068
 1114YOPC   C4A14508   3.749  10.809   8.193  0.1244 -0.1727 -0.1775
 1114YOPC   C1B14509   3.707  11.053   7.233 -0.1931  0.2870 -0.3896
 1114YOPC   C2B14510   3.847  10.647   7.445 -0.0417  0.0388  0.0139
 1114YOPC   D3B14511   3.719  10.495   7.761 -0.0797 -0.0876 -0.1370
 1114YOPC   C4B14512   3.585  10.305   8.193  0.1160  0.0512  0.0469
 1115YOPC   NC314513  14.096   1.868   5.864 -0.0138  0.1224 -0.3572
 1115YOPC   PO414514  13.747   1.801   6.144  0.0404 -0.0896  0.0104
 1115YOPC   GL114515  13.952   1.924   6.427 -0.1803 -0.1501 -0.1718
 1115YOPC   GL214516  14.236   1.942   6.714  0.0657 -0.2467 -0.2109
 1115YOPC   C1A14517  13.767   2.017   6.810  0.0535  0.0527  0.1894
 1115YOPC   D2A14518  13.843   2.099   7.216  0.3314 -0.3120  0.0587
 1115YOPC   C3A14519  14.196   2.185   7.420  0.1339  0.1351 -0.2354
 1115YOPC   C4A14520  14.370   2.358   7.785  0.2431  0.0264 -0.1569
 1115YOPC   C1B14521  14.316   1.811   7.108  0.2055  0.2082  0.0556
 1115YOPC   C2B14522  14.442   1.607   7.459  0.3634  0.0789  0.2108
 1115YOPC   D3B14523  14.315   1.557   7.928  0.1151  0.0814 -0.4853
 1115YOPC   C4B14524  14.332   1.389   8.347  0.2708  0.0702  0.0462
 1116YOPC   NC314525   1.627  15.931   6.494 -0.0573 -0.1994  0.2873
 1116YOPC   PO414526   1.664  16.397   6.628 -0.4228  0.1842 -0.0889
 1116YOPC   GL114527   1.645  16.610   6.954 -0.2282 -0.1370  0.0684
 1116YOPC   GL214528   1.371  16.594   7.071 -0.2050  0.1175 -0.2990
 1116YOPC   C1A14529   1.898  16.725   7.329 -0.1896  0.2427  0.0843
 1116YOPC   D2A14530   1.908  16.911   7.661  0.0678  0.2509 -0.0486
 1116YOPC   C3A14531   2.107  17.161   7.940  0.1991 -0.2245  0.0550
 1116YOPC   C4A14532   2.401  17.276   8.300 -0.1579  0.0885 -0.1734
 1116YOPC   C1B14533   1.132  16.438   7.330  0.1509 -0.0658  0.0825
 1116YOPC   C2B14534   1.267  16.211   7.687 -0.1338 -0.1356  0.0416
 1116YOPC   D3B14535   1.158  16.088   8.056 -0.0153  0.1597 -0.0435
 1116YOPC   C4B14536   1.290  15.777   8.300 -0.0539 -0.2224 -0.0908
 1117YOPC   NC314537  14.124  13.077   6.425  0.1923 -0.0593 -0.2485
 1117YOPC   PO414538  14.147  13.545   6.371  0.0483  0.0777  0.1091
 1117YOPC   GL114539  14.014  13.487   6.773  0.0890 -0.0852  0.2799
 1117YOPC   GL214540  13.720  13.577   6.843 -0.1758 -0.0778  0.0517
 1117YOPC   C1A14541  14.040  13.480   7.232  0.0002 -0.2566  0.1607
 1117YOPC   D2A14542  13.754  13.414   7.589  0.1067 -0.3042 -0.1526
 1117YOPC   C3A14543  13.651  13.885   7.647 -0.0249  0.1332  0.0860
 1117YOPC   C4A14544  13.413  14.027   7.875 -0.3103 -0.0160  0.0044
 1117YOPC   C1B14545  13.465  13.472   7.168  0.2284  0.0502  0.3484
 1117YOPC   C2B14546  13.242  13.507   7.585 -0.0330  0.2286  0.0207
 1117YOPC   D3B14547  13.277  13.131   7.765  0.0773 -0.4100  0.2096
 1117YOPC   C4B14548  12.908  12.960   8.071 -0.0915  0.2681  0.0316
 1118YOPC   NC314549  14.626   5.937   5.798  0.2213  0.0625 -0.2826
 1118YOPC   PO414550  14.283   5.544   5.817 -0.2809  0.2479 -0.0151
 1118YOPC   GL114551  14.143   5.862   6.208 -0.1174 -0.3233  0.2948
 1118YOPC   GL214552  14.444   6.127   6.256  0.0487  0.5037 -0.2763
 1118YOPC   C1A14553  13.905   6.111   6.383  0.0292 -0.0513 -0.1377
 1118YOPC   D2A14554  13.441   6.240   6.304  0.0244 -0.1646  0.1660
 1118YOPC   C3A14555  13.144   6.082   6.516 -0.0026  0.0305  0.0515
 1118YOPC   C4A14556  13.191   5.984   6.996  0.0949  0.0070  0.0510
 1118YOPC   C1B14557  14.389   5.945   6.645  0.0199 -0.0374  0.1568
 1118YOPC   C2B14558  14.093   5.844   6.768  0.2895  0.0099  0.1547
 1118YOPC   D3B14559  14.142   5.570   7.220  0.2153  0.1008  0.1200
 1118YOPC   C4B14560  14.182   5.532   7.697 -0.1053  0.0713 -0.1612
 1119YOPC   NC314561  14.984   4.917   6.062 -0.2651 -0.0563  0.0118
 1119YOPC   PO414562  15.405   4.949   5.891 -0.2576 -0.1361 -0.0357
 1119YOPC   GL114563  15.526   5.106   6.271 -0.2979 -0.2536 -0.0656
 1119YOPC   GL214564  15.216   4.806   6.482 -0.1554  0.0356 -0.1980
 1119YOPC   C1A14565  15.966   5.037   6.420 -0.2259  0.1771 -0.3551
 1119YOPC   D2A14566  16.309   4.999   6.571 -0.2235 -0.0282 -0.0854
 1119YOPC   C3A14567  16.355   4.995   6.920  0.0647  0.2338  0.2047
 1119YOPC   C4A14568  16.088   4.854   7.243 -0.0582 -0.2007  0.0185
 1119YOPC   C1B14569  15.174   4.875   7.076  0.1828 -0.0707 -0.1932
 1119YOPC   C2B14570  15.087   4.991   7.408 -0.1510 -0.0141 -0.1491
 1119YOPC   D3B14571  15.418   5.145   7.718  0.4567 -0.2262 -0.0044
 1119YOPC   C4B14572  15.445   5.324   8.025  0.0340 -0.0294  0.5536
 1120YOPC   NC314573   7.897   0.437   6.413 -0.0632  0.3536  0.0492
 1120YOPC   PO414574   7.517   0.505   6.429 -0.2309  0.3342  0.1950
 1120YOPC   GL114575   7.658   0.204   6.765  0.0305  0.3545  0.1398
 1120YOPC   GL214576   7.746  -0.165   6.843 -0.3499  0.2827 -0.2098
 1120YOPC   C1A14577   7.723   0.415   7.149 -0.1781  0.6178  0.0697
 1120YOPC   D2A14578   7.455   0.483   7.588  0.1179  0.0373 -0.1668
 1120YOPC   C3A14579   7.634   0.569   8.042  0.1234  0.1945  0.2150
 1120YOPC   C4A14580   7.733   0.760   8.455 -0.0629  0.1778 -0.0580
 1120YOPC   C1B14581   7.856  -0.390   7.228  0.1762  0.1323  0.0066
 1120YOPC   C2B14582   7.557  -0.428   7.663  0.2511  0.2370  0.0219
 1120YOPC   D3B14583   7.667  -0.308   8.040  0.0948 -0.3517  0.0790
 1120YOPC   C4B14584   7.685   0.092   8.168 -0.2280 -0.2745  0.2705
 1121YOPC   NC314585   5.690   9.472   5.837 -0.2843  0.0131  0.0132
 1121YOPC   PO414586   5.584   9.371   6.274  0.0675  0.0289  0.2499
 1121YOPC   GL114587   5.800   9.573   6.607 -0.3243 -0.2097 -0.1165
 1121YOPC   GL214588   6.092   9.778   6.583 -0.1085  0.1232 -0.1906
 1121YOPC   C1A14589   5.787   9.681   7.014 -0.0004  0.0004 -0.1032
 1121YOPC   D2A14590   5.556   9.850   7.353  0.0008 -0.0834 -0.2233
 1121YOPC   C3A14591   5.476   9.698   7.677  0.1618 -0.0517 -0.3391
 1121YOPC   C4A14592   5.102   9.723   8.006  0.1548  0.0944  0.1918
 1121YOPC   C1B14593   6.250   9.799   6.991  0.0156  0.0372 -0.0349
 1121YOPC   C2B14594   6.081   9.876   7.406  0.1706  0.0393  0.1000
 1121YOPC   D3B14595   6.278   9.575   7.724 -0.0259 -0.1383  0.1907
 1121YOPC   C4B14596   6.280   9.186   7.976 -0.3197  0.0473  0.1799
 1122YOPC   NC314597   7.070  12.285   5.942 -0.2985 -0.1249  0.3852
 1122YOPC   PO414598   6.978  12.505   6.300 -0.0251 -0.0980  0.0007
 1122YOPC   GL114599   7.281  12.387   6.648 -0.0778  0.0999  0.0183
 1122YOPC   GL214600   7.520  12.215   6.546 -0.0078 -0.0728  0.2863
 1122YOPC   C1A14601   7.245  12.265   7.038  0.1182  0.0062 -0.0491
 1122YOPC   D2A14602   7.179  12.163   7.419  0.1749  0.1738 -0.1246
 1122YOPC   C3A14603   7.206  12.466   7.702  0.2604  0.2633  0.1017
 1122YOPC   C4A14604   6.716  12.711   7.770 -0.0701 -0.2120  0.0646
 1122YOPC   C1B14605   7.691  11.997   6.901  0.2378  0.1513  0.0212
 1122YOPC   C2B14606   7.746  11.941   7.436 -0.2749  0.0518  0.0674
 1122YOPC   D3B14607   7.532  11.906   7.857 -0.0433 -0.0218  0.1207
 1122YOPC   C4B14608   7.357  11.890   8.249  0.1791  0.0967 -0.0514
 1123YOPC   NC314609  11.425   0.064   6.395 -0.0558 -0.1008  0.2249
 1123YOPC   PO414610  11.383   0.392   6.643 -0.1661 -0.1351  0.3172
 1123YOPC   GL114611  11.080   0.468   6.958 -0.3864 -0.1035  0.0237
 1123YOPC   GL214612  10.948   0.789   7.021 -0.0465  0.0229 -0.0913
 1123YOPC   C1A14613  11.269   0.368   7.327 -0.0312  0.2168 -0.0041
 1123YOPC   D2A14614  11.235   0.365   7.732  0.0856  0.1283  0.1407
 1123YOPC   C3A14615  11.295   0.080   7.992 -0.1259  0.1067 -0.2194
 1123YOPC   C4A14616  11.336  -0.333   8.025 -0.1218 -0.0981  0.1216
 1123YOPC   C1B14617  10.946   0.824   7.503  0.0099 -0.0233  0.1352
 1123YOPC   C2B14618  11.064   0.836   7.999 -0.1195 -0.2388  0.2150
 1123YOPC   D3B14619  11.392   0.629   8.159 -0.0937  0.1237 -0.1598
 1123YOPC   C4B14620  11.555   0.294   8.347  0.2911  0.1307 -0.0986
 1124YOPC   NC314621   2.310   8.872   6.249 -0.4013 -0.0858 -0.0036
 1124YOPC   PO414622   1.982   8.543   6.109  0.2249 -0.0217  0.1101
 1124YOPC   GL114623   2.195   8.444   6.460 -0.1596 -0.0470 -0.1396
 1124YOPC   GL214624   2.234   8.056   6.509  0.1788 -0.1476 -0.1247
 1124YOPC   C1A14625   2.128   8.341   6.939  0.1032  0.0281  0.1414
 1124YOPC   D2A14626   2.064   8.259   7.375 -0.0541 -0.1197  0.1637
 1124YOPC   C3A14627   2.200   8.084   7.729 -0.0906  0.0945 -0.0311
 1124YOPC   C4A14628   2.206   8.157   8.115 -0.1138  0.1186 -0.3021
 1124YOPC   C1B14629   1.752   7.933   6.740  0.1700  0.1533 -0.1893
 1124YOPC   C2B14630   1.584   8.204   7.129  0.0369  0.2403 -0.2806
 1124YOPC   D3B14631   1.499   8.519   6.890  0.4893  0.1326  0.1126
 1124YOPC   C4B14632   1.228   8.563   6.624 -0.3607 -0.4435 -0.1907
 1125YOPC   NC314633  17.321  12.089   5.983 -0.3669  0.0390  0.1369
 1125YOPC   PO414634  17.607  11.774   6.123 -0.3655  0.2822 -0.2537
 1125YOPC   GL114635  17.843  11.662   6.464  0.1405 -0.1068 -0.6182
 1125YOPC   GL214636  17.735  11.298   6.546  0.0064  0.0172  0.1525
 1125YOPC   C1A14637  17.934  11.613   6.902 -0.2034  0.0876  0.0729
 1125YOPC   D2A14638  17.938  11.535   7.303  0.0214  0.0956  0.1715
 1125YOPC   C3A14639  17.626  11.674   7.691  0.3506 -0.0864  0.0735
 1125YOPC   C4A14640  17.336  11.590   7.975  0.1388 -0.0752  0.4150
 1125YOPC   C1B14641  17.885  10.944   6.753  0.0183  0.3767  0.1700
 1125YOPC   C2B14642  18.201  10.768   7.042 -0.1862  0.1944  0.1501
 1125YOPC   D3B14643  18.014  10.694   7.520 -0.0757  0.0099  0.1640
 1125YOPC   C4B14644  18.164  10.817   7.924  0.2094  0.1251  0.2323
 1126YOPC   NC314645  12.791   1.673   5.905 -0.1682 -0.1201  0.1532
 1126YOPC   PO414646  12.656   1.473   6.275  0.0330  0.1246 -0.1829
 1126YOPC   GL114647  12.382   1.359   6.587  0.0729  0.1817  0.2257
 1126YOPC   GL214648  12.293   1.679   6.652 -0.3782  0.1548 -0.0267
 1126YOPC   C1A14649  12.564   1.074   6.865  0.2634  0.2314  0.2271
 1126YOPC   D2A14650  12.651   0.731   7.086  0.0502  0.1564  0.1988
 1126YOPC   C3A14651  12.606   0.870   7.524  0.0071  0.2209 -0.1066
 1126YOPC   C4A14652  12.809   1.121   7.853 -0.0722 -0.1916 -0.0820
 1126YOPC   C1B14653  12.465   1.709   7.017  0.0835  0.1436 -0.0585
 1126YOPC   C2B14654  12.495   1.672   7.446  0.0365  0.4283 -0.1472
 1126YOPC   D3B14655  12.407   1.466   7.666 -0.1558 -0.0290 -0.4473
 1126YOPC   C4B14656  12.403   1.366   8.125 -0.4026 -0.1837  0.3340
 1127YOPC   NC314657   7.502  10.175   5.861  0.0892 -0.3805 -0.0338
 1127YOPC   PO414658   7.852   9.893   6.164 -0.2030  0.0281 -0.2532
 1127YOPC   GL114659   7.819  10.005   6.605  0.0870  0.0198  0.2012
 1127YOPC   GL214660   7.824   9.767   6.750 -0.4455 -0.1156 -0.1923
 1127YOPC   C1A14661   8.092  10.136   6.926 -0.1173  0.2945 -0.1025
 1127YOPC   D2A14662   8.078  10.110   7.308  0.1676  0.2717  0.1757
 1127YOPC   C3A14663   8.058   9.795   7.449  0.2137 -0.0571  0.5222
 1127YOPC   C4A14664   7.979   9.360   7.426 -0.1148 -0.0606  0.1843
 1127YOPC   C1B14665   7.669   9.640   7.121  0.1932 -0.1296  0.1842
 1127YOPC   C2B14666   7.589   9.688   7.637 -0.1169  0.1625 -0.0497
 1127YOPC   D3B14667   7.791  10.049   7.861  0.4095 -0.1341 -0.0209
 1127YOPC   C4B14668   8.244  10.296   7.983 -0.1370  0.0493 -0.0129
 1128YOPC   NC314669   4.113   1.328   6.219 -0.1149 -0.1047 -0.0659
 1128YOPC   PO414670   3.686   1.229   6.145  0.0044  0.1250  0.0961
 1128YOPC   GL114671   3.701   1.344   6.480 -0.1378 -0.1918 -0.0381
 1128YOPC   GL214672   3.440   1.549   6.523 -0.2111  0.1433 -0.0652
 1128YOPC   C1A14673   3.996   1.348   6.890 -0.0371  0.1925 -0.2413
 1128YOPC   D2A14674   4.065   1.531   7.338 -0.0633 -0.1448  0.2066
 1128YOPC   C3A14675   3.824   1.502   7.716  0.2075 -0.0554 -0.0345
 1128YOPC   C4A14676   3.923   1.705   8.080  0.0432  0.1878 -0.1015
 1128YOPC   C1B14677   3.640   1.821   6.744  0.0039 -0.1494  0.0681
 1128YOPC   C2B14678   3.629   1.739   7.199 -0.1685  0.0661 -0.0783
 1128YOPC   D3B14679   3.402   1.943   7.558  0.2150  0.2591  0.0962
 1128YOPC   C4B14680   3.473   2.340   7.701  0.0973 -0.1173 -0.2427
 1129YOPC   NC314681  16.912  10.056   6.089 -0.0605 -0.3832 -0.0206
 1129YOPC   PO414682  16.718  10.436   6.130 -0.1187  0.2571  0.2854
 1129YOPC   GL114683  16.891  10.567   6.525  0.2300 -0.1440  0.0685
 1129YOPC   GL214684  16.807  10.882   6.652  0.3089  0.1543  0.3499
 1129YOPC   C1A14685  17.168  10.598   6.875  0.0933  0.0170 -0.3058
 1129YOPC   D2A14686  17.046  10.346   7.280 -0.1644  0.1158  0.3276
 1129YOPC   C3A14687  17.081  10.322   7.679  0.4756  0.1948  0.1801
 1129YOPC   C4A14688  16.762  10.405   7.943  0.2845  0.0209 -0.2029
 1129YOPC   C1B14689  16.942  11.056   7.073 -0.1523 -0.0557 -0.2011
 1129YOPC   C2B14690  17.175  10.930   7.264 -0.1363 -0.4065  0.2288
 1129YOPC   D3B14691  17.179  10.844   7.621 -0.0987 -0.1971 -0.0793
 1129YOPC   C4B14692  17.146  10.729   8.026 -0.3160 -0.0380  0.1043
 1130YOPC   NC314693  14.141   5.070   5.664  0.1789  0.0667  0.1030
 1130YOPC   PO414694  13.704   5.187   5.839 -0.3193  0.0005  0.2294
 1130YOPC   GL114695  13.824   5.211   6.169  0.0458 -0.2592 -0.3147
 1130YOPC   GL214696  13.872   4.878   6.276 -0.0349  0.0977  0.1934
 1130YOPC   C1A14697  14.141   5.388   6.505  0.0895 -0.2032 -0.1101
 1130YOPC   D2A14698  14.582   5.343   6.663  0.1208  0.0374  0.1038
 1130YOPC   C3A14699  14.475   5.165   7.110 -0.4548  0.1695  0.0355
 1130YOPC   C4A14700  14.540   5.116   7.389 -0.2255 -0.3024 -0.0053
 1130YOPC   C1B14701  14.059   4.852   6.706  0.1058 -0.0183  0.2591
 1130YOPC   C2B14702  14.311   4.707   6.968 -0.2629  0.0563 -0.1036
 1130YOPC   D3B14703  14.318   4.647   7.418  0.2423  0.2919 -0.0004
 1130YOPC   C4B14704  14.317   4.573   7.868  0.1151  0.2414  0.0002
 1131YOPC   NC314705  13.473  10.403   5.979  0.1022 -0.0010 -0.1872
 1131YOPC   PO414706  13.757  10.070   5.961 -0.1252 -0.0341  0.0738
 1131YOPC   GL114707  13.475   9.997   6.274  0.4039 -0.0738  0.1253
 1131YOPC   GL214708  13.375   9.650   6.453  0.1863  0.3202  0.2080
 1131YOPC   C1A14709  13.251  10.088   6.672 -0.0508  0.0208 -0.3423
 1131YOPC   D2A14710  13.157  10.354   7.031  0.1177  0.2012  0.2352
 1131YOPC   C3A14711  13.503  10.425   7.378 -0.1703 -0.1953 -0.0322
 1131YOPC   C4A14712  13.778  10.748   7.544  0.2352  0.0202 -0.3475
 1131YOPC   C1B14713  13.283   9.626   6.881  0.0657 -0.1323 -0.1930
 1131YOPC   C2B14714  13.175   9.306   7.181 -0.0748 -0.0462  0.0384
 1131YOPC   D3B14715  13.218   8.909   6.982 -0.0496  0.0745 -0.0071
 1131YOPC   C4B14716  13.577   8.725   6.950 -0.3394 -0.0769  0.0898
 1132YOPC   NC314717   2.350  15.930   5.977  0.2225  0.1795  0.2751
 1132YOPC   PO414718   2.429  15.741   6.297 -0.0487  0.1561 -0.1028
 1132YOPC   GL114719   2.453  15.582   6.685  0.1782 -0.0022  0.1087
 1132YOPC   GL214720   2.296  15.738   6.963 -0.1137  0.3489 -0.1088
 1132YOPC   C1A14721   2.645  15.425   7.146  0.1607  0.1982  0.0651
 1132YOPC   D2A14722   2.511  15.564   7.527 -0.1342  0.3223 -0.0696
 1132YOPC   C3A14723   2.569  15.392   7.816  0.0923 -0.1678  0.2206
 1132YOPC   C4A14724   2.760  15.058   7.936 -0.1468  0.1030 -0.0607
 1132YOPC   C1B14725   2.200  15.878   7.292 -0.1482 -0.0202 -0.0559
 1132YOPC   C2B14726   2.218  15.926   7.710 -0.0042 -0.2815  0.1263
 1132YOPC   D3B14727   2.165  15.674   8.021  0.1178 -0.1224 -0.2371
 1132YOPC   C4B14728   2.259  15.284   8.201  0.0580 -0.0041 -0.1589
 1133YOPC   NC314729   8.139   7.043   6.030 -0.0811 -0.0625  0.1081
 1133YOPC   PO414730   8.494   7.090   6.195  0.0668 -0.2279 -0.0556
 1133YOPC   GL114731   8.392   6.924   6.608  0.0826  0.2508 -0.0733
 1133YOPC   GL214732   8.441   6.609   6.492 -0.1402 -0.1223  0.1199
 1133YOPC   C1A14733   8.274   6.756   7.092  0.1522 -0.1821  0.1956
 1133YOPC   D2A14734   8.498   6.661   7.615 -0.0581 -0.0220  0.1147
 1133YOPC   C3A14735   8.393   6.756   8.054  0.0562  0.0399  0.2078
 1133YOPC   C4A14736   8.145   6.848   8.420  0.1042  0.1304  0.1253
 1133YOPC   C1B14737   8.382   6.195   6.665 -0.2265 -0.1168  0.4338
 1133YOPC   C2B14738   8.136   6.086   6.987 -0.3303  0.0190  0.1884
 1133YOPC   D3B14739   8.239   6.215   7.365 -0.0054  0.3090  0.1874
 1133YOPC   C4B14740   8.402   6.141   7.763 -0.1537  0.0382 -0.1679
 1134YOPC   NC314741   6.333   7.771   6.146  0.0057  0.2328  0.3065
 1134YOPC   PO414742   5.904   7.501   6.132  0.1025  0.1253 -0.0115
 1134YOPC   GL114743   5.845   7.384   6.420  0.0816  0.1634  0.0688
 1134YOPC   GL214744   6.188   7.391   6.529  0.0891  0.0674 -0.1628
 1134YOPC   C1A14745   5.630   7.333   6.756  0.2356  0.2544  0.0932
 1134YOPC   D2A14746   5.510   7.249   7.127  0.1631  0.0671 -0.1368
 1134YOPC   C3A14747   5.115   7.203   7.151 -0.0456  0.0486 -0.1298
 1134YOPC   C4A14748   4.884   6.935   6.963  0.0378  0.0555  0.0035
 1134YOPC   C1B14749   6.025   7.417   7.039 -0.2741 -0.0276 -0.2111
 1134YOPC   C2B14750   5.924   7.410   7.396  0.0779  0.2007  0.2713
 1134YOPC   D3B14751   5.670   7.139   7.638  0.0639  0.0554 -0.1237
 1134YOPC   C4B14752   5.244   6.942   7.661 -0.2417 -0.0577  0.0384
 1135YOPC   NC314753  16.694   2.643   5.937  0.3004  0.2789 -0.0395
 1135YOPC   PO414754  17.087   2.570   6.035  0.0536  0.2148  0.0869
 1135YOPC   GL114755  17.006   2.762   6.453  0.3987  0.0384  0.1038
 1135YOPC   GL214756  16.688   2.797   6.433 -0.2813  0.3553  0.0480
 1135YOPC   C1A14757  16.849   2.889   6.942 -0.1723 -0.2289 -0.1716
 1135YOPC   D2A14758  16.846   3.107   7.274 -0.0245 -0.1399  0.2977
 1135YOPC   C3A14759  16.841   2.762   7.570 -0.0230  0.2120 -0.2257
 1135YOPC   C4A14760  16.906   2.621   8.009  0.1207 -0.0894  0.0616
 1135YOPC   C1B14761  16.509   2.536   6.835 -0.1878 -0.0929  0.1324
 1135YOPC   C2B14762  16.302   2.300   7.098  0.0104  0.3373  0.2162
 1135YOPC   D3B14763  16.516   2.394   7.530 -0.0102 -0.0817 -0.2381
 1135YOPC   C4B14764  16.508   2.278   7.903  0.3335 -0.0122 -0.2522
 1136YOPC   NC314765   5.394  14.888   5.975  0.0674  0.0312 -0.1374
 1136YOPC   PO414766   5.321  14.607   6.433 -0.1209  0.2556  0.2116
 1136YOPC   GL114767   5.355  14.704   6.882  0.0507  0.0445 -0.2421
 1136YOPC   GL214768   5.647  14.495   6.994 -0.3993 -0.0250 -0.0793
 1136YOPC   C1A14769   5.235  14.800   7.234  0.1326  0.1816 -0.2493
 1136YOPC   D2A14770   5.189  15.161   7.495  0.3529 -0.1222 -0.1929
 1136YOPC   C3A14771   4.992  15.162   7.815  0.1242  0.0256  0.2088
 1136YOPC   C4A14772   5.018  15.312   8.312 -0.0041 -0.1169 -0.1702
 1136YOPC   C1B14773   5.659  14.454   7.454  0.0776 -0.0754  0.2927
 1136YOPC   C2B14774   5.512  14.193   7.697 -0.1565 -0.1635  0.0247
 1136YOPC   D3B14775   5.141  14.299   7.962  0.0046  0.1556  0.1571
 1136YOPC   C4B14776   4.939  14.246   8.348  0.1463  0.0146 -0.0668
 1137YOPC   NC314777  17.434  16.935   6.039  0.1979 -0.1114  0.1486
 1137YOPC   PO414778  17.122  16.657   6.316  0.2879  0.1893 -0.0361
 1137YOPC   GL114779  17.134  16.412   6.744  0.2218 -0.1283 -0.1473
 1137YOPC   GL214780  17.140  16.091   6.804 -0.1145 -0.0799  0.2404
 1137YOPC   C1A14781  17.285  16.536   7.283  0.0081 -0.0751 -0.1070
 1137YOPC   D2A14782  17.348  16.269   7.491 -0.4262  0.0131 -0.2038
 1137YOPC   C3A14783  17.193  16.262   7.843  0.0578  0.2116  0.0143
 1137YOPC   C4A14784  17.141  16.281   8.313  0.0875  0.2293  0.2213
 1137YOPC   C1B14785  17.273  15.947   7.120  0.0683 -0.1022  0.0540
 1137YOPC   C2B14786  17.467  15.734   7.353  0.2743 -0.1972  0.1079
 1137YOPC   D3B14787  17.523  15.753   7.779  0.2388  0.3388  0.1694
 1137YOPC   C4B14788  17.303  15.784   8.191 -0.0914 -0.2055 -0.3901
 1138YOPC   NC314789   5.187   1.983   6.289  0.1043  0.0227  0.0662
 1138YOPC   PO414790   5.536   2.034   6.146 -0.2970  0.0008 -0.1694
 1138YOPC   GL114791   5.718   2.074   6.515 -0.0494 -0.0585  0.1078
 1138YOPC   GL214792   5.884   2.423   6.575  0.0928 -0.0464  0.3855
 1138YOPC   C1A14793   5.979   2.053   6.950  0.3768 -0.1326  0.1404
 1138YOPC   D2A14794   6.386   2.272   7.103  0.3161  0.0794 -0.0542
 1138YOPC   C3A14795   6.517   2.529   7.525  0.2720  0.1572 -0.1542
 1138YOPC   C4A14796   6.599   2.658   7.893  0.0176 -0.0893  0.0361
 1138YOPC   C1B14797   6.020   2.630   6.939 -0.2089 -0.1997  0.0763
 1138YOPC   C2B14798   6.135   2.748   7.243  0.2377  0.0332 -0.1243
 1138YOPC   D3B14799   5.842   2.821   7.567 -0.0557 -0.1466 -0.2207
 1138YOPC   C4B14800   5.714   3.113   7.815  0.1412 -0.0352  0.1238
 1139YOPC   NC314801   0.929   2.314   5.935  0.0029  0.2234 -0.0275
 1139YOPC   PO414802   1.186   2.713   6.100 -0.0945  0.2058 -0.0221
 1139YOPC   GL114803   0.985   2.809   6.462  0.0950 -0.0872  0.2287
 1139YOPC   GL214804   0.680   2.929   6.443 -0.4403 -0.0472  0.1357
 1139YOPC   C1A14805   0.898   2.922   6.876 -0.1150  0.1575  0.1074
 1139YOPC   D2A14806   1.238   2.926   7.178 -0.2432 -0.3622 -0.0239
 1139YOPC   C3A14807   1.393   2.674   7.366  0.1311 -0.1482  0.0117
 1139YOPC   C4A14808   1.609   2.615   7.749 -0.0005 -0.0894  0.2466
 1139YOPC   C1B14809   0.350   2.675   6.671 -0.0820 -0.0072 -0.0711
 1139YOPC   C2B14810   0.196   2.706   7.031 -0.0677 -0.2215  0.2168
 1139YOPC   D3B14811   0.497   2.838   7.226  0.0980  0.1891 -0.0419
 1139YOPC   C4B14812   0.827   2.915   7.398 -0.5964  0.1732 -0.3095
 1140YOPC   NC314813   0.307  16.287   6.600  0.2127 -0.2639 -0.0617
 1140YOPC   PO414814   0.685  16.174   6.481  0.2266  0.0926 -0.0509
 1140YOPC   GL114815   0.845  16.101   6.854  0.0452  0.1137 -0.0941
 1140YOPC   GL214816   0.659  16.420   6.948 -0.1962  0.0226 -0.0101
 1140YOPC   C1A14817   0.647  15.956   7.233 -0.1680  0.2343 -0.0951
 1140YOPC   D2A14818   0.519  15.801   7.639 -0.3215  0.1734  0.1723
 1140YOPC   C3A14819   0.804  15.767   7.966  0.1071 -0.0605 -0.0453
 1140YOPC   C4A14820   0.810  15.994   8.437 -0.0434  0.1014 -0.1251
 1140YOPC   C1B14821   0.558  16.449   7.313  0.2292  0.0185  0.1916
 1140YOPC   C2B14822   0.728  16.234   7.685 -0.2133  0.2152  0.0781
 1140YOPC   D3B14823   0.772  16.405   8.147  0.0877 -0.2204 -0.1617
 1140YOPC   C4B14824   1.058  16.415   8.446  0.0620 -0.2212 -0.0028
 1141YOPC   NC314825  17.537   2.737   6.113  0.0208  0.0812 -0.0804
 1141YOPC   PO414826  17.611   2.312   6.123 -0.1111  0.0412 -0.1322
 1141YOPC   GL114827  17.407   2.352   6.451  0.0607 -0.1125 -0.1169
 1141YOPC   GL214828  17.606   2.331   6.696  0.0942  0.0785  0.0871
 1141YOPC   C1A14829  17.020   2.379   6.781 -0.0090  0.2325  0.1339
 1141YOPC   D2A14830  16.881   2.471   7.184 -0.1438 -0.0307  0.2686
 1141YOPC   C3A14831  17.008   2.232   7.630  0.1920 -0.2396  0.0625
 1141YOPC   C4A14832  17.397   2.321   7.800  0.1146  0.1096 -0.1932
 1141YOPC   C1B14833  17.688   2.244   7.085 -0.0212  0.0026  0.2189
 1141YOPC   C2B14834  17.790   2.413   7.497 -0.1162 -0.1825  0.3096
 1141YOPC   D3B14835  18.111   2.500   7.715  0.1145  0.0976  0.0171
 1141YOPC   C4B14836  18.317   2.885   7.876  0.0445  0.0342 -0.0355
 1142YOPC   NC314837   4.911   2.929   5.981  0.0957  0.2778  0.0882
 1142YOPC   PO414838   5.150   2.583   6.201 -0.2704  0.1372  0.0098
 1142YOPC   GL114839   5.236   2.414   6.587  0.0029 -0.3031 -0.0762
 1142YOPC   GL214840   5.059   2.209   6.720  0.1878 -0.1834 -0.0447
 1142YOPC   C1A14841   5.561   2.441   6.897 -0.4401 -0.0258  0.0961
 1142YOPC   D2A14842   5.703   2.387   7.272  0.1562  0.0726  0.1548
 1142YOPC   C3A14843   6.024   2.266   7.463  0.0189 -0.1071 -0.0416
 1142YOPC   C4A14844   6.154   2.405   7.901  0.2025 -0.2381  0.1625
 1142YOPC   C1B14845   5.159   2.234   7.185 -0.0596 -0.1059  0.0390
 1142YOPC   C2B14846   5.041   2.188   7.574  0.0727  0.2498 -0.1058
 1142YOPC   D3B14847   5.303   2.365   7.885 -0.1480 -0.1150 -0.0429
 1142YOPC   C4B14848   5.630   2.620   8.137 -0.0114 -0.1091 -0.4660
 1143YOPC   NC314849   4.451   0.342   6.307 -0.0750  0.0620  0.0469
 1143YOPC   PO414850   4.008   0.034   6.317 -0.1057  0.2557 -0.0352
 1143YOPC   GL114851   3.741   0.325   6.568 -0.1438  0.1588  0.1636
 1143YOPC   GL214852   3.556   0.089   6.678 -0.0910 -0.0492 -0.2919
 1143YOPC   C1A14853   3.830   0.486   7.009  0.1222 -0.0906 -0.2784
 1143YOPC   D2A14854   3.958   0.474   7.507 -0.2432 -0.1587 -0.0493
 1143YOPC   C3A14855   3.970   0.367   7.935  0.1171 -0.3310 -0.1817
 1143YOPC   C4A14856   3.674   0.008   8.109 -0.3574 -0.1827 -0.4446
 1143YOPC   C1B14857   3.612   0.096   7.201 -0.0370 -0.1627  0.2341
 1143YOPC   C2B14858   3.587   0.165   7.693  0.1324 -0.0557  0.0031
 1143YOPC   D3B14859   3.437   0.345   7.920  0.0129  0.3592  0.0551
 1143YOPC   C4B14860   3.190   0.310   8.348 -0.1495 -0.0111  0.1571
 1144ERGO   ROH14861   1.486  12.676  10.428 -0.1124  0.1437 -0.1717
 1144ERGO    R114862   1.580  12.783  10.184 -0.0576  0.0668 -0.1847
 1144ERGO    R214863   1.813  12.696  10.063 -0.0338  0.0229 -0.1095
 1144ERGO    R314864   1.649  12.657   9.849  0.0093 -0.0376 -0.1317
 1144ERGO    R414865   1.907  12.735   9.732 -0.0267  0.1325 -0.0949
 1144ERGO    R514866   1.713  12.828   9.694 -0.0767  0.0252 -0.0977
 1144ERGO    C114867   1.807  12.721   9.339  0.0179  0.1394 -0.1075
 1144ERGO    C214868   1.775  12.815   8.896 -0.3251 -0.0880 -0.0630
 1145ERGO   ROH14869   7.351  14.165  10.529 -0.0129  0.0036 -0.1198
 1145ERGO    R114870   7.369  14.318  10.292  0.1825  0.0632 -0.0689
 1145ERGO    R214871   7.551  14.262  10.092  0.1117 -0.1067 -0.0948
 1145ERGO    R314872   7.329  14.260   9.935  0.0989  0.2316 -0.0860
 1145ERGO    R414873   7.552  14.300   9.748  0.1437 -0.1052 -0.0939
 1145ERGO    R514874   7.374  14.425   9.767  0.3352  0.1635 -0.0860
 1145ERGO    C114875   7.344  14.321   9.401  0.1503  0.2130 -0.0852
 1145ERGO    C214876   7.477  14.401   9.137 -0.0757 -0.1357 -0.2182
 1146ERGO   ROH14877   4.870  11.089   6.771  0.0301  0.1433  0.1263
 1146ERGO    R114878   4.713  11.175   6.990 -0.1117 -0.1824  0.1600
 1146ERGO    R214879   4.661  11.013   7.208  0.3289 -0.2807  0.2085
 1146ERGO    R314880   4.762  11.223   7.347 -0.1084 -0.0094  0.1360
 1146ERGO    R414881   4.618  11.065   7.547  0.2039 -0.2345  0.1851
 1146ERGO    R514882   4.592  11.278   7.506 -0.2328 -0.2969  0.1039
 1146ERGO    C114883   4.689  11.293   7.875 -0.2795  0.0471  0.1032
 1146ERGO    C214884   4.596  11.272   8.320 -0.1386 -0.3903 -0.1871
 1147ERGO   ROH14885   7.938   3.740   6.132  0.1564  0.2058 -0.0398
 1147ERGO    R114886   8.068   3.692   6.379  0.0838  0.1613 -0.0094
 1147ERGO    R214887   8.280   3.515   6.403 -0.0055  0.0591  0.0472
 1147ERGO    R314888   8.405   3.731   6.511  0.0768  0.0083  0.0540
 1147ERGO    R414889   8.471   3.510   6.691  0.0766 -0.0390 -0.0087
 1147ERGO    R514890   8.384   3.701   6.748  0.1389 -0.0305  0.0535
 1147ERGO    C114891   8.700   3.709   6.960  0.2018 -0.1438 -0.0350
 1147ERGO    C214892   8.841   3.628   7.234 -0.1072  0.0321  0.3117
 1148ERGO   ROH14893  10.585   3.905   6.490 -0.1382 -0.3066  0.4161
 1148ERGO    R114894  10.696   4.029   6.718  0.1889 -0.0313  0.1183
 1148ERGO    R214895  10.821   4.276   6.708 -0.3076  0.2201 -0.2660
 1148ERGO    R314896  10.643   4.338   6.904  0.0338 -0.0820  0.1613
 1148ERGO    R414897  10.811   4.577   6.876 -0.4134  0.2080 -0.2496
 1148ERGO    R514898  10.770   4.468   7.060  0.2002  0.1302 -0.1362
 1148ERGO    C114899  10.638   4.812   7.158 -0.1545 -0.0826  0.1611
 1148ERGO    C214900  10.326   5.098   7.244  0.1372 -0.3389  0.2652
 1149ERGO   ROH14901  14.137  14.671   7.118 -0.1251 -0.2222  0.0193
 1149ERGO    R114902  14.070  14.612   7.386 -0.1146 -0.1179  0.0450
 1149ERGO    R214903  14.254  14.624   7.592 -0.0836 -0.1307  0.0171
 1149ERGO    R314904  14.070  14.790   7.704 -0.0045 -0.0251 -0.0061
 1149ERGO    R414905  14.247  14.716   7.925 -0.0565 -0.0981  0.0093
 1149ERGO    R514906  14.030  14.697   7.921 -0.0659  0.0141 -0.0006
 1149ERGO    C114907  14.070  14.925   8.224  0.0335  0.0200 -0.0171
 1149ERGO    C214908  13.917  15.143   8.541  0.2902  0.3623  0.3699
 1150ERGO   ROH14909   4.427   7.658   6.599 -0.1180 -0.3178 -0.0175
 1150ERGO    R114910   4.549   7.812   6.803 -0.0533 -0.2941 -0.0736
 1150ERGO    R214911   4.405   7.976   6.971  0.0272 -0.0854 -0.2040
 1150ERGO    R314912   4.529   7.833   7.166 -0.1336 -0.0722 -0.0893
 1150ERGO    R414913   4.414   8.064   7.305 -0.0021  0.0926 -0.2490
 1150ERGO    R514914   4.623   7.999   7.311 -0.0509 -0.0601 -0.1555
 1150ERGO    C114915   4.537   7.980   7.682 -0.1701  0.2087 -0.1675
 1150ERGO    C214916   4.461   8.066   8.029  0.0957 -0.2047 -0.1952
 1151ERGO   ROH14917  13.003  16.777   6.794  0.0440  0.0607 -0.0526
 1151ERGO    R114918  13.066  16.783   7.070  0.1445 -0.1206 -0.0690
 1151ERGO    R214919  13.318  16.721   7.167  0.2537  0.0524 -0.2242
 1151ERGO    R314920  13.298  16.966   7.284  0.0398 -0.0670 -0.0018
 1151ERGO    R414921  13.526  16.838   7.416  0.1867  0.0386 -0.1621
 1151ERGO    R514922  13.353  16.927   7.513  0.1217 -0.2156 -0.0480
 1151ERGO    C114923  13.629  17.137   7.671 -0.0532 -0.0816  0.0830
 1151ERGO    C214924  13.638  17.447   7.897  0.1554  0.1289  0.1665
 1152ERGO   ROH14925   5.423   5.607   6.266  0.2341 -0.0251  0.0241
 1152ERGO    R114926   5.216   5.524   6.440  0.0725  0.0962 -0.1081
 1152ERGO    R214927   5.266   5.421   6.691 -0.1345 -0.1845 -0.1824
 1152ERGO    R314928   5.096   5.618   6.771  0.0969 -0.0273 -0.0625
 1152ERGO    R414929   5.105   5.431   6.997  0.0925 -0.0386 -0.0638
 1152ERGO    R514930   4.926   5.503   6.895  0.0789  0.1222  0.0606
 1152ERGO    C114931   4.852   5.621   7.250  0.4418  0.1939  0.1179
 1152ERGO    C214932   4.835   5.695   7.616  0.0476 -0.3941  0.2188
 1153ERGO   ROH14933  12.907   7.191   6.263  0.0037  0.1113  0.0634
 1153ERGO    R114934  12.799   7.038   6.475 -0.0607  0.0187 -0.0364
 1153ERGO    R214935  12.940   6.981   6.705 -0.1229 -0.1031 -0.0311
 1153ERGO    R314936  12.723   7.090   6.827 -0.1433 -0.1459 -0.0279
 1153ERGO    R414937  12.869   6.954   7.042  0.0110  0.0673  0.0124
 1153ERGO    R514938  12.659   6.927   6.991  0.0043 -0.0834  0.0983
 1153ERGO    C114939  12.624   7.041   7.353  0.0697  0.1263  0.0407
 1153ERGO    C214940  12.816   7.210   7.587  0.0556 -0.1442  0.1296
 1154ERGO   ROH14941   2.279  16.891   6.946 -0.3342 -0.1420 -0.0253
 1154ERGO    R114942   2.453  16.868   7.168 -0.1952  0.0840 -0.1088
 1154ERGO    R214943   2.462  17.057   7.371 -0.3342  0.1014 -0.1236
 1154ERGO    R314944   2.419  16.840   7.530  0.0179  0.0504 -0.0883
 1154ERGO    R414945   2.505  17.051   7.714 -0.3700  0.2532 -0.1156
 1154ERGO    R514946   2.592  16.852   7.695 -0.0163  0.3891 -0.0647
 1154ERGO    C114947   2.490  16.845   8.062 -0.0603  0.2939 -0.0778
 1154ERGO    C214948   2.317  16.745   8.288  0.2663 -0.0289 -0.0808
 1155ERGO   ROH14949  11.592   6.431   5.939  0.1730  0.1695  0.2505
 1155ERGO    R114950  11.417   6.246   6.063  0.1266  0.1367  0.1373
 1155ERGO    R214951  11.502   6.001   6.156  0.0908  0.1097  0.1000
 1155ERGO    R314952  11.389   6.085   6.389  0.0090  0.0468  0.0836
 1155ERGO    R414953  11.523   5.834   6.458  0.1036  0.1001  0.0938
 1155ERGO    R514954  11.314   5.884   6.495  0.0747  0.0079  0.0565
 1155ERGO    C114955  11.429   5.816   6.852  0.0343  0.0355  0.0748
 1155ERGO    C214956  11.569   5.881   7.175  0.1645 -0.0900 -0.1444
 1156ERGO   ROH14957   9.886  15.368  10.632  0.2821  0.0925  0.1651
 1156ERGO    R114958   9.803  15.469  10.381  0.1401  0.0998  0.2132
 1156ERGO    R214959   9.915  15.695  10.267  0.1802  0.0229  0.0890
 1156ERGO    R314960   9.957  15.529  10.056 -0.0785 -0.0378  0.0828
 1156ERGO    R414961   9.894  15.788   9.935 -0.0904 -0.0453  0.0850
 1156ERGO    R514962   9.796  15.598   9.893 -0.2017 -0.0146  0.2153
 1156ERGO    C114963   9.922  15.686   9.543 -0.4908 -0.1420  0.0769
 1156ERGO    C214964   9.942  15.764   9.225 -0.1248 -0.0497  0.0305
 1157ERGO   ROH14965   7.276   9.867   6.745 -0.1536  0.0660  0.3189
 1157ERGO    R114966   7.136   9.797   6.981 -0.1420 -0.0592  0.2919
 1157ERGO    R214967   7.158   9.548   7.099  0.0156 -0.0686  0.2722
 1157ERGO    R314968   7.224   9.693   7.318 -0.1118 -0.0361  0.2874
 1157ERGO    R414969   7.138   9.434   7.424 -0.1306 -0.0068  0.2841
 1157ERGO    R514970   7.062   9.630   7.483 -0.1754 -0.0193  0.2174
 1157ERGO    C114971   7.188   9.505   7.821 -0.3354  0.0597  0.3053
 1157ERGO    C214972   7.189   9.367   8.101 -0.2040 -0.4367  0.4860
 1158ERGO   ROH14973   3.108  10.873   6.649  0.0028 -0.0703 -0.0156
 1158ERGO    R114974   3.232  10.908   6.901 -0.0527  0.0118  0.0007
 1158ERGO    R214975   3.102  11.024   7.116 -0.1680 -0.1003 -0.0065
 1158ERGO    R314976   3.175  10.794   7.242 -0.0039 -0.0526 -0.0125
 1158ERGO    R414977   3.162  10.994   7.455 -0.1114 -0.0595 -0.0129
 1158ERGO    R514978   3.331  10.865   7.409 -0.0313  0.0501 -0.0301
 1158ERGO    C114979   3.265  10.762   7.771  0.0755  0.0092 -0.0223
 1158ERGO    C214980   3.234  10.574   8.008  0.0319  0.1419 -0.0790
 1159ERGO   ROH14981  11.608   2.251  10.084  0.0591 -0.1669 -0.1935
 1159ERGO    R114982  11.715   2.291   9.824 -0.1704 -0.2131 -0.2989
 1159ERGO    R214983  11.555   2.313   9.599 -0.4188  0.3387 -0.0944
 1159ERGO    R314984  11.692   2.545   9.565  0.0882  0.0588 -0.0607
 1159ERGO    R414985  11.578   2.487   9.302 -0.3004  0.4937  0.0054
 1159ERGO    R514986  11.788   2.527   9.347 -0.1580 -0.0155 -0.1615
 1159ERGO    C114987  11.720   2.806   9.096  0.2445  0.3211  0.0953
 1159ERGO    C214988  11.595   3.172   9.004  0.3653  0.1281  0.2264
 1160ERGO   ROH14989  14.662   6.671   6.161  0.0939 -0.0409  0.3036
 1160ERGO    R114990  14.470   6.710   6.366 -0.0091  0.0171  0.1981
 1160ERGO    R214991  14.270   6.527   6.420 -0.0312  0.0244  0.1605
 1160ERGO    R314992  14.372   6.540   6.672 -0.1505  0.1095  0.2037
 1160ERGO    R414993  14.146   6.355   6.694 -0.0946  0.0435  0.1432
 1160ERGO    R514994  14.180   6.533   6.815 -0.2083  0.0764  0.1199
 1160ERGO    C114995  14.170   6.268   7.089 -0.2436  0.1346  0.1736
 1160ERGO    C214996  14.028   6.043   7.389  0.2863 -0.0206 -0.3413
 1161ERGO   ROH14997  16.046   9.020   6.311  0.1384  0.1407  0.1391
 1161ERGO    R114998  16.131   9.157   6.544  0.1313  0.0696  0.1838
 1161ERGO    R214999  15.953   9.272   6.722  0.1298  0.1567  0.1278
 1161ERGO    R315000  16.087   9.120   6.904 -0.0262  0.0603  0.1644
 1161ERGO    R415001  15.962   9.332   7.063  0.0703  0.1405  0.1323
 1161ERGO    R515002  16.173   9.278   7.062  0.0345 -0.0025  0.1940
 1161ERGO    C115003  16.093   9.224   7.431 -0.1109  0.0405  0.1693
 1161ERGO    C215004  16.100   9.397   7.738  0.0330 -0.1911  0.2000
 1162ERGO   ROH15005  11.026  10.323   6.498  0.0843 -0.2220  0.0362
 1162ERGO    R115006  11.060  10.412   6.764  0.0509 -0.1941  0.0307
 1162ERGO    R215007  10.855  10.522   6.912  0.0561 -0.0952 -0.0390
 1162ERGO    R315008  10.923  10.329   7.091 -0.0611 -0.0919  0.0111
 1162ERGO    R415009  10.839  10.557   7.256  0.1852  0.0496 -0.0462
 1162ERGO    R515010  11.027  10.448   7.270  0.0981 -0.1133 -0.0631
 1162ERGO    C115011  10.893  10.396   7.624  0.1502  0.1370 -0.0034
 1162ERGO    C215012  10.686  10.250   7.826 -0.0620  0.0901  0.0646
 1163ERGO   ROH15013   4.046   7.788   9.850 -0.2117 -0.1132  0.0419
 1163ERGO    R115014   3.966   7.662   9.610 -0.0960 -0.0519 -0.0316
 1163ERGO    R215015   3.701   7.629   9.541 -0.0751 -0.2925 -0.0315
 1163ERGO    R315016   3.778   7.754   9.312 -0.2187 -0.0617  0.0446
 1163ERGO    R415017   3.533   7.611   9.239 -0.0334 -0.3134 -0.0525
 1163ERGO    R515018   3.726   7.598   9.138 -0.0173 -0.0170 -0.0515
 1163ERGO    C115019   3.508   7.718   8.849 -0.1440 -0.1089  0.0068
 1163ERGO    C215020   3.391   7.763   8.487 -0.0677 -0.0919  0.1348
 1164ERGO   ROH15021   2.397   9.236   6.711  0.1924  0.0884  0.0068
 1164ERGO    R115022   2.306   9.059   6.912  0.1024 -0.0198 -0.1272
 1164ERGO    R215023   2.409   8.805   6.946  0.2738  0.0604 -0.0521
 1164ERGO    R315024   2.449   8.891   7.201 -0.0911  0.0524  0.0138
 1164ERGO    R415025   2.437   8.600   7.223  0.3235  0.0183 -0.0874
 1164ERGO    R515026   2.318   8.743   7.336 -0.0007 -0.1864 -0.1515
 1164ERGO    C115027   2.490   8.561   7.623  0.0099 -0.0137 -0.0461
 1164ERGO    C215028   2.595   8.538   8.001 -0.0375  0.1575  0.0294
 1165ERGO   ROH15029   0.223   9.952   6.468  0.0443 -0.1922  0.0593
 1165ERGO    R115030   0.350   9.942   6.721  0.0597 -0.1484  0.0535
 1165ERGO    R215031   0.400  10.168   6.871  0.0539 -0.1240  0.0189
 1165ERGO    R315032   0.265  10.032   7.063  0.0739 -0.1056  0.0459
 1165ERGO    R415033   0.387  10.258   7.204  0.0312 -0.0523 -0.0012
 1165ERGO    R515034   0.405  10.047   7.257  0.0674 -0.0379  0.0457
 1165ERGO    C115035   0.252  10.182   7.579  0.0367  0.0068  0.0123
 1165ERGO    C215036   0.386  10.262   7.942 -0.0440  0.0507  0.2282
 1166ERGO   ROH15037   6.345   9.390   6.758 -0.1331 -0.2270 -0.0808
 1166ERGO    R115038   6.155   9.321   6.956 -0.0719 -0.1946 -0.0095
 1166ERGO    R215039   6.226   9.202   7.195  0.0031 -0.1535 -0.0078
 1166ERGO    R315040   6.091   9.411   7.303  0.0361 -0.1344 -0.0051
 1166ERGO    R415041   6.052   9.191   7.493 -0.1885 -0.1949 -0.1202
 1166ERGO    R515042   5.896   9.312   7.401 -0.0726 -0.0817 -0.1677
 1166ERGO    C115043   5.824   9.381   7.769 -0.2691 -0.2012 -0.1830
 1166ERGO    C215044   5.550   9.379   8.066  0.2554 -0.0636 -0.3105
 1167ERGO   ROH15045   2.276   5.540   6.162 -0.0589  0.1324  0.0192
 1167ERGO    R115046   2.214   5.407   6.405 -0.0700  0.1544  0.0289
 1167ERGO    R215047   2.286   5.145   6.454 -0.2264  0.1008 -0.0139
 1167ERGO    R315048   2.400   5.252   6.676 -0.0851  0.0110 -0.0423
 1167ERGO    R415049   2.382   4.964   6.733 -0.1836  0.0085 -0.0883
 1167ERGO    R515050   2.305   5.126   6.857 -0.0610  0.0181 -0.0254
 1167ERGO    C115051   2.544   4.960   7.104 -0.0260 -0.1296 -0.1583
 1167ERGO    C215052   2.685   4.870   7.451  0.0009 -0.0240 -0.0427
 1168ERGO   ROH15053  10.641   2.022   6.728 -0.0605  0.1565  0.0091
 1168ERGO    R115054  10.516   1.892   6.945  0.0555  0.0518  0.0142
 1168ERGO    R215055  10.562   1.964   7.208  0.0182  0.0803  0.0124
 1168ERGO    R315056  10.291   1.986   7.215 -0.0002 -0.1309  0.0328
 1168ERGO    R415057  10.378   2.062   7.484 -0.0330  0.0069  0.0050
 1168ERGO    R515058  10.230   1.910   7.434  0.0806 -0.1233  0.0582
 1168ERGO    C115059  10.017   2.140   7.651 -0.0803 -0.2341  0.0198
 1168ERGO    C215060   9.947   2.213   7.973 -0.1935  0.0276  0.0826
 1169ERGO   ROH15061   5.440  15.816   7.114  0.2522  0.1681  0.0976
 1169ERGO    R115062   5.303  15.862   7.357  0.1508  0.1817  0.0386
 1169ERGO    R215063   5.227  15.658   7.527  0.0046  0.1846 -0.0219
 1169ERGO    R315064   5.364  15.802   7.711 -0.0363  0.1182  0.0613
 1169ERGO    R415065   5.169  15.649   7.867 -0.1090  0.1057 -0.0427
 1169ERGO    R515066   5.199  15.865   7.873 -0.0807  0.0998  0.0226
 1169ERGO    C115067   5.264  15.779   8.239 -0.2137 -0.0024  0.0231
 1169ERGO    C215068   5.324  15.645   8.546  0.0553  0.0209  0.2963
 1170ERGO   ROH15069  13.549   7.904   9.704 -0.0593  0.2631  0.1816
 1170ERGO    R115070  13.641   8.026   9.465 -0.0943  0.2065  0.1405
 1170ERGO    R215071  13.707   7.880   9.239  0.0099  0.1431  0.2169
 1170ERGO    R315072  13.529   8.046   9.119 -0.0613 -0.0022  0.1150
 1170ERGO    R415073  13.689   7.938   8.899  0.2041  0.1737  0.2093
 1170ERGO    R515074  13.653   8.148   8.942 -0.0222  0.1396  0.2182
 1170ERGO    C115075  13.511   8.128   8.588  0.2503  0.0550  0.1093
 1170ERGO    C215076  13.580   8.038   8.282  0.1157 -0.1135  0.0178
 1171ERGO   ROH15077  16.630   4.611   6.295  0.0575 -0.1530 -0.0740
 1171ERGO    R115078  16.570   4.600   6.572  0.0651 -0.1369 -0.0713
 1171ERGO    R215079  16.640   4.385   6.731  0.1608 -0.0837 -0.0379
 1171ERGO    R315080  16.758   4.577   6.882  0.0794 -0.0080 -0.0705
 1171ERGO    R415081  16.729   4.349   7.063  0.1807  0.0111 -0.0329
 1171ERGO    R515082  16.659   4.552   7.099  0.0938 -0.0140 -0.0659
 1171ERGO    C115083  16.891   4.508   7.398  0.1158  0.1374 -0.0606
 1171ERGO    C215084  17.070   4.372   7.714 -0.0262  0.1407 -0.1590
 1172ERGO   ROH15085   5.245  17.057   6.806  0.0015  0.1392 -0.0162
 1172ERGO    R115086   5.161  16.909   7.032  0.0843  0.0521 -0.0414
 1172ERGO    R215087   5.338  16.774   7.196  0.1566  0.0951 -0.0839
 1172ERGO    R315088   5.218  16.920   7.391  0.1063 -0.0011 -0.0430
 1172ERGO    R415089   5.363  16.708   7.534  0.0278 -0.1063 -0.1119
 1172ERGO    R515090   5.151  16.757   7.554  0.0257 -0.0888 -0.1605
 1172ERGO    C115091   5.265  16.807   7.915 -0.0946 -0.3139 -0.0898
 1172ERGO    C215092   5.342  16.606   8.153 -0.2729  0.1025 -0.2402
 1173ERGO   ROH15093   3.058   3.028   6.698  0.2344 -0.0872 -0.1337
 1173ERGO    R115094   3.243   3.034   6.912  0.0972  0.0646 -0.0163
 1173ERGO    R215095   3.192   3.167   7.149 -0.1520  0.0426 -0.0518
 1173ERGO    R315096   3.249   2.925   7.259 -0.0412  0.0896 -0.0063
 1173ERGO    R415097   3.292   3.119   7.476 -0.3489  0.1228  0.0216
 1173ERGO    R515098   3.435   2.969   7.405 -0.1809  0.2344  0.1273
 1173ERGO    C115099   3.405   2.863   7.770 -0.3594  0.2136  0.1071
 1173ERGO    C215100   3.431   2.747   7.992  0.2108 -0.0312  0.0438
 1174ERGO   ROH15101   1.155   3.345   6.477  0.1912 -0.0221  0.0422
 1174ERGO    R115102   1.165   3.485   6.722  0.0392 -0.0196  0.0480
 1174ERGO    R215103   1.148   3.358   6.967  0.0347 -0.0332  0.0423
 1174ERGO    R315104   1.380   3.490   7.016 -0.0519  0.0943  0.1132
 1174ERGO    R415105   1.253   3.462   7.279 -0.0018 -0.1908  0.1079
 1174ERGO    R515106   1.324   3.647   7.188 -0.1420 -0.0724  0.2376
 1174ERGO    C115107   1.533   3.647   7.507 -0.1044 -0.1629  0.2127
 1174ERGO    C215108   1.566   3.733   7.822 -0.0531  0.1095 -0.2452
 1175ERGO   ROH15109   5.102   2.038  10.222 -0.2214 -0.1581  0.0377
 1175ERGO    R115110   5.103   1.976   9.946  0.0068 -0.0594  0.0134
 1175ERGO    R215111   4.932   2.096   9.766 -0.0574 -0.2136 -0.0363
 1175ERGO    R315112   5.163   2.155   9.635 -0.0571  0.1336  0.1124
 1175ERGO    R415113   4.956   2.158   9.427  0.0713 -0.1364 -0.0132
 1175ERGO    R515114   5.142   2.043   9.424  0.2371  0.1302  0.0846
 1175ERGO    C115115   5.186   2.250   9.106  0.1464  0.2345  0.1398
 1175ERGO    C215116   5.098   2.453   8.716 -0.1186  0.0337  0.0544
 1176ERGO   ROH15117  15.264  16.131   6.874 -0.0105 -0.0284 -0.0413
 1176ERGO    R115118  15.378  16.224   7.116  0.0532 -0.1221 -0.0338
 1176ERGO    R215119  15.294  16.454   7.242  0.2599 -0.0253 -0.0560
 1176ERGO    R315120  15.264  16.288   7.455  0.0729  0.0109 -0.0539
 1176ERGO    R415121  15.285  16.557   7.572 -0.0882  0.0240 -0.0779
 1176ERGO    R515122  15.405  16.383   7.624 -0.1149  0.0578  0.0740
 1176ERGO    C115123  15.251  16.461   7.964 -0.4665  0.0868 -0.0885
 1176ERGO    C215124  15.285  16.632   8.273 -0.3076 -0.1662 -0.1459
 1177ERGO   ROH15125  13.610   1.025  10.274 -0.1027  0.0114  0.0799
 1177ERGO    R115126  13.652   0.867  10.042 -0.0008  0.0071  0.1004
 1177ERGO    R215127  13.458   0.830   9.850  0.0711 -0.0271  0.0328
 1177ERGO    R315128  13.652   0.920   9.682  0.1175 -0.0080  0.0973
 1177ERGO    R415129  13.452   0.800   9.506  0.1330  0.0661  0.0239
 1177ERGO    R515130  13.664   0.754   9.511  0.1273  0.0352  0.0547
 1177ERGO    C115131  13.631   0.867   9.148  0.2127  0.1384  0.0793
 1177ERGO    C215132  13.687   0.844   8.792  0.1039  0.0861  0.2486
 1178ERGO   ROH15133   6.135   6.895   6.519 -0.3531 -0.1071 -0.0682
 1178ERGO    R115134   5.994   6.950   6.758 -0.1306 -0.0637  0.0560
 1178ERGO    R215135   5.929   6.753   6.941 -0.1691 -0.0706  0.0377
 1178ERGO    R315136   6.057   6.917   7.115  0.1062 -0.2399 -0.0001
 1178ERGO    R415137   5.939   6.707   7.283 -0.1594 -0.0606  0.0384
 1178ERGO    R515138   5.914   6.923   7.307  0.1545 -0.0207  0.0302
 1178ERGO    C115139   6.066   6.835   7.647  0.1047 -0.2139  0.0033
 1178ERGO    C215140   6.220   6.762   7.903 -0.1448  0.1640 -0.0822
 1179ERGO   ROH15141   5.490   6.503   9.847 -0.1511 -0.0204  0.0307
 1179ERGO    R115142   5.531   6.551   9.571 -0.0647  0.1050  0.0642
 1179ERGO    R215143   5.504   6.354   9.380  0.1878  0.1418 -0.0169
 1179ERGO    R315144   5.332   6.532   9.267  0.0883  0.0370 -0.0316
 1179ERGO    R415145   5.485   6.422   9.041  0.2237  0.1893 -0.0093
 1179ERGO    R515146   5.459   6.633   9.090  0.0581  0.1604  0.0196
 1179ERGO    C115147   5.312   6.629   8.738  0.1512  0.1184 -0.0187
 1179ERGO    C215148   5.203   6.465   8.476 -0.0092  0.0946 -0.3695
 1180ERGO   ROH15149   1.749   9.825  10.224  0.1182  0.0286 -0.1281
 1180ERGO    R115150   1.794   9.804   9.945  0.1718  0.1318 -0.1280
 1180ERGO    R215151   1.602   9.709   9.771  0.2845 -0.0297 -0.1696
 1180ERGO    R315152   1.649   9.945   9.643  0.0598  0.0485 -0.1130
 1180ERGO    R415153   1.606   9.750   9.427  0.4667  0.0135 -0.1633
 1180ERGO    R515154   1.778   9.883   9.450  0.2757  0.2404 -0.0323
 1180ERGO    C115155   1.653   9.995   9.107  0.3619  0.1120 -0.1064
 1180ERGO    C215156   1.705  10.003   8.817 -0.5202  0.0634  0.3561
 1181ERGO   ROH15157   0.345   8.019   6.307 -0.0308  0.0092 -0.1339
 1181ERGO    R115158   0.303   8.132   6.563  0.1240  0.0443 -0.1228
 1181ERGO    R215159   0.096   8.053   6.729  0.0939  0.2183 -0.0735
 1181ERGO    R315160   0.297   8.012   6.907  0.1024  0.0470 -0.1223
 1181ERGO    R415161   0.067   8.090   7.071  0.1671  0.1020 -0.0551
 1181ERGO    R515162   0.265   8.181   7.073  0.2150  0.0004 -0.0520
 1181ERGO    C115163   0.240   8.072   7.438  0.2177 -0.1266 -0.0902
 1181ERGO    C215164   0.298   7.892   7.801 -0.2678 -0.0712  0.0353
 1182ERGO   ROH15165   4.841   1.095   6.692  0.1660 -0.0582 -0.2238
 1182ERGO    R115166   5.032   1.240   6.843  0.0981 -0.0446 -0.1504
 1182ERGO    R215167   5.007   1.280   7.115  0.0130 -0.0835 -0.1532
 1182ERGO    R315168   5.256   1.172   7.121  0.0304 -0.0405 -0.0940
 1182ERGO    R415169   5.279   1.423   7.272  0.0137  0.1034 -0.3193
 1182ERGO    R515170   5.403   1.361   7.104 -0.0017 -0.0298 -0.2853
 1182ERGO    C115171   5.672   1.404   7.370  0.0303  0.2526 -0.3605
 1182ERGO    C215172   5.855   1.296   7.700 -0.1801  0.0090  0.1797
 1183ERGO   ROH15173   5.058   1.006  10.314  0.0304 -0.0198 -0.0283
 1183ERGO    R115174   5.007   1.072  10.044  0.0137  0.0666 -0.0049
 1183ERGO    R215175   5.208   1.139   9.866  0.0010  0.1547  0.0101
 1183ERGO    R315176   5.099   0.939   9.717  0.0226  0.1900 -0.0524
 1183ERGO    R415177   5.198   1.132   9.521  0.3430  0.0785 -0.0015
 1183ERGO    R515178   4.996   1.051   9.533  0.2789  0.2108 -0.1849
 1183ERGO    C115179   5.089   0.940   9.180  0.5625  0.0672 -0.0670
 1183ERGO    C215180   5.018   0.892   8.790 -0.3976 -0.1696 -0.0145
 1184ERGO   ROH15181   9.004   2.425   6.665  0.0141  0.3311  0.0655
 1184ERGO    R115182   8.978   2.331   6.930 -0.0652  0.2698  0.0353
 1184ERGO    R215183   9.144   2.413   7.134 -0.0116  0.0835  0.0629
 1184ERGO    R315184   8.910   2.476   7.257  0.0312  0.2199  0.0793
 1184ERGO    R415185   9.106   2.449   7.476  0.0533  0.1687  0.0625
 1184ERGO    R515186   8.914   2.346   7.459 -0.0023  0.2542  0.1060
 1184ERGO    C115187   8.863   2.528   7.790  0.1312  0.3464  0.0776
 1184ERGO    C215188   8.848   2.856   7.996  0.2090  0.0179 -0.2336
 1185ERGO   ROH15189   4.993   3.090  10.198 -0.0034 -0.4969  0.0426
 1185ERGO    R115190   5.043   3.020   9.928  0.2053 -0.2825  0.0244
 1185ERGO    R215191   4.931   3.156   9.716 -0.0252 -0.4237  0.0705
 1185ERGO    R315192   5.190   3.180   9.636 -0.0483  0.1422  0.1156
 1185ERGO    R415193   5.035   3.161   9.387  0.0149 -0.6134  0.0779
 1185ERGO    R515194   5.205   3.037   9.444  0.3521 -0.1101  0.3078
 1185ERGO    C115195   5.339   3.186   9.120  0.0167 -0.1927  0.1247
 1185ERGO    C215196   5.294   3.244   8.759 -0.3346 -0.0014  0.1238
 1186ERGO   ROH15197  16.919  11.888   6.881  0.0848  0.1629 -0.0804
 1186ERGO    R115198  16.972  11.776   7.135  0.1780  0.1793 -0.0926
 1186ERGO    R215199  17.056  11.928   7.350  0.0587  0.2242 -0.0809
 1186ERGO    R315200  16.842  11.813   7.473  0.1525  0.0398 -0.0852
 1186ERGO    R415201  17.023  11.886   7.692  0.0920  0.2044 -0.0800
 1186ERGO    R515202  16.937  11.689   7.655  0.2613  0.1242 -0.0801
 1186ERGO    C115203  16.804  11.755   8.006  0.1995  0.0199 -0.0835
 1186ERGO    C215204  16.710  11.801   8.295 -0.1972  0.2525  0.0511
 1187ERGO   ROH15205  13.280   2.890   6.497  0.0264 -0.0788  0.0486
 1187ERGO    R115206  13.228   2.985   6.759  0.0388  0.1054 -0.0125
 1187ERGO    R215207  13.263   2.829   6.984 -0.2441  0.1569  0.0809
 1187ERGO    R315208  13.418   3.037   7.064 -0.0139  0.0022  0.0362
 1187ERGO    R415209  13.322   2.917   7.313 -0.0828  0.1227  0.0599
 1187ERGO    R515210  13.305   3.126   7.255  0.1213  0.1326  0.0517
 1187ERGO    C115211  13.502   3.163   7.580  0.2273 -0.0424  0.0055
 1187ERGO    C215212  13.586   3.404   7.884 -0.1844 -0.2359  0.1048
 1188ERGO   ROH15213   5.675   5.947   6.186  0.0178 -0.1272 -0.1198
 1188ERGO    R115214   5.684   5.969   6.468  0.1237  0.0222 -0.1343
 1188ERGO    R215215   5.553   5.792   6.635  0.0743  0.1928  0.0043
 1188ERGO    R315216   5.800   5.763   6.745  0.0928  0.1062 -0.0576
 1188ERGO    R415217   5.616   5.641   6.939  0.0630  0.4079  0.1163
 1188ERGO    R515218   5.764   5.796   6.980  0.1953  0.3381 -0.0701
 1188ERGO    C115219   5.885   5.526   7.220  0.0738  0.4517  0.1234
 1188ERGO    C215220   6.112   5.405   7.526  0.0618  0.0798  0.1501
 1189ERGO   ROH15221   4.850  12.638   6.969  0.0171  0.1535 -0.1092
 1189ERGO    R115222   4.885  12.656   7.249 -0.0398 -0.0885 -0.0840
 1189ERGO    R215223   4.961  12.890   7.375  0.1880 -0.2579  0.1078
 1189ERGO    R315224   4.737  12.844   7.523  0.0925 -0.1182  0.0087
 1189ERGO    R415225   4.936  12.938   7.716 -0.0040 -0.0325  0.0647
 1189ERGO    R515226   4.820  12.755   7.729 -0.0462 -0.0010  0.1161
 1189ERGO    C115227   4.712  12.924   8.054 -0.2055  0.2298 -0.0535
 1189ERGO    C215228   4.666  12.980   8.319 -0.1535 -0.2581 -0.0854
 1190ERGO   ROH15229   3.281  17.331   6.898  0.1630  0.0118  0.0271
 1190ERGO    R115230   3.394  17.388   7.152  0.0920  0.0180  0.0581
 1190ERGO    R215231   3.242  17.402   7.382  0.0331 -0.0295  0.0267
 1190ERGO    R315232   3.421  17.219   7.473  0.0504  0.0001  0.0510
 1190ERGO    R415233   3.406  17.420   7.686 -0.0932 -0.0688  0.0978
 1190ERGO    R515234   3.587  17.349   7.586 -0.0344  0.0134  0.1546
 1190ERGO    C115235   3.670  17.259   7.948 -0.1505 -0.0637  0.1620
 1190ERGO    C215236   3.790  17.257   8.285  0.0647  0.2624 -0.1716
 1191ERGO   ROH15237  16.909  16.966  10.521  0.0335  0.1138 -0.2137
 1191ERGO    R115238  16.971  17.094  10.277  0.1827  0.0102 -0.2304
 1191ERGO    R215239  17.174  17.006  10.110  0.0617 -0.2671 -0.2328
 1191ERGO    R315240  16.976  17.002   9.925  0.0446 -0.0318 -0.2225
 1191ERGO    R415241  17.223  16.992   9.768  0.0335 -0.2058 -0.2396
 1191ERGO    R515242  17.060  17.134   9.744  0.1562 -0.0489 -0.1865
 1191ERGO    C115243  17.065  16.981   9.395  0.0009  0.0508 -0.2339
 1191ERGO    C215244  17.017  16.898   9.040 -0.2922 -0.0419 -0.0238
 1192ERGO   ROH15245  12.695   0.273  10.395  0.0616 -0.1097  0.0633
 1192ERGO    R115246  12.536   0.300  10.162  0.0294 -0.1139  0.0868
 1192ERGO    R215247  12.631   0.415   9.930 -0.0034 -0.1284  0.0768
 1192ERGO    R315248  12.548   0.181   9.819 -0.0300 -0.1252  0.0854
 1192ERGO    R415249  12.572   0.366   9.593 -0.0706 -0.0971  0.0825
 1192ERGO    R515250  12.397   0.247   9.646 -0.0697 -0.1028  0.1177
 1192ERGO    C115251  12.460   0.117   9.292 -0.1349 -0.0758  0.0941
 1192ERGO    C215252  12.594   0.136   8.887  0.2583 -0.0372  0.0124
 1193ERGO   ROH15253   3.606   8.865   6.565 -0.0454 -0.0422 -0.0242
 1193ERGO    R115254   3.580   8.993   6.817 -0.1386 -0.0153 -0.0469
 1193ERGO    R215255   3.368   8.945   6.987 -0.0377 -0.2412  0.0187
 1193ERGO    R315256   3.565   8.890   7.165  0.0803  0.0436 -0.0183
 1193ERGO    R415257   3.325   8.928   7.330  0.0332 -0.3582  0.0219
 1193ERGO    R515258   3.516   9.030   7.354 -0.1182 -0.0560  0.0086
 1193ERGO    C115259   3.486   8.866   7.696  0.1853 -0.1589 -0.0109
 1193ERGO    C215260   3.449   8.836   8.124  0.3117 -0.1021 -0.0729
 1194ERGO   ROH15261   8.861   5.848   6.530  0.1028 -0.0942  0.0762
 1194ERGO    R115262   8.834   5.909   6.805 -0.0569 -0.0626  0.0545
 1194ERGO    R215263   8.594   5.883   6.940 -0.0912 -0.2307 -0.0367
 1194ERGO    R315264   8.742   5.729   7.108 -0.0332 -0.0786  0.0530
 1194ERGO    R415265   8.512   5.815   7.269 -0.0466 -0.0277  0.0174
 1194ERGO    R515266   8.723   5.838   7.320 -0.0443  0.0640 -0.0173
 1194ERGO    C115267   8.604   5.631   7.618  0.0339  0.2332  0.1330
 1194ERGO    C215268   8.728   5.486   7.916 -0.4880  0.1802 -0.0427
 1195ERGO   ROH15269  10.944   9.077   6.799  0.1019 -0.0343 -0.0411
 1195ERGO    R115270  11.106   9.014   7.022  0.0941  0.0931  0.0013
 1195ERGO    R215271  11.087   9.149   7.262 -0.0898  0.0660  0.0044
 1195ERGO    R315272  11.053   8.899   7.364  0.0954  0.0296 -0.0198
 1195ERGO    R415273  11.100   9.069   7.598  0.0446  0.0285 -0.0092
 1195ERGO    R515274  11.208   8.887   7.546  0.1485  0.1046 -0.0601
 1195ERGO    C115275  11.075   8.788   7.889  0.2969 -0.0275 -0.0399
 1195ERGO    C215276  10.958   8.741   8.241  0.1687 -0.1955  0.0725
 1196ERGO   ROH15277   2.190  11.223   6.851  0.4432 -0.0956  0.0926
 1196ERGO    R115278   2.089  11.197   7.114  0.1874 -0.0137  0.0051
 1196ERGO    R215279   2.253  11.180   7.335 -0.0225 -0.1429  0.1516
 1196ERGO    R315280   2.104  11.389   7.423  0.0645 -0.0231  0.0183
 1196ERGO    R415281   2.258  11.304   7.658 -0.2255 -0.1714  0.1668
 1196ERGO    R515282   2.042  11.328   7.646 -0.2010  0.0096 -0.0413
 1196ERGO    C115283   2.121  11.573   7.928 -0.2622 -0.0753  0.0506
 1196ERGO    C215284   2.044  11.724   8.263  0.4322  0.0292 -0.2398
 1197ERGO   ROH15285  11.786   7.112   9.716  0.1290 -0.1466  0.0017
 1197ERGO    R115286  11.861   7.232   9.470  0.0000 -0.0093  0.0266
 1197ERGO    R215287  12.032   7.109   9.291 -0.0172  0.1297 -0.0931
 1197ERGO    R315288  11.828   7.153   9.116 -0.0978  0.1351  0.0034
 1197ERGO    R415289  12.062   7.107   8.946 -0.1517  0.2855 -0.1062
 1197ERGO    R515290  11.927   7.278   8.938 -0.2109  0.2420  0.0172
 1197ERGO    C115291  11.888   7.146   8.583 -0.3057  0.3813 -0.0233
 1197ERGO    C215292  11.914   7.131   8.215  0.0652  0.2544 -0.0671
 1198ERGO   ROH15293  12.653   5.725   6.135  0.0089  0.1326  0.0788
 1198ERGO    R115294  12.868   5.706   6.318 -0.0583  0.1016  0.1539
 1198ERGO    R215295  12.830   5.694   6.592 -0.1605  0.0176  0.1338
 1198ERGO    R315296  12.980   5.468   6.571 -0.1266  0.0395  0.1273
 1198ERGO    R415297  13.028   5.563   6.843 -0.1408  0.0435  0.1328
 1198ERGO    R515298  13.179   5.517   6.693 -0.1323  0.0691  0.1292
 1198ERGO    C115299  13.284   5.275   6.969 -0.0976  0.0791  0.1260
 1198ERGO    C215300  13.506   4.978   7.103 -0.0435  0.0780  0.1207
 1199ERGO   ROH15301   7.483   4.541   9.767  0.1581 -0.0086 -0.0505
 1199ERGO    R115302   7.403   4.617   9.506  0.0716  0.0071 -0.0191
 1199ERGO    R215303   7.576   4.617   9.292  0.0031  0.0327 -0.0731
 1199ERGO    R315304   7.385   4.460   9.179 -0.0244  0.0318 -0.0263
 1199ERGO    R415305   7.546   4.556   8.953  0.0828 -0.1803 -0.0442
 1199ERGO    R515306   7.329   4.573   8.974  0.0812 -0.0804 -0.1192
 1199ERGO    C115307   7.349   4.374   8.649  0.1033 -0.3052  0.0167
 1199ERGO    C215308   7.404   4.152   8.320  0.1664 -0.0751 -0.0318
 1200ERGO   ROH15309   5.894  12.384   6.821  0.2319 -0.2034 -0.1328
 1200ERGO    R115310   5.786  12.365   7.081  0.1327 -0.0007 -0.1573
 1200ERGO    R215311   5.773  12.127   7.221 -0.0840  0.0711 -0.0443
 1200ERGO    R315312   5.906  12.268   7.411 -0.0422  0.0698 -0.0730
 1200ERGO    R415313   5.748  12.072   7.561  0.0935 -0.0089 -0.0436
 1200ERGO    R515314   5.749  12.287   7.591  0.0383 -0.0190  0.0041
 1200ERGO    C115315   5.858  12.172   7.938  0.2361 -0.0568 -0.0701
 1200ERGO    C215316   5.905  12.221   8.277 -0.1597  0.1346  0.2185
 1201ERGO   ROH15317   9.735  12.224   6.815  0.0551  0.1603 -0.0643
 1201ERGO    R115318   9.623  12.174   7.071  0.0261  0.1337 -0.0828
 1201ERGO    R215319   9.695  11.956   7.225  0.0313  0.1373 -0.0868
 1201ERGO    R315320   9.747  12.146   7.412 -0.0195  0.1316 -0.0652
 1201ERGO    R415321   9.640  11.920   7.564  0.2448 -0.0052 -0.0644
 1201ERGO    R515322   9.568  12.126   7.569  0.0780 -0.0595  0.0291
 1201ERGO    C115323   9.657  12.078   7.937  0.3213 -0.0935 -0.0310
 1201ERGO    C215324   9.713  11.824   8.195  0.1814  0.1092 -0.3123
 1202ERGO   ROH15325   4.394  11.391  10.478 -0.0035 -0.0731  0.0958
 1202ERGO    R115326   4.402  11.368  10.196 -0.0081 -0.0237  0.0921
 1202ERGO    R215327   4.517  11.560  10.034  0.1215 -0.0672  0.1360
 1202ERGO    R315328   4.660  11.348   9.939 -0.0108 -0.1412  0.0970
 1202ERGO    R415329   4.569  11.491   9.699  0.4021  0.1884  0.1216
 1202ERGO    R515330   4.540  11.279   9.743  0.1159  0.1725 -0.1013
 1202ERGO    C115331   4.733  11.252   9.415  0.4413  0.2678  0.0767
 1202ERGO    C215332   4.723  11.207   9.053 -0.1215  0.0308  0.1339
 1203ERGO   ROH15333   8.236   0.683   6.709  0.1469  0.2709 -0.0411
 1203ERGO    R115334   8.102   0.660   6.957 -0.0443  0.3523 -0.1338
 1203ERGO    R215335   8.226   0.567   7.186 -0.3463 -0.0496 -0.1160
 1203ERGO    R315336   8.137   0.801   7.291  0.0398  0.0587 -0.0168
 1203ERGO    R415337   8.105   0.605   7.507 -0.5958 -0.0604 -0.2075
 1203ERGO    R515338   7.951   0.738   7.428 -0.2403  0.3355 -0.2602
 1203ERGO    C115339   7.951   0.848   7.793 -0.3785  0.0349 -0.1676
 1203ERGO    C215340   8.075   0.923   8.119 -0.0548  0.2243  0.1029
 1204ERGO   ROH15341  11.398  14.325   6.898  0.0159 -0.0740 -0.1486
 1204ERGO    R115342  11.383  14.461   7.146 -0.2618 -0.1744 -0.1070
 1204ERGO    R215343  11.210  14.383   7.348 -0.0481 -0.6506 -0.0921
 1204ERGO    R315344  11.438  14.377   7.496  0.0067 -0.1494 -0.1421
 1204ERGO    R415345  11.224  14.420   7.691 -0.0033 -0.2697 -0.1316
 1204ERGO    R515346  11.403  14.542   7.666 -0.1930 -0.0218 -0.3050
 1204ERGO    C115347  11.446  14.437   8.030  0.0745  0.4228 -0.2017
 1204ERGO    C215348  11.327  14.530   8.357 -0.1482  0.3091 -0.1142
 1205ERGO   ROH15349   5.865  16.387  10.562 -0.1363 -0.2000  0.1160
 1205ERGO    R115350   5.970  16.307  10.311 -0.1012  0.1251  0.0241
 1205ERGO    R215351   5.903  16.066  10.192  0.2870  0.0630 -0.0639
 1205ERGO    R315352   5.836  16.226   9.982 -0.1061  0.0513  0.0419
 1205ERGO    R415353   5.888  15.965   9.862  0.2887  0.1800 -0.1026
 1205ERGO    R515354   5.978  16.154   9.804 -0.0656  0.3746 -0.0697
 1205ERGO    C115355   5.817  16.056   9.473 -0.0792  0.2370 -0.0257
 1205ERGO    C215356   5.854  16.085   9.084  0.0864 -0.0126 -0.3629
 1206ERGO   ROH15357   7.946   8.960  10.250  0.1602 -0.1206 -0.0151
 1206ERGO    R115358   8.113   8.956  10.022  0.0806 -0.0709 -0.0745
 1206ERGO    R215359   8.061   8.797   9.802 -0.0016 -0.0146 -0.0944
 1206ERGO    R315360   8.079   9.033   9.668 -0.0393  0.0169 -0.0448
 1206ERGO    R415361   8.134   8.829   9.466 -0.1403  0.0595 -0.1184
 1206ERGO    R515362   8.259   9.001   9.514 -0.1056  0.0386 -0.1287
 1206ERGO    C115363   8.194   9.070   9.144 -0.2564  0.1322 -0.0857
 1206ERGO    C215364   8.216   9.171   8.784  0.1624  0.3303 -0.1197
 1207ERGO   ROH15365  10.451   8.737  10.093  0.0663  0.0902 -0.0092
 1207ERGO    R115366  10.556   8.892   9.881  0.0804  0.2244  0.0956
 1207ERGO    R215367  10.482   8.853   9.617  0.3012  0.2074  0.0392
 1207ERGO    R315368  10.425   9.119   9.628  0.0591  0.1585  0.0451
 1207ERGO    R415369  10.495   9.071   9.348  0.5021  0.2944  0.1159
 1207ERGO    R515370  10.582   9.220   9.480  0.1942  0.3345  0.2945
 1207ERGO    C115371  10.448   9.446   9.203  0.3919  0.2992  0.1662
 1207ERGO    C215372  10.496   9.661   8.863  0.1199  0.0420  0.0792
 1208ERGO   ROH15373   3.185   5.199   6.142 -0.1867 -0.0232  0.0743
 1208ERGO    R115374   3.221   5.126   6.413 -0.2856 -0.2766  0.0215
 1208ERGO    R215375   3.306   4.875   6.490  0.1636 -0.2029 -0.2129
 1208ERGO    R315376   3.497   5.016   6.623 -0.2382  0.0396  0.1328
 1208ERGO    R415377   3.432   4.791   6.801  0.0814 -0.3515 -0.2182
 1208ERGO    R515378   3.430   5.003   6.853 -0.4130 -0.4088  0.0694
 1208ERGO    C115379   3.685   4.874   7.107 -0.3436 -0.2103  0.1033
 1208ERGO    C215380   3.837   4.722   7.418  0.1274 -0.2027  0.1509
 1209ERGO   ROH15381   4.725  15.161   6.808  0.0599 -0.0404 -0.1046
 1209ERGO    R115382   4.768  15.095   7.080  0.0805 -0.0501 -0.1106
 1209ERGO    R215383   4.561  15.065   7.260  0.1028  0.0812 -0.0651
 1209ERGO    R315384   4.676  14.822   7.303 -0.0293  0.0154 -0.0747
 1209ERGO    R415385   4.605  14.919   7.571  0.2508  0.1613 -0.0472
 1209ERGO    R515386   4.801  14.851   7.505  0.1546  0.0024 -0.1833
 1209ERGO    C115387   4.738  14.607   7.792  0.2131  0.1461 -0.0458
 1209ERGO    C215388   4.640  14.509   8.051  0.0456  0.0524  0.0453
 1210ERGO   ROH15389   6.693   5.287   9.835  0.2533  0.3153 -0.0035
 1210ERGO    R115390   6.531   5.166   9.636  0.1534  0.2603  0.1094
 1210ERGO    R215391   6.402   5.312   9.440  0.0519  0.2079  0.1341
 1210ERGO    R315392   6.532   5.142   9.273 -0.0286  0.1647  0.1145
 1210ERGO    R415393   6.315   5.254   9.111  0.0519  0.3162  0.1152
 1210ERGO    R515394   6.358   5.043   9.142 -0.0710  0.2869  0.0793
 1210ERGO    C115395   6.388   5.062   8.762 -0.0238  0.3387  0.0857
 1210ERGO    C215396   6.468   4.891   8.512  0.1928 -0.1219  0.3128
 1211ERGO   ROH15397   9.361   0.932   7.098  0.0225  0.2597 -0.0440
 1211ERGO    R115398   9.181   1.013   7.300  0.0049  0.0790  0.0148
 1211ERGO    R215399   9.110   0.850   7.511  0.2972  0.0324  0.0805
 1211ERGO    R315400   9.192   1.061   7.661  0.0999  0.1687  0.0009
 1211ERGO    R415401   9.038   0.892   7.846  0.3132  0.0556  0.0810
 1211ERGO    R515402   9.007   1.105   7.807  0.0770  0.0138  0.0215
 1211ERGO    C115403   9.074   1.116   8.182  0.1373  0.1971  0.0066
 1211ERGO    C215404   8.839   1.207   8.386 -0.0301 -0.2299 -0.1326
 1212ERGO   ROH15405   7.607   1.961   6.884  0.0724 -0.1423 -0.1054
 1212ERGO    R115406   7.600   2.161   7.084  0.2152 -0.1880 -0.0532
 1212ERGO    R215407   7.363   2.270   7.176  0.2995  0.1201 -0.1898
 1212ERGO    R315408   7.461   2.195   7.419  0.0254 -0.0921 -0.1402
 1212ERGO    R415409   7.324   2.449   7.469  0.2538  0.0335 -0.1426
 1212ERGO    R515410   7.530   2.400   7.521  0.1628 -0.2084  0.0051
 1212ERGO    C115411   7.392   2.483   7.867 -0.0302 -0.2161 -0.0685
 1212ERGO    C215412   7.220   2.697   8.131 -0.2158 -0.0457 -0.0756
 1213ERGO   ROH15413  17.563   2.805   6.622 -0.0231  0.0285 -0.0258
 1213ERGO    R115414  17.409   2.816   6.859  0.0102  0.1199 -0.0068
 1213ERGO    R215415  17.419   2.617   7.052 -0.2189  0.0201 -0.0875
 1213ERGO    R315416  17.477   2.826   7.217  0.0611 -0.1156 -0.0094
 1213ERGO    R415417  17.310   2.647   7.378 -0.2888  0.1127 -0.1199
 1213ERGO    R515418  17.276   2.859   7.342  0.0695  0.1792 -0.0739
 1213ERGO    C115419  17.300   2.860   7.723 -0.0665  0.0393 -0.0654
 1213ERGO    C215420  17.339   2.956   8.106  0.1509 -0.2035 -0.3049
 1214ERGO   ROH15421  10.673  12.789   6.542 -0.2246  0.4215 -0.0205
 1214ERGO    R115422  10.689  12.818   6.823 -0.1977  0.2294 -0.0013
 1214ERGO    R215423  10.503  12.709   6.995 -0.1474  0.0612 -0.0546
 1214ERGO    R315424  10.722  12.597   7.110 -0.1051  0.0368 -0.1573
 1214ERGO    R415425  10.530  12.628   7.330 -0.0731 -0.1160 -0.1019
 1214ERGO    R515426  10.736  12.701   7.325 -0.0850 -0.0759 -0.1015
 1214ERGO    C115427  10.753  12.476   7.633  0.0098 -0.2421 -0.2259
 1214ERGO    C215428  10.654  12.442   7.935 -0.0122  0.0105  0.2138
 1215ERGO   ROH15429  16.078  15.417   7.059  0.0340  0.2081  0.0435
 1215ERGO    R115430  16.118  15.590   7.280 -0.0172  0.1857  0.0678
 1215ERGO    R215431  15.951  15.590   7.500  0.0527  0.0236  0.1088
 1215ERGO    R315432  16.183  15.552   7.635  0.1158  0.1590  0.0444
 1215ERGO    R415433  15.992  15.632   7.841  0.0499 -0.1371  0.1312
 1215ERGO    R515434  16.185  15.724   7.802 -0.0293  0.0743  0.1488
 1215ERGO    C115435  16.234  15.621   8.166  0.1075 -0.1036  0.0840
 1215ERGO    C215436  16.271  15.660   8.481 -0.1012 -0.3097 -0.1521
 1216ERGO   ROH15437  10.076  11.038  10.381 -0.2497 -0.0383  0.0827
 1216ERGO    R115438   9.999  10.985  10.113 -0.1933 -0.0473  0.0690
 1216ERGO    R215439   9.912  11.183   9.942 -0.1599 -0.0564  0.0480
 1216ERGO    R315440  10.109  11.087   9.782 -0.1276 -0.0568  0.0862
 1216ERGO    R415441   9.883  11.132   9.601 -0.1074 -0.0722  0.0453
 1216ERGO    R515442   9.995  10.947   9.624 -0.1015 -0.0707  0.0741
 1216ERGO    C115443  10.051  11.012   9.253 -0.0467 -0.0818  0.0794
 1216ERGO    C215444  10.012  11.009   8.843  0.1266 -0.0312  0.0559
 1217ERGO   ROH15445   9.108   9.724   7.014  0.2202  0.2017  0.1024
 1217ERGO    R115446   8.987   9.671   7.264  0.2280  0.1395  0.0928
 1217ERGO    R215447   9.119   9.540   7.469  0.2578  0.1544  0.0802
 1217ERGO    R315448   9.047   9.760   7.611  0.1917  0.1167  0.1060
 1217ERGO    R415449   9.109   9.558   7.814  0.1624  0.0752  0.0823
 1217ERGO    R515450   8.926   9.674   7.798  0.1496  0.0580  0.0551
 1217ERGO    C115451   9.037   9.776   8.148  0.0447 -0.0062  0.1077
 1217ERGO    C215452   9.081  10.014   8.388 -0.2314 -0.1069  0.2324
 1218ERGO   ROH15453   1.969  10.320   6.852  0.0641 -0.0481  0.0806
 1218ERGO    R115454   1.849  10.261   7.102 -0.0279 -0.0891  0.0272
 1218ERGO    R215455   1.997  10.205   7.329 -0.1102 -0.0094  0.0999
 1218ERGO    R315456   1.848  10.406   7.436 -0.2530 -0.0717  0.0211
 1218ERGO    R415457   1.909  10.229   7.662 -0.1152  0.0616  0.0937
 1218ERGO    R515458   1.711  10.297   7.599 -0.1692 -0.1065  0.0706
 1218ERGO    C115459   1.717  10.431   7.956 -0.2521  0.0444  0.0161
 1218ERGO    C215460   1.776  10.513   8.306 -0.0633  0.2103 -0.0310
 1219ERGO   ROH15461   6.158  10.932   6.635  0.1609  0.1536 -0.0144
 1219ERGO    R115462   6.228  10.957   6.908  0.2488 -0.0520 -0.0155
 1219ERGO    R215463   6.050  11.046   7.100  0.4178  0.1672  0.0457
 1219ERGO    R315464   6.118  10.814   7.224  0.0705  0.0113 -0.0478
 1219ERGO    R415465   6.025  10.991   7.440  0.3389  0.0742  0.0241
 1219ERGO    R515466   6.216  10.884   7.431  0.1832 -0.2141 -0.0205
 1219ERGO    C115467   6.074  10.740   7.754 -0.0331 -0.1263 -0.0762
 1219ERGO    C215468   5.843  10.809   8.024  0.0080  0.0977 -0.0435
 1220ERGO   ROH15469  16.415  10.576   6.609 -0.1891 -0.3558  0.2068
 1220ERGO    R115470  16.485  10.487   6.869  0.0205 -0.1486  0.2232
 1220ERGO    R215471  16.676  10.614   7.024 -0.1042  0.1806  0.1013
 1220ERGO    R315472  16.475  10.622   7.206 -0.0526 -0.0187  0.1719
 1220ERGO    R415473  16.713  10.707   7.355 -0.0960  0.3845  0.0457
 1220ERGO    R515474  16.576  10.547   7.410  0.1406  0.2088  0.1711
 1220ERGO    C115475  16.545  10.769   7.719 -0.0429  0.3162  0.0796
 1220ERGO    C215476  16.632  10.834   8.091 -0.0727 -0.5023  0.2526
 1221ERGO   ROH15477  16.372   0.010   6.585  0.0198 -0.0231  0.0228
 1221ERGO    R115478  16.372   0.073   6.861  0.0321 -0.0231  0.0233
 1221ERGO    R215479  16.163   0.206   6.984  0.0805  0.0666  0.0138
 1221ERGO    R315480  16.168  -0.009   7.151 -0.0185  0.0632  0.0116
 1221ERGO    R415481  16.069   0.212   7.317  0.0381  0.0937  0.0009
 1221ERGO    R515482  16.237   0.081   7.362 -0.0156  0.0340  0.0218
 1221ERGO    C115483  16.018   0.014   7.667 -0.0795  0.1062 -0.0086
 1221ERGO    C215484  16.000  -0.016   8.083  0.1377 -0.0177  0.1940
 1222ERGO   ROH15485  12.667   9.669   6.340 -0.2006 -0.4606  0.0337
 1222ERGO    R115486  12.801   9.688   6.589 -0.1107 -0.5131 -0.0103
 1222ERGO    R215487  12.803   9.920   6.739  0.3019 -0.4062 -0.1626
 1222ERGO    R315488  12.709   9.755   6.934  0.0713 -0.1293 -0.0316
 1222ERGO    R415489  12.832   9.978   7.079  0.3475 -0.1730 -0.2046
 1222ERGO    R515490  12.875   9.767   7.106  0.0707 -0.2070 -0.0288
 1222ERGO    C115491  12.762   9.858   7.459  0.1575  0.2227 -0.1061
 1222ERGO    C215492  12.708  10.012   7.736 -0.0427 -0.0036 -0.0246
 1223ERGO   ROH15493   3.827  11.717   6.826  0.0442 -0.0942  0.0053
 1223ERGO    R115494   3.944  11.696   7.083  0.0479 -0.0095  0.0102
 1223ERGO    R215495   3.845  11.830   7.303 -0.0657 -0.0899  0.0049
 1223ERGO    R315496   3.840  11.581   7.412  0.1203 -0.0960  0.0046
 1223ERGO    R415497   3.891  11.762   7.638 -0.1984 -0.0288  0.0368
 1223ERGO    R515498   4.010  11.588   7.581  0.0173  0.0853  0.1093
 1223ERGO    C115499   3.913  11.488   7.937 -0.1010  0.0011  0.0551
 1223ERGO    C215500   3.792  11.326   8.294  0.2419  0.0998  0.0038
 1224ERGO   ROH15501   8.090  15.145   7.108  0.1613 -0.1561 -0.1228
 1224ERGO    R115502   8.136  15.187   7.384  0.1957 -0.1319 -0.1323
 1224ERGO    R215503   8.008  15.040   7.580  0.0491  0.0407 -0.0989
 1224ERGO    R315504   8.262  14.990   7.663  0.0003 -0.1853 -0.0792
 1224ERGO    R415505   8.096  14.945   7.901 -0.0595  0.0284 -0.0727
 1224ERGO    R515506   8.269  15.076   7.886  0.0713 -0.1390 -0.0968
 1224ERGO    C115507   8.385  14.843   8.165 -0.1683 -0.1910 -0.0389
 1224ERGO    C215508   8.375  14.579   8.464  0.0585  0.0106 -0.2878
 1225ERGO   ROH15509   7.143   1.071   6.932 -0.0981 -0.2160  0.2482
 1225ERGO    R115510   6.988   1.191   7.136  0.0207 -0.2686  0.3707
 1225ERGO    R215511   7.030   1.140   7.404  0.4966  0.0253  0.3627
 1225ERGO    R315512   7.049   1.411   7.420  0.1195  0.0760  0.0901
 1225ERGO    R415513   6.921   1.331   7.671  0.5106  0.1072  0.3105
 1225ERGO    R515514   6.847   1.479   7.529  0.1337 -0.1245  0.2493
 1225ERGO    C115515   6.875   1.696   7.841  0.1649  0.2024  0.0242
 1225ERGO    C215516   6.835   1.752   8.122 -0.0770 -0.0105 -0.2275
 1226ERGO   ROH15517   7.929  13.397  10.548  0.1860 -0.1362 -0.0532
 1226ERGO    R115518   7.921  13.327  10.274  0.0644 -0.1058 -0.0575
 1226ERGO    R215519   7.692  13.352  10.121  0.0519  0.1117 -0.0058
 1226ERGO    R315520   7.854  13.498   9.959  0.1487 -0.0185 -0.0285
 1226ERGO    R415521   7.657  13.378   9.778  0.1786 -0.0604 -0.0336
 1226ERGO    R515522   7.874  13.366   9.760  0.1821 -0.1303  0.0475
 1226ERGO    C115523   7.790  13.531   9.427  0.3433 -0.2829 -0.0712
 1226ERGO    C215524   7.738  13.393   9.150 -0.1867  0.0280  0.0734
 1227ERGO   ROH15525   1.138   9.090   6.465  0.0217  0.1782 -0.0740
 1227ERGO    R115526   1.165   9.058   6.745  0.0083 -0.0065 -0.0913
 1227ERGO    R215527   1.410   9.026   6.868  0.0173 -0.0009 -0.0865
 1227ERGO    R315528   1.326   9.237   7.018 -0.0820 -0.1312  0.0415
 1227ERGO    R415529   1.507   9.087   7.194 -0.1625 -0.2269  0.0110
 1227ERGO    R515530   1.301   9.147   7.239 -0.1806 -0.2932 -0.0433
 1227ERGO    C115531   1.484   9.321   7.525 -0.3604 -0.4806  0.1880
 1227ERGO    C215532   1.627   9.361   7.766  0.0802  0.1022  0.1830
 1228ERGO   ROH15533   1.349  11.279   6.799  0.0179  0.0138  0.0149
 1228ERGO    R115534   1.220  11.461   6.973  0.1334  0.0482  0.0652
 1228ERGO    R215535   0.946  11.484   6.986  0.1476  0.2265  0.0626
 1228ERGO    R315536   0.987  11.440   7.252  0.1110  0.1193  0.0516
 1228ERGO    R415537   0.733  11.587   7.238  0.0917  0.0841  0.0750
 1228ERGO    R515538   0.908  11.641   7.357  0.0631  0.0608  0.1261
 1228ERGO    C115539   0.647  11.606   7.634  0.0247 -0.0993  0.0719
 1228ERGO    C215540   0.312  11.276   7.807 -0.0811 -0.0403 -0.1357
 1229ERGO   ROH15541   0.663  10.723  10.385 -0.2369  0.0909 -0.0841
 1229ERGO    R115542   0.659  10.872  10.144 -0.0953  0.0082 -0.1401
 1229ERGO    R215543   0.857  10.850   9.953 -0.0297 -0.1321 -0.0657
 1229ERGO    R315544   0.647  10.798   9.788  0.0081 -0.1169 -0.1168
 1229ERGO    R415545   0.808  10.995   9.643  0.0557 -0.1448 -0.0844
 1229ERGO    R515546   0.595  11.009   9.688  0.0511 -0.1224 -0.1404
 1229ERGO    C115547   0.582  11.030   9.308  0.1410 -0.1381 -0.1433
 1229ERGO    C215548   0.802  11.097   8.992  0.2331 -0.0519 -0.2193
 1230ERGO   ROH15549   8.127  11.133   6.558 -0.1212 -0.1866 -0.0826
 1230ERGO    R115550   8.086  11.145   6.838 -0.0755 -0.0572 -0.0813
 1230ERGO    R215551   8.133  10.929   7.005 -0.2062 -0.0301 -0.0120
 1230ERGO    R315552   8.291  11.107   7.137 -0.0624 -0.0946 -0.0943
 1230ERGO    R415553   8.214  10.910   7.340 -0.1305 -0.0056 -0.0286
 1230ERGO    R515554   8.191  11.126   7.354  0.0040  0.0148 -0.0710
 1230ERGO    C115555   8.411  11.066   7.659  0.0486 -0.0517 -0.1155
 1230ERGO    C215556   8.353  10.885   7.898 -0.1421 -0.0412 -0.2322
 1231ERGO   ROH15557  10.523   9.350   6.799 -0.0894 -0.1046  0.0905
 1231ERGO    R115558  10.455   9.260   7.058 -0.2112  0.0155  0.1000
 1231ERGO    R215559  10.639   9.245   7.264 -0.2438 -0.1604  0.1124
 1231ERGO    R315560  10.458   9.399   7.395 -0.0795  0.0683  0.0788
 1231ERGO    R415561  10.643   9.308   7.604 -0.0678  0.0606  0.0724
 1231ERGO    R515562  10.426   9.287   7.605 -0.0884  0.2272  0.1665
 1231ERGO    C115563  10.475   9.489   7.925  0.1888  0.4041  0.0177
 1231ERGO    C215564  10.456   9.550   8.241  0.0235  0.1158 -0.1842
 1232ERGO   ROH15565  16.233   1.352   6.655 -0.1791  0.0955  0.0244
 1232ERGO    R115566  16.394   1.343   6.888 -0.0414  0.1708 -0.0665
 1232ERGO    R215567  16.383   1.537   7.084 -0.1124  0.1017 -0.0039
 1232ERGO    R315568  16.338   1.325   7.247  0.1723  0.0094 -0.0389
 1232ERGO    R415569  16.377   1.551   7.430 -0.3290  0.0834 -0.0055
 1232ERGO    R515570  16.483   1.361   7.434  0.0103  0.2647  0.0448
 1232ERGO    C115571  16.331   1.359   7.784 -0.1879 -0.0139 -0.0394
 1232ERGO    C215572  16.298   1.369   8.086 -0.1509  0.2960  0.0483
 1233ERGO   ROH15573   2.773  12.812  10.517  0.0961  0.1671 -0.0119
 1233ERGO    R115574   2.604  12.834  10.291  0.0929  0.1079 -0.0149
 1233ERGO    R215575   2.589  13.064  10.138  0.0873  0.0672 -0.0706
 1233ERGO    R315576   2.646  12.893   9.934  0.0847  0.0193 -0.0320
 1233ERGO    R415577   2.586  13.148   9.802 -0.1689 -0.0672 -0.1047
 1233ERGO    R515578   2.494  12.955   9.760 -0.0651 -0.1533  0.0301
 1233ERGO    C115579   2.638  13.037   9.416 -0.3205 -0.1904 -0.0883
 1233ERGO    C215580   2.703  13.053   9.054  0.0088  0.1706 -0.0644
 1234ERGO   ROH15581   6.627   7.706   6.555 -0.1757 -0.3659  0.0214
 1234ERGO    R115582   6.603   7.787   6.825  0.0941 -0.2453  0.0128
 1234ERGO    R215583   6.366   7.767   6.966  0.1072  0.2420  0.1246
 1234ERGO    R315584   6.520   7.628   7.142 -0.0738 -0.0089  0.0890
 1234ERGO    R415585   6.336   7.783   7.310  0.2001  0.2752  0.1310
 1234ERGO    R515586   6.553   7.780   7.325  0.2012 -0.0673  0.0893
 1234ERGO    C115587   6.462   7.662   7.676  0.0842  0.0590  0.1014
 1234ERGO    C215588   6.543   7.734   7.991  0.0806  0.0374 -0.1010
 1235ERGO   ROH15589   2.386   0.676   6.451  0.0700  0.0196 -0.0037
 1235ERGO    R115590   2.418   0.599   6.722  0.0460  0.1231  0.0284
 1235ERGO    R215591   2.450   0.783   6.926 -0.1375  0.2070 -0.0193
 1235ERGO    R315592   2.238   0.651   7.034 -0.0787  0.0947 -0.0368
 1235ERGO    R415593   2.332   0.830   7.247 -0.0793  0.0233  0.0308
 1235ERGO    R515594   2.302   0.614   7.262 -0.0161  0.0034 -0.0657
 1235ERGO    C115595   2.064   0.734   7.536  0.0099 -0.1891  0.0436
 1235ERGO    C215596   1.908   0.839   7.797 -0.1895 -0.2893  0.0710
 1236ERGO   ROH15597   9.568  15.952   7.057 -0.1698 -0.1033  0.0493
 1236ERGO    R115598   9.701  16.074   7.276 -0.0430 -0.2401  0.0507
 1236ERGO    R215599   9.595  16.290   7.413  0.2919  0.0347 -0.1070
 1236ERGO    R315600   9.632  16.129   7.629 -0.1141  0.0651 -0.0082
 1236ERGO    R415601   9.639  16.401   7.737  0.5211  0.1266 -0.1683
 1236ERGO    R515602   9.790  16.246   7.764  0.1580 -0.2253 -0.0632
 1236ERGO    C115603   9.699  16.315   8.128  0.2737  0.2087 -0.1113
 1236ERGO    C215604   9.659  16.379   8.408 -0.0921 -0.0113 -0.2637
 1237ERGO   ROH15605   4.486  12.560  10.438 -0.1391  0.0718  0.0530
 1237ERGO    R115606   4.601  12.482  10.191 -0.1293  0.0964  0.0506
 1237ERGO    R215607   4.448  12.422   9.968 -0.1260 -0.0459  0.0910
 1237ERGO    R315608   4.605  12.610   9.850 -0.2651  0.0305  0.0221
 1237ERGO    R415609   4.549  12.417   9.638 -0.2695 -0.0050  0.0453
 1237ERGO    R515610   4.745  12.485   9.701 -0.2695  0.0904 -0.0383
 1237ERGO    C115611   4.755  12.590   9.334 -0.4835  0.0905 -0.0460
 1237ERGO    C215612   4.722  12.636   9.059  0.3168 -0.0443  0.1703
 1238ERGO   ROH15613   7.858  13.254   6.725  0.2278  0.1711 -0.1451
 1238ERGO    R115614   7.817  13.079   6.944  0.0943  0.1402 -0.1937
 1238ERGO    R215615   8.022  12.938   7.062 -0.0232 -0.1057 -0.2772
 1238ERGO    R315616   7.930  13.057   7.289  0.1385 -0.0855 -0.2211
 1238ERGO    R415617   8.086  12.827   7.383 -0.1322 -0.3225 -0.3291
 1238ERGO    R515618   7.880  12.874   7.435 -0.0747 -0.0897 -0.2950
 1238ERGO    C115619   8.038  12.873   7.783 -0.0440 -0.4298 -0.3066
 1238ERGO    C215620   8.118  12.705   8.120  0.4708  0.3361 -0.0906
 1239ERGO   ROH15621   7.479   6.329   6.489 -0.1101 -0.0583 -0.0269
 1239ERGO    R115622   7.401   6.201   6.729  0.0726 -0.1204  0.0007
 1239ERGO    R215623   7.572   6.038   6.872  0.2631  0.0408 -0.0383
 1239ERGO    R315624   7.507   6.204   7.077  0.1659 -0.0082 -0.0283
 1239ERGO    R415625   7.667   5.992   7.201 -0.0880 -0.1616  0.0400
 1239ERGO    R515626   7.468   6.058   7.262 -0.1087 -0.0654 -0.1271
 1239ERGO    C115627   7.661   6.121   7.585 -0.3836 -0.3254  0.0949
 1239ERGO    C215628   7.817   6.072   7.924 -0.0337  0.1048 -0.1563
 1240ERGO   ROH15629   2.861  12.032   6.758 -0.0539  0.0794  0.1751
 1240ERGO    R115630   2.886  12.186   6.994  0.0032  0.1081  0.1504
 1240ERGO    R215631   2.747  12.127   7.226  0.0188  0.1677  0.1750
 1240ERGO    R315632   2.996  12.129   7.336  0.0321  0.1357  0.1459
 1240ERGO    R415633   2.814  12.098   7.564  0.0609  0.0531  0.1576
 1240ERGO    R515634   2.969  12.249   7.541  0.0542  0.0647  0.1909
 1240ERGO    C115635   3.086  12.083   7.864  0.0978 -0.0436  0.1201
 1240ERGO    C215636   3.207  12.092   8.145 -0.1242  0.1399  0.5566
 1241ERGO   ROH15637   0.534   5.617   9.362 -0.0464 -0.0383 -0.0970
 1241ERGO    R115638   0.434   5.695   9.109 -0.1286 -0.2203 -0.1233
 1241ERGO    R215639   0.590   5.825   8.921 -0.3335  0.1463 -0.0546
 1241ERGO    R315640   0.510   5.621   8.760  0.1628 -0.0197 -0.1043
 1241ERGO    R415641   0.567   5.843   8.577 -0.3643  0.1642 -0.0508
 1241ERGO    R515642   0.382   5.728   8.588 -0.0930 -0.2893 -0.0843
 1241ERGO    C115643   0.480   5.662   8.225  0.0836  0.0188 -0.0955
 1241ERGO    C215644   0.478   5.833   7.969  0.1183 -0.0964  0.0010
 1242ERGO   ROH15645   1.620   6.637   6.219  0.2453  0.2321  0.3418
 1242ERGO    R115646   1.477   6.620   6.463  0.1299  0.2428  0.2769
 1242ERGO    R215647   1.500   6.403   6.634 -0.0327  0.1975  0.2500
 1242ERGO    R315648   1.560   6.595   6.817 -0.0326  0.1412  0.3076
 1242ERGO    R415649   1.381   6.412   6.958 -0.1919  0.2167  0.1912
 1242ERGO    R515650   1.357   6.628   6.939 -0.0750  0.2269  0.2088
 1242ERGO    C115651   1.369   6.597   7.319 -0.2846  0.1752  0.2111
 1242ERGO    C215652   1.457   6.446   7.641 -0.0436  0.0873  0.1163
 1243ERGO   ROH15653  10.210  12.432  10.416 -0.3425  0.0698 -0.0103
 1243ERGO    R115654  10.144  12.554  10.169 -0.2651 -0.0247 -0.0774
 1243ERGO    R215655  10.313  12.548   9.951 -0.1816 -0.0756 -0.0075
 1243ERGO    R315656  10.095  12.445   9.825 -0.1177 -0.1482 -0.0615
 1243ERGO    R415657  10.279  12.515   9.608 -0.1475  0.0732 -0.0260
 1243ERGO    R515658  10.071  12.578   9.628 -0.1910 -0.0611  0.0018
 1243ERGO    C115659  10.054  12.400   9.291 -0.0678  0.0917 -0.0876
 1243ERGO    C215660   9.956  12.399   8.888  0.2914 -0.1986 -0.0448
 1244ERGO   ROH15661  13.988   8.090   9.830  0.0054 -0.0631 -0.0150
 1244ERGO    R115662  14.104   8.174   9.586  0.0443 -0.0966 -0.0082
 1244ERGO    R215663  14.109   8.013   9.361  0.0277 -0.1056 -0.0035
 1244ERGO    R315664  13.991   8.229   9.245  0.0843 -0.0830 -0.0190
 1244ERGO    R415665  14.107   8.078   9.022  0.1430 -0.0671  0.0029
 1244ERGO    R515666  14.140   8.288   9.067  0.1464 -0.0758  0.0360
 1244ERGO    C115667  13.995   8.317   8.715  0.2633 -0.0236 -0.0079
 1244ERGO    C215668  13.914   8.369   8.343  0.0045 -0.2226 -0.0246
 1245ERGO   ROH15669   7.774  17.231  10.529 -0.1394 -0.2227 -0.0728
 1245ERGO    R115670   7.961  17.198  10.320 -0.0314  0.1364 -0.0389
 1245ERGO    R215671   7.983  16.964  10.174  0.4950  0.1416  0.0106
 1245ERGO    R315672   7.949  17.131   9.962  0.1621  0.0323 -0.0276
 1245ERGO    R415673   7.979  16.867   9.842  0.4543  0.0314  0.0424
 1245ERGO    R515674   8.093  17.045   9.793  0.1932  0.1724 -0.0733
 1245ERGO    C115675   7.944  16.968   9.450  0.1180 -0.1352  0.0252
 1245ERGO    C215676   7.878  17.033   9.113  0.1579  0.1078 -0.2007
 1246ERGO   ROH15677  15.436  11.301   6.525 -0.1228 -0.2949  0.0058
 1246ERGO    R115678  15.374  11.107   6.722  0.1157 -0.4430 -0.0614
 1246ERGO    R215679  15.558  10.920   6.809  0.5109  0.0478  0.2092
 1246ERGO    R315680  15.496  11.021   7.054 -0.1015 -0.0769  0.1202
 1246ERGO    R415681  15.522  10.732   7.097  0.3498 -0.0404  0.1333
 1246ERGO    R515682  15.351  10.856   7.151  0.0197 -0.3504 -0.1469
 1246ERGO    C115683  15.443  10.717   7.494 -0.3189 -0.2086  0.0056
 1246ERGO    C215684  15.322  10.577   7.851  0.1947  0.1574  0.0856
 1247ERGO   ROH15685  15.672  11.840  10.462  0.0831 -0.1139 -0.1039
 1247ERGO    R115686  15.570  11.897  10.204  0.0690 -0.1985 -0.1183
 1247ERGO    R215687  15.673  12.097  10.044 -0.2042  0.0320 -0.0256
 1247ERGO    R315688  15.698  11.895   9.863  0.1873  0.1180 -0.0760
 1247ERGO    R415689  15.672  12.138   9.701 -0.1863  0.1093 -0.0162
 1247ERGO    R515690  15.551  11.957   9.685  0.1277 -0.0925 -0.0959
 1247ERGO    C115691  15.695  11.973   9.332  0.1916  0.2351 -0.0579
 1247ERGO    C215692  15.796  12.181   9.104  0.1795 -0.1809  0.0999
 1248ERGO   ROH15693   5.591  13.362   6.722  0.0698  0.0945  0.1112
 1248ERGO    R115694   5.807  13.354   6.904  0.0851  0.0569  0.0920
 1248ERGO    R215695   5.896  13.578   7.040  0.0581  0.0189  0.1775
 1248ERGO    R315696   5.857  13.422   7.259  0.0987 -0.0780  0.1157
 1248ERGO    R415697   6.090  13.586   7.326  0.0916 -0.0932  0.1583
 1248ERGO    R515698   6.078  13.369   7.334  0.1093 -0.0953  0.0663
 1248ERGO    C115699   6.166  13.444   7.698  0.1491 -0.2495  0.0889
 1248ERGO    C215700   6.355  13.561   7.865  0.0099  0.0165 -0.1382
 1249ERGO   ROH15701  15.421  13.863   7.204 -0.0888  0.2010 -0.1072
 1249ERGO    R115702  15.645  13.903   7.373 -0.0487  0.0038 -0.1106
 1249ERGO    R215703  15.638  13.849   7.644 -0.1262  0.1121 -0.0870
 1249ERGO    R315704  15.855  13.696   7.586 -0.3019 -0.1660 -0.0230
 1249ERGO    R415705  15.804  13.649   7.871 -0.2538  0.1444  0.0347
 1249ERGO    R515706  15.993  13.712   7.782 -0.2186 -0.1316 -0.0870
 1249ERGO    C115707  16.104  13.389   7.950 -0.4931 -0.0979  0.1656
 1249ERGO    C215708  16.147  13.049   8.067 -0.3145 -0.0046  0.1489
 1250ERGO   ROH15709  11.760  10.115  10.123  0.1166  0.1279 -0.1098
 1250ERGO    R115710  11.771  10.261   9.881  0.0804  0.0056 -0.1881
 1250ERGO    R215711  11.968  10.447   9.828 -0.1138  0.2332 -0.1690
 1250ERGO    R315712  12.004  10.298   9.604  0.2129  0.1378 -0.0582
 1250ERGO    R415713  12.048  10.575   9.517 -0.3830  0.1697 -0.2663
 1250ERGO    R515714  11.910  10.431   9.428 -0.0733 -0.1975 -0.1638
 1250ERGO    C115715  12.129  10.509   9.125 -0.2332  0.0430 -0.2187
 1250ERGO    C215716  12.138  10.586   8.785 -0.3103 -0.1021  0.2021
 1251ERGO   ROH15717   7.067  14.938   6.980 -0.1646  0.0341 -0.0062
 1251ERGO    R115718   7.216  14.971   7.218 -0.0722 -0.0379 -0.0534
 1251ERGO    R215719   7.124  15.120   7.432  0.0954  0.0607 -0.0486
 1251ERGO    R315720   7.172  14.891   7.571 -0.0297  0.0452 -0.0287
 1251ERGO    R415721   7.100  15.087   7.776  0.0662  0.1033 -0.0464
 1251ERGO    R515722   7.280  14.964   7.772  0.0032  0.0070 -0.0310
 1251ERGO    C115723   7.132  14.853   8.105 -0.0683  0.1137 -0.0266
 1251ERGO    C215724   6.988  14.753   8.386  0.0458  0.3587 -0.1325
 1252ERGO   ROH15725  11.270   5.348   9.615 -0.1039 -0.0639  0.0380
 1252ERGO    R115726  11.123   5.399   9.379  0.0084 -0.0883 -0.0377
 1252ERGO    R215727  11.242   5.485   9.146  0.1190 -0.1092  0.0115
 1252ERGO    R315728  11.116   5.269   9.039  0.1727 -0.1203 -0.0303
 1252ERGO    R415729  11.237   5.406   8.809 -0.0556  0.0874 -0.0345
 1252ERGO    R515730  11.028   5.350   8.831 -0.0113 -0.0461  0.0726
 1252ERGO    C115731  11.116   5.158   8.513 -0.1067  0.1913 -0.1004
 1252ERGO    C215732  11.069   5.008   8.271  0.0518  0.0699  0.1436
 1253ERGO   ROH15733  14.550   7.971   6.280 -0.2299  0.0961 -0.1672
 1253ERGO    R115734  14.661   8.010   6.538 -0.1696  0.0740 -0.1894
 1253ERGO    R215735  14.698   8.261   6.647 -0.1920  0.0639 -0.1556
 1253ERGO    R315736  14.553   8.158   6.852 -0.1176 -0.0025 -0.1359
 1253ERGO    R415737  14.628   8.427   6.942 -0.1695  0.0018 -0.1153
 1253ERGO    R515738  14.662   8.240   7.049 -0.0957 -0.0026 -0.1494
 1253ERGO    C115739  14.451   8.426   7.307 -0.0865 -0.0966 -0.0732
 1253ERGO    C215740  14.229   8.453   7.556  0.0226  0.3101  0.1361
 1254ERGO   ROH15741  14.888  17.444   6.755 -0.3337 -0.0511  0.0311
 1254ERGO    R115742  14.862  17.552   7.015 -0.2288 -0.0535  0.0433
 1254ERGO    R215743  14.657  17.481   7.186 -0.1311 -0.0959  0.1471
 1254ERGO    R315744  14.862  17.424   7.356 -0.0337 -0.0509  0.0449
 1254ERGO    R415745  14.624  17.429   7.526  0.0753  0.0509  0.1911
 1254ERGO    R515746  14.807  17.542   7.557  0.1081  0.0393  0.0302
 1254ERGO    C115747  14.797  17.346   7.883  0.2869  0.1785  0.1208
 1254ERGO    C215748  14.932  16.999   8.033  0.0607 -0.0145  0.0155
 1255ERGO   ROH15749   5.400  10.355   6.419  0.1063 -0.2286  0.0138
 1255ERGO    R115750   5.362  10.418   6.692  0.2127 -0.0888 -0.0026
 1255ERGO    R215751   5.188  10.278   6.855  0.0208  0.2054  0.0537
 1255ERGO    R315752   5.408  10.250   7.012 -0.0050 -0.0589  0.0465
 1255ERGO    R415753   5.189  10.300   7.200  0.0192 -0.0302  0.0697
 1255ERGO    R515754   5.377  10.410   7.188  0.0998 -0.1543  0.1542
 1255ERGO    C115755   5.396  10.286   7.548 -0.0059 -0.4154  0.0722
 1255ERGO    C215756   5.393  10.178   7.869 -0.1575  0.2844 -0.2956
 1256ERGO   ROH15757  14.073   3.392   6.425  0.0478  0.0927 -0.1720
 1256ERGO    R115758  14.048   3.613   6.600  0.0406  0.0329 -0.0976
 1256ERGO    R215759  13.843   3.797   6.579  0.0423  0.0374 -0.0422
 1256ERGO    R315760  13.803   3.734   6.840  0.0322 -0.0483 -0.0638
 1256ERGO    R415761  13.611   3.949   6.785  0.0736  0.0155  0.0097
 1256ERGO    R515762  13.758   3.944   6.946  0.0768 -0.0725  0.0096
 1256ERGO    C115763  13.438   3.978   7.150  0.0824 -0.0777  0.0199
 1256ERGO    C215764  13.200   3.982   7.339  0.1553  0.0228  0.1734
 1257ERGO   ROH15765  16.884   9.723   6.561 -0.1098 -0.1378  0.1629
 1257ERGO    R115766  16.914   9.619   6.823  0.1274 -0.0541  0.1715
 1257ERGO    R215767  17.150   9.639   6.965  0.1713  0.2481  0.0633
 1257ERGO    R315768  16.990   9.753   7.153  0.1210  0.0999  0.1114
 1257ERGO    R415769  17.232   9.675   7.299  0.2198  0.2861  0.0474
 1257ERGO    R515770  17.027   9.621   7.350  0.2753  0.1125  0.0912
 1257ERGO    C115771  17.130   9.803   7.670  0.2011  0.1691  0.0834
 1257ERGO    C215772  17.144   9.849   7.964 -0.0048 -0.1857  0.1011
 1258ERGO   ROH15773  17.605   0.972  10.154 -0.0052 -0.0923 -0.0189
 1258ERGO    R115774  17.534   1.053   9.892 -0.0597 -0.1083 -0.0102
 1258ERGO    R215775  17.714   1.169   9.717 -0.1631  0.1494  0.0424
 1258ERGO    R315776  17.635   0.968   9.553  0.0952  0.0919 -0.0146
 1258ERGO    R415777  17.714   1.184   9.372 -0.2729  0.2770  0.0483
 1258ERGO    R515778  17.523   1.079   9.372 -0.1156 -0.0069  0.0563
 1258ERGO    C115779  17.639   1.004   9.016 -0.0941  0.2974 -0.0019
 1258ERGO    C215780  17.571   1.077   8.626  0.0766  0.0975 -0.2127
 1259ERGO   ROH15781   7.096   7.030   9.968 -0.0461 -0.0078  0.2667
 1259ERGO    R115782   7.084   6.906   9.714  0.2921  0.1261  0.1821
 1259ERGO    R215783   6.850   6.886   9.568  0.3520 -0.3557  0.1537
 1259ERGO    R315784   6.998   7.005   9.374  0.0849  0.1428  0.2352
 1259ERGO    R415785   6.783   6.869   9.230  0.4041 -0.3142  0.1394
 1259ERGO    R515786   6.997   6.848   9.193  0.4801  0.2328  0.1348
 1259ERGO    C115787   6.883   6.970   8.850  0.1837  0.1780  0.2076
 1259ERGO    C215788   6.968   7.129   8.629 -0.0594 -0.0750 -0.0737
 1260ERGO   ROH15789   3.123  14.733   8.036  0.0196 -0.1002  0.2133
 1260ERGO    R115790   3.111  14.908   8.258  0.0205 -0.0877  0.2061
 1260ERGO    R215791   3.315  14.928   8.444  0.0435 -0.0487  0.1899
 1260ERGO    R315792   3.301  15.192   8.382  0.0002 -0.0591  0.1646
 1260ERGO    R415793   3.470  15.181   8.620  0.0560 -0.0050  0.1134
 1260ERGO    R515794   3.292  15.303   8.594  0.0430 -0.0315  0.1453
 1260ERGO    C115795   3.548  15.576   8.666  0.0226  0.0107  0.0451
 1260ERGO    C215796   3.761  15.943   8.567  0.1064 -0.2105 -0.1073
 1261ERGO   ROH15797   3.477   0.924   6.689 -0.0091  0.0488  0.1983
 1261ERGO    R115798   3.537   0.959   6.963  0.0358  0.1585  0.1743
 1261ERGO    R215799   3.527   1.206   7.087 -0.1930  0.1692  0.1328
 1261ERGO    R315800   3.360   1.077   7.259 -0.0040  0.0181  0.2084
 1261ERGO    R415801   3.493   1.280   7.423 -0.0813  0.1164  0.1568
 1261ERGO    R515802   3.483   1.067   7.464  0.1127  0.1004  0.1464
 1261ERGO    C115803   3.317   1.203   7.779  0.1612 -0.0562  0.2417
 1261ERGO    C215804   3.370   1.176   8.050  0.1914 -0.0712 -0.3406
 1262ERGO   ROH15805   8.636  17.035   7.032  0.1092 -0.0204 -0.0604
 1262ERGO    R115806   8.664  16.875   7.263  0.0740  0.0038 -0.0390
 1262ERGO    R215807   8.878  16.899   7.437  0.0716 -0.0087 -0.0312
 1262ERGO    R315808   8.683  16.931   7.622  0.0675  0.0465 -0.0458
 1262ERGO    R415809   8.932  16.946   7.774  0.0549 -0.1864 -0.0030
 1262ERGO    R515810   8.764  16.815   7.815 -0.0397 -0.0888 -0.0822
 1262ERGO    C115811   8.780  17.005   8.146  0.0413 -0.2381 -0.0001
 1262ERGO    C215812   8.813  17.074   8.496  0.2070  0.1373 -0.1716
 1263ERGO   ROH15813   4.940  14.934  10.682 -0.2252 -0.1017  0.0937
 1263ERGO    R115814   4.805  14.872  10.441 -0.1170 -0.0570  0.0204
 1263ERGO    R215815   4.785  15.051  10.231 -0.0146 -0.0220  0.0415
 1263ERGO    R315816   4.891  14.845  10.089  0.0433 -0.0010  0.0538
 1263ERGO    R415817   4.786  15.029   9.886 -0.2540 -0.1623  0.0476
 1263ERGO    R515818   4.741  14.817   9.904 -0.0755 -0.1952  0.1739
 1263ERGO    C115819   4.886  14.823   9.552 -0.3390 -0.2242  0.0628
 1263ERGO    C215820   4.912  14.771   9.173 -0.0359 -0.0623 -0.0229
 1264ERGO   ROH15821  13.888   1.467   6.656 -0.0230 -0.0185 -0.1174
 1264ERGO    R115822  13.932   1.583   6.910 -0.1061  0.0098 -0.1159
 1264ERGO    R215823  13.728   1.628   7.091 -0.1351 -0.1535 -0.1054
 1264ERGO    R315824  13.886   1.484   7.258 -0.0181 -0.0328 -0.1182
 1264ERGO    R415825  13.699   1.625   7.435 -0.1832 -0.2697 -0.1100
 1264ERGO    R515826  13.917   1.627   7.448 -0.1915 -0.0528 -0.0777
 1264ERGO    C115827  13.831   1.488   7.792 -0.1014 -0.2241 -0.1248
 1264ERGO    C215828  13.779   1.500   8.128 -0.0559 -0.0879 -0.0617
 1265ERGO   ROH15829   9.798  17.302   7.273 -0.0922 -0.0992 -0.1933
 1265ERGO    R115830   9.915  17.303   7.531 -0.0046  0.1530 -0.2307
 1265ERGO    R215831   9.891  17.517   7.704 -0.1728  0.2191 -0.3270
 1265ERGO    R315832   9.798  17.327   7.874  0.0833  0.1998 -0.2048
 1265ERGO    R415833   9.806  17.572   8.034 -0.1808  0.2955 -0.3422
 1265ERGO    R515834   9.898  17.381   8.085  0.0550  0.4329 -0.2518
 1265ERGO    C115835   9.668  17.425   8.386  0.0550  0.3218 -0.2363
 1265ERGO    C215836   9.437  17.535   8.511  0.1887 -0.0512 -0.0537
 1266ERGO   ROH15837  13.606  14.143   6.891 -0.0825 -0.0159  0.0070
 1266ERGO    R115838  13.698  14.244   7.139  0.0690  0.0635 -0.0799
 1266ERGO    R215839  13.657  14.506   7.217 -0.0078  0.0517 -0.0793
 1266ERGO    R315840  13.547  14.390   7.437  0.2355  0.0182  0.0275
 1266ERGO    R415841  13.654  14.645   7.533  0.0413  0.1599 -0.1257
 1266ERGO    R515842  13.696  14.448   7.615  0.2854  0.2285 -0.0791
 1266ERGO    C115843  13.549  14.616   7.924  0.2986  0.1915 -0.0525
 1266ERGO    C215844  13.488  14.672   8.248  0.2314  0.0160  0.0245
 1267ERGO   ROH15845   9.550   6.723   9.797 -0.1041 -0.0615  0.0632
 1267ERGO    R115846   9.585   6.713   9.517 -0.0632 -0.1150  0.0703
 1267ERGO    R215847   9.412   6.837   9.341  0.0115 -0.0775  0.0262
 1267ERGO    R315848   9.641   6.953   9.249  0.0679 -0.1745  0.0425
 1267ERGO    R415849   9.458   6.956   9.019  0.0377  0.0090  0.0614
 1267ERGO    R515850   9.660   6.874   9.023 -0.0047 -0.1091  0.0107
 1267ERGO    C115851   9.699   7.133   8.746  0.1060 -0.0316  0.0972
 1267ERGO    C215852   9.676   7.273   8.387  0.0796  0.1222 -0.1305
 1268ERGO   ROH15853   7.925   7.247   6.487  0.0575  0.2997 -0.0312
 1268ERGO    R115854   7.847   7.261   6.759  0.0260  0.1620 -0.0325
 1268ERGO    R215855   7.819   7.037   6.917  0.0972  0.0879 -0.1247
 1268ERGO    R315856   7.992   7.170   7.080  0.0306  0.0900 -0.0547
 1268ERGO    R415857   7.864   6.971   7.254  0.1768 -0.1114 -0.1724
 1268ERGO    R515858   7.876   7.186   7.289  0.0426 -0.1253 -0.0288
 1268ERGO    C115859   8.052   7.058   7.602  0.1606 -0.2255 -0.1345
 1268ERGO    C215860   8.049   7.069   7.924  0.1030 -0.2773 -0.1898
 1269ERGO   ROH15861  17.241  14.878   7.132 -0.0620  0.1496  0.0334
 1269ERGO    R115862  17.394  14.706   7.297  0.0588  0.1071 -0.1186
 1269ERGO    R215863  17.669  14.718   7.311  0.0581  0.2719 -0.1245
 1269ERGO    R315864  17.622  14.741   7.578  0.0507  0.0233 -0.1030
 1269ERGO    R415865  17.909  14.797   7.547  0.0014  0.2602 -0.0639
 1269ERGO    R515866  17.818  14.650   7.681  0.1169  0.0885 -0.1807
 1269ERGO    C115867  18.004  14.864   7.935 -0.0387  0.0199 -0.0085
 1269ERGO    C215868  18.254  15.089   8.001  0.1575 -0.2359  0.2429
 1270ERGO   ROH15869   8.407  17.464   7.060 -0.1938 -0.0273 -0.0396
 1270ERGO    R115870   8.476  17.381   7.321 -0.3388  0.0537  0.0256
 1270ERGO    R215871   8.738  17.342   7.402 -0.3965 -0.2846  0.0692
 1270ERGO    R315872   8.668  17.515   7.600 -0.1544 -0.0333 -0.0581
 1270ERGO    R415873   8.879  17.349   7.717 -0.4614 -0.3253  0.0992
 1270ERGO    R515874   8.681  17.384   7.800 -0.4282  0.0684  0.0304
 1270ERGO    C115875   8.896  17.515   8.086 -0.2719 -0.1130 -0.0027
 1270ERGO    C215876   8.932  17.516   8.482 -0.1489  0.0792  0.0201
 1271ERGO   ROH15877   9.746  13.871   6.798 -0.2719  0.0125  0.0002
 1271ERGO    R115878   9.812  13.930   7.067 -0.0118 -0.0799 -0.0416
 1271ERGO    R215879   9.628  13.917   7.273  0.1134  0.1386  0.0833
 1271ERGO    R315880   9.813  13.752   7.384 -0.0098 -0.0946 -0.0481
 1271ERGO    R415881   9.627  13.811   7.601  0.2373  0.1907  0.1013
 1271ERGO    R515882   9.842  13.836   7.606  0.2835 -0.0952 -0.0804
 1271ERGO    C115883   9.800  13.594   7.897  0.1938  0.0021 -0.0115
 1271ERGO    C215884   9.727  13.441   8.144 -0.1165 -0.1163  0.0372
 1272ERGO   ROH15885  15.391  14.891   7.094 -0.1634  0.1106 -0.0413
 1272ERGO    R115886  15.288  14.743   7.312  0.1561  0.0639  0.0839
 1272ERGO    R215887  15.414  14.731   7.557  0.2458  0.4520  0.0643
 1272ERGO    R315888  15.172  14.814   7.650  0.1137  0.0837  0.0648
 1272ERGO    R415889  15.332  14.766   7.891  0.1966  0.3496  0.0630
 1272ERGO    R515890  15.136  14.682   7.846  0.3225  0.0391  0.0746
 1272ERGO    C115891  15.057  14.864   8.172  0.0437 -0.0559  0.0626
 1272ERGO    C215892  14.964  14.928   8.456 -0.2151 -0.0509 -0.0070
 1273ERGO   ROH15893  13.049   0.648   7.714 -0.0920  0.3238  0.0235
 1273ERGO    R115894  13.236   0.672   7.925 -0.0906  0.2145  0.0352
 1273ERGO    R215895  13.162   0.658   8.191 -0.0975  0.1404  0.0289
 1273ERGO    R315896  13.352   0.464   8.200 -0.1373  0.0984 -0.0315
 1273ERGO    R415897  13.282   0.514   8.481 -0.0128  0.1436 -0.0044
 1273ERGO    R515898  13.482   0.518   8.394 -0.0457  0.0900 -0.0885
 1273ERGO    C115899  13.530   0.247   8.659 -0.0010  0.1060 -0.0805
 1273ERGO    C215900  13.488   0.031   8.923  0.0338 -0.0975  0.0093
 1274ERGO   ROH15901   1.754   2.495   6.644  0.3018  0.0991 -0.1089
 1274ERGO    R115902   1.776   2.319   6.865  0.0600  0.0430 -0.1258
 1274ERGO    R215903   2.004   2.302   7.020  0.0064 -0.2183 -0.0658
 1274ERGO    R315904   1.831   2.351   7.224 -0.0000 -0.0625 -0.1076
 1274ERGO    R415905   2.037   2.177   7.340 -0.1120 -0.1275 -0.0179
 1274ERGO    R515906   1.821   2.144   7.344 -0.1270 -0.0152 -0.0393
 1274ERGO    C115907   1.893   2.150   7.718 -0.1870  0.0715 -0.0291
 1274ERGO    C215908   2.019   2.321   8.060  0.0474  0.0668 -0.0029
 1275ERGO   ROH15909  14.914   8.967   9.981  0.1473 -0.2500 -0.0073
 1275ERGO    R115910  14.814   8.928   9.719  0.2246 -0.2154 -0.0410
 1275ERGO    R215911  14.734   9.138   9.558  0.0133 -0.2129  0.0712
 1275ERGO    R315912  14.909   9.027   9.382  0.1602  0.0799  0.0236
 1275ERGO    R415913  14.719   9.176   9.214 -0.1128 -0.1930  0.0769
 1275ERGO    R515914  14.773   8.966   9.194  0.2158 -0.1130  0.0419
 1275ERGO    C115915  14.875   9.094   8.850 -0.0485  0.0937  0.0355
 1275ERGO    C215916  14.818   9.076   8.596 -0.0281  0.1984  0.0438
 1276ERGO   ROH15917   2.164   3.445   6.465  0.0882 -0.1254 -0.0796
 1276ERGO    R115918   2.315   3.606   6.643  0.0633 -0.0926 -0.0880
 1276ERGO    R215919   2.199   3.748   6.850  0.0315 -0.0372 -0.1430
 1276ERGO    R315920   2.381   3.613   7.000 -0.0051 -0.0131 -0.0767
 1276ERGO    R415921   2.330   3.861   7.149 -0.1560 -0.0604 -0.0507
 1276ERGO    R515922   2.525   3.784   7.087 -0.1009  0.0117  0.0337
 1276ERGO    C115923   2.577   3.800   7.465 -0.2996 -0.0512  0.0653
 1276ERGO    C215924   2.702   3.785   7.774  0.2090 -0.2780  0.0108
 1277ERGO   ROH15925   8.632  12.197  10.330 -0.1039  0.3655  0.0866
 1277ERGO    R115926   8.702  12.307  10.079 -0.0182  0.1191 -0.0008
 1277ERGO    R215927   8.802  12.153   9.872 -0.0010 -0.0976  0.1597
 1277ERGO    R315928   8.597  12.264   9.733  0.0543 -0.1785  0.0126
 1277ERGO    R415929   8.800  12.203   9.530  0.1298 -0.2802  0.1309
 1277ERGO    R515930   8.704  12.396   9.564  0.1129 -0.2684 -0.0154
 1277ERGO    C115931   8.606  12.336   9.200  0.2576 -0.4624 -0.0238
 1277ERGO    C215932   8.534  12.313   8.812  0.2124 -0.2093 -0.0500
 1278ERGO   ROH15933  15.505   5.972   6.499 -0.2427  0.3001 -0.0958
 1278ERGO    R115934  15.308   5.994   6.701 -0.1114  0.2003  0.0468
 1278ERGO    R215935  15.268   5.799   6.892  0.0382  0.1182  0.0026
 1278ERGO    R315936  15.301   6.007   7.065  0.1348  0.0579  0.0562
 1278ERGO    R415937  15.108   5.830   7.197  0.0579  0.1260  0.0119
 1278ERGO    R515938  15.083   6.043   7.157  0.1587  0.1421  0.0678
 1278ERGO    C115939  15.047   6.043   7.537  0.1602  0.0740  0.0676
 1278ERGO    C215940  14.954   6.137   7.885 -0.4075 -0.0145 -0.3967
 1279ERGO   ROH15941   6.959   8.874  10.102  0.3804 -0.1272  0.1762
 1279ERGO    R115942   6.979   8.818   9.826  0.2772 -0.1173  0.1680
 1279ERGO    R215943   6.931   9.008   9.632 -0.0487 -0.1792  0.1905
 1279ERGO    R315944   7.178   8.936   9.545 -0.0187  0.0902  0.0389
 1279ERGO    R415945   7.032   9.016   9.301 -0.3497 -0.3161  0.0898
 1279ERGO    R515946   7.137   8.827   9.335 -0.0551 -0.1490  0.1649
 1279ERGO    C115947   7.323   8.954   9.027 -0.4967 -0.1431 -0.1111
 1279ERGO    C215948   7.311   9.012   8.676 -0.2325  0.1447 -0.2555
 1280ERGO   ROH15949   8.065  11.584  10.212 -0.2021 -0.0032 -0.0027
 1280ERGO    R115950   8.084  11.488   9.946 -0.1474 -0.1229  0.0442
 1280ERGO    R215951   7.863  11.442   9.788 -0.1065  0.0127 -0.0521
 1280ERGO    R315952   7.993  11.607   9.614  0.1306 -0.1676 -0.0514
 1280ERGO    R415953   7.849  11.416   9.444 -0.2856  0.1350 -0.0558
 1280ERGO    R515954   8.062  11.462   9.437 -0.1969 -0.2488 -0.1206
 1280ERGO    C115955   7.962  11.555   9.080 -0.1674  0.0370 -0.0573
 1280ERGO    C215956   7.846  11.410   8.821  0.0218  0.2948  0.0786
 1281ERGO   ROH15957  17.155  13.644   7.047 -0.1607  0.0477  0.1964
 1281ERGO    R115958  17.171  13.528   7.305 -0.1004 -0.0098  0.1668
 1281ERGO    R215959  17.214  13.258   7.344 -0.2044 -0.0369  0.0942
 1281ERGO    R315960  17.420  13.346   7.498 -0.0970 -0.1597  0.0234
 1281ERGO    R415961  17.337  13.094   7.622 -0.2391 -0.0852  0.0815
 1281ERGO    R515962  17.357  13.287   7.721 -0.0750 -0.0844  0.0499
 1281ERGO    C115963  17.602  13.081   7.929 -0.1585 -0.2285  0.0078
 1281ERGO    C215964  17.629  12.890   8.294 -0.0106 -0.2037 -0.2291
 1282ERGO   ROH15965   4.150   5.763   9.787 -0.0983  0.3591 -0.0069
 1282ERGO    R115966   4.183   5.601   9.557 -0.0291  0.2244  0.0978
 1282ERGO    R215967   4.004   5.603   9.347  0.0914  0.1776  0.0003
 1282ERGO    R315968   4.227   5.654   9.200  0.1900  0.0136  0.0891
 1282ERGO    R415969   4.038   5.533   9.010  0.0601  0.3872 -0.0477
 1282ERGO    R515970   4.242   5.468   9.050 -0.0196  0.0976 -0.0501
 1282ERGO    C115971   4.267   5.540   8.676  0.1342  0.3554  0.0076
 1282ERGO    C215972   4.317   5.612   8.351 -0.0500 -0.1071  0.1225
 1283ERGO   ROH15973   5.012  16.282  10.562 -0.2212  0.0924  0.0116
 1283ERGO    R115974   4.853  16.290  10.327 -0.1684 -0.0601 -0.0296
 1283ERGO    R215975   4.911  16.456  10.114 -0.2434 -0.0428 -0.0319
 1283ERGO    R315976   4.902  16.224   9.973 -0.0293 -0.0671 -0.0108
 1283ERGO    R415977   4.891  16.435   9.770 -0.1423 -0.0888 -0.0360
 1283ERGO    R515978   4.751  16.270   9.793 -0.0236 -0.1984 -0.0538
 1283ERGO    C115979   4.871  16.206   9.437  0.1176 -0.1384 -0.0187
 1283ERGO    C215980   4.892  16.281   9.145  0.0319 -0.1556  0.0045
 1284ERGO   ROH15981  15.824   8.081   6.459  0.3277 -0.0087  0.0084
 1284ERGO    R115982  15.668   8.103   6.694  0.1482  0.1173 -0.1199
 1284ERGO    R215983  15.738   7.981   6.932 -0.2157 -0.0532 -0.0930
 1284ERGO    R315984  15.714   8.233   7.031  0.0247 -0.0497 -0.0371
 1284ERGO    R415985  15.760   8.065   7.267 -0.2704 -0.1673 -0.0600
 1284ERGO    R515986  15.596   8.205   7.237 -0.1010  0.0277 -0.0981
 1284ERGO    C115987  15.749   8.351   7.554 -0.0767 -0.2304  0.0118
 1284ERGO    C215988  15.750   8.443   7.910  0.4351 -0.1595  0.1088
 1285ERGO   ROH15989   7.217  16.190   6.897  0.1004 -0.2952 -0.0367
 1285ERGO    R115990   7.297  16.344   7.121  0.3069 -0.0542 -0.2679
 1285ERGO    R215991   7.225  16.279   7.381  0.0663  0.5302 -0.1705
 1285ERGO    R315992   7.493  16.289   7.423  0.0787  0.0781 -0.0927
 1285ERGO    R415993   7.377  16.289   7.691 -0.0157  0.4609 -0.1282
 1285ERGO    R515994   7.518  16.433   7.612  0.2727  0.1600 -0.1795
 1285ERGO    C115995   7.717  16.304   7.911 -0.0518 -0.0037 -0.0305
 1285ERGO    C215996   7.946  16.385   8.231 -0.0567 -0.2961 -0.1509
 1286ERGO   ROH15997   4.943  17.348   6.953 -0.0141 -0.1728  0.3002
 1286ERGO    R115998   5.076  17.336   7.202  0.0811 -0.1281  0.2554
 1286ERGO    R215999   5.010  17.500   7.415  0.1321 -0.1111  0.2757
 1286ERGO    R316000   4.986  17.264   7.547  0.2110 -0.1071  0.2910
 1286ERGO    R416001   5.091  17.450   7.747  0.0301 -0.0471  0.3077
 1286ERGO    R516002   5.175  17.257   7.693  0.1500  0.0022  0.3626
 1286ERGO    C116003   5.115  17.200   8.065  0.0448 -0.0059  0.3406
 1286ERGO    C216004   5.176  17.029   8.378  0.1252 -0.3252  0.0412
 1287ERGO   ROH16005  15.194  10.173  10.108  0.0931 -0.0460  0.0683
 1287ERGO    R116006  15.218  10.116   9.832  0.2490 -0.1420  0.0988
 1287ERGO    R216007  15.035  10.207   9.645  0.0926 -0.5862  0.0142
 1287ERGO    R316008  15.257  10.309   9.525 -0.0744 -0.2103  0.0136
 1287ERGO    R416009  15.087  10.223   9.303  0.0581 -0.4416  0.0160
 1287ERGO    R516010  15.295  10.167   9.337  0.1477 -0.1143 -0.0098
 1287ERGO    C116011  15.326  10.328   8.993 -0.1189 -0.0045  0.0164
 1287ERGO    C216012  15.383  10.329   8.644  0.0325  0.1312  0.0187
 1288ERGO   ROH16013   0.605  13.044  10.340 -0.3435 -0.2615  0.0553
 1288ERGO    R116014   0.731  13.033  10.087 -0.1815 -0.0556  0.1249
 1288ERGO    R216015   0.652  12.856   9.890  0.0615 -0.0171 -0.0027
 1288ERGO    R316016   0.632  13.082   9.740 -0.0029  0.0367  0.0844
 1288ERGO    R416017   0.695  12.870   9.547  0.0796  0.1209  0.0038
 1288ERGO    R516018   0.803  13.058   9.573  0.0202  0.1511  0.0846
 1288ERGO    C116019   0.701  13.090   9.207  0.0297  0.2518  0.0893
 1288ERGO    C216020   0.800  12.998   8.804 -0.1776  0.0419 -0.1335
 1289ERGO   ROH16021   9.612  13.843  10.426 -0.1953 -0.0802 -0.1610
 1289ERGO    R116022   9.770  14.005  10.255 -0.0958 -0.1496 -0.1357
 1289ERGO    R216023   9.850  13.922  10.004 -0.2923 -0.0931 -0.2176
 1289ERGO    R316024   9.734  14.155   9.925 -0.0786  0.0783 -0.0364
 1289ERGO    R416025   9.867  14.052   9.684 -0.3130  0.0472 -0.1618
 1289ERGO    R516026   9.892  14.250   9.772 -0.0478 -0.0194 -0.0696
 1289ERGO    C116027   9.768  14.347   9.424 -0.1247  0.2899  0.0408
 1289ERGO    C216028   9.764  14.336   9.093  0.1397  0.1553  0.0809
 1290ERGO   ROH16029   6.260  16.434   6.746 -0.0371  0.3789  0.1224
 1290ERGO    R116030   6.337  16.431   7.019 -0.2738  0.3518  0.1897
 1290ERGO    R216031   6.155  16.396   7.224 -0.4042 -0.0949  0.0076
 1290ERGO    R316032   6.321  16.194   7.295 -0.1030  0.1521  0.0317
 1290ERGO    R416033   6.221  16.300   7.549 -0.3388 -0.0206  0.0173
 1290ERGO    R516034   6.430  16.273   7.493 -0.2744  0.3079  0.0683
 1290ERGO    C116035   6.417  16.054   7.805 -0.0179  0.2544  0.0457
 1290ERGO    C216036   6.245  15.921   8.095  0.0402 -0.2213  0.2448
 1291ERGO   ROH16037  13.462   2.788   9.923 -0.2449 -0.1284 -0.0066
 1291ERGO    R116038  13.477   2.868   9.652 -0.1979 -0.0711  0.0125
 1291ERGO    R216039  13.512   2.688   9.445  0.0117 -0.0118 -0.0054
 1291ERGO    R316040  13.287   2.806   9.347 -0.0377 -0.1562 -0.0722
 1291ERGO    R416041  13.445   2.738   9.110  0.2066  0.1821 -0.0173
 1291ERGO    R516042  13.364   2.934   9.160 -0.0242  0.0678  0.0814
 1291ERGO    C116043  13.195   2.879   8.823  0.2737  0.1596 -0.0867
 1291ERGO    C216044  12.967   2.863   8.630  0.1441 -0.0125 -0.0599
 1292ERGO   ROH16045  10.450   4.676   9.711 -0.0215  0.1171 -0.1547
 1292ERGO    R116046  10.323   4.643   9.460 -0.0764  0.0757 -0.1228
 1292ERGO    R216047  10.390   4.793   9.238 -0.1522  0.0696 -0.1556
 1292ERGO    R316048  10.423   4.549   9.123 -0.1390  0.0639 -0.1372
 1292ERGO    R416049  10.326   4.720   8.907 -0.1480  0.0361 -0.1482
 1292ERGO    R516050  10.240   4.530   8.970 -0.1351  0.0391 -0.1345
 1292ERGO    C116051  10.319   4.449   8.606 -0.1331  0.0112 -0.1266
 1292ERGO    C216052  10.225   4.522   8.269  0.0827  0.3289  0.1602
 1293ERGO   ROH16053   3.971  10.241   6.900 -0.0470 -0.0991 -0.0287
 1293ERGO    R116054   3.877  10.140   7.147 -0.0562 -0.1689 -0.0606
 1293ERGO    R216055   4.024   9.965   7.302  0.0790  0.0406  0.0522
 1293ERGO    R316056   3.982  10.151   7.495 -0.2566  0.0292 -0.0044
 1293ERGO    R416057   4.006   9.897   7.640  0.0893  0.0952  0.0636
 1293ERGO    R516058   3.842  10.040   7.655 -0.1352 -0.1460 -0.0167
 1293ERGO    C116059   3.956  10.032   8.019 -0.2198  0.1161  0.0170
 1293ERGO    C216060   4.156   9.836   8.252 -0.1041  0.2075 -0.3527
 1294ERGO   ROH16061   9.254   2.919  10.213 -0.3709 -0.1226  0.0775
 1294ERGO    R116062   9.103   2.927   9.974 -0.1266  0.0796 -0.0751
 1294ERGO    R216063   9.216   2.980   9.728  0.2084 -0.1523  0.0239
 1294ERGO    R316064   9.098   2.745   9.658 -0.1114  0.0226 -0.0433
 1294ERGO    R416065   9.194   2.858   9.405  0.4528 -0.2396  0.0378
 1294ERGO    R516066   8.991   2.792   9.449  0.2636  0.1345 -0.2195
 1294ERGO    C116067   9.070   2.566   9.152  0.2949 -0.1261 -0.0173
 1294ERGO    C216068   9.167   2.445   8.806 -0.0475  0.0005 -0.4621
 1295ERGO   ROH16069   0.328  14.006   6.654  0.3592  0.0409 -0.0786
 1295ERGO    R116070   0.290  13.904   6.915  0.2452 -0.0397 -0.1259
 1295ERGO    R216071   0.491  13.776   7.055  0.2287  0.0496 -0.0219
 1295ERGO    R316072   0.433  13.962   7.245 -0.0089 -0.0272 -0.0152
 1295ERGO    R416073   0.474  13.713   7.394  0.3201  0.0145 -0.0226
 1295ERGO    R516074   0.299  13.844   7.404  0.1457 -0.2090 -0.0147
 1295ERGO    C116075   0.409  13.850   7.770  0.1502 -0.0779 -0.0169
 1295ERGO    C216076   0.415  13.926   8.105 -0.0086  0.0842  0.1234
 1296ERGO   ROH16077  13.854  11.075   9.949  0.0837  0.1090  0.0893
 1296ERGO    R116078  13.941  11.027   9.684  0.0440  0.0667  0.0852
 1296ERGO    R216079  13.776  11.062   9.465  0.0202  0.0511  0.1074
 1296ERGO    R316080  13.979  11.221   9.378  0.0221  0.0209  0.0516
 1296ERGO    R416081  13.819  11.168   9.139 -0.1621  0.1902  0.1261
 1296ERGO    R516082  14.033  11.135   9.161 -0.1530  0.1007 -0.0293
 1296ERGO    C116083  14.034  11.378   8.867 -0.2665  0.2427  0.0847
 1296ERGO    C216084  14.157  11.637   8.607 -0.0315 -0.1510  0.2022
 1297ERGO   ROH16085   1.436  13.743  10.515 -0.2507 -0.1578 -0.1235
 1297ERGO    R116086   1.397  13.656  10.249 -0.2261 -0.1332 -0.1353
 1297ERGO    R216087   1.230  13.788  10.073 -0.1993 -0.1081 -0.1432
 1297ERGO    R316088   1.452  13.792   9.916 -0.1806 -0.1079 -0.1170
 1297ERGO    R416089   1.228  13.778   9.727 -0.1509 -0.1736 -0.1420
 1297ERGO    R516090   1.399  13.644   9.735 -0.1353 -0.1479 -0.0957
 1297ERGO    C116091   1.435  13.776   9.379 -0.1051 -0.2117 -0.1168
 1297ERGO    C216092   1.540  13.757   8.980  0.1080  0.0473 -0.2605
 1298ERGO   ROH16093   8.346   5.050   9.675 -0.1709 -0.0007 -0.0053
 1298ERGO    R116094   8.455   5.027   9.415 -0.1329  0.0149  0.0094
 1298ERGO    R216095   8.307   4.936   9.200 -0.0852 -0.0250 -0.0043
 1298ERGO    R316096   8.387   5.169   9.087 -0.1230 -0.0109 -0.0047
 1298ERGO    R416097   8.348   4.987   8.861 -0.0645 -0.0313 -0.0031
 1298ERGO    R516098   8.527   5.103   8.905 -0.0905  0.0092  0.0105
 1298ERGO    C116099   8.446   5.237   8.557 -0.0879 -0.0218 -0.0027
 1298ERGO    C216100   8.442   5.447   8.351 -0.0339  0.0192  0.0519
 1299ERGO   ROH16101  10.495   7.081   6.391  0.0843  0.1176 -0.0210
 1299ERGO    R116102  10.391   6.954   6.621 -0.0106 -0.1577 -0.2112
 1299ERGO    R216103  10.438   6.688   6.679  0.3914 -0.0984 -0.2533
 1299ERGO    R316104  10.526   6.788   6.916 -0.1145 -0.0233 -0.0860
 1299ERGO    R416105  10.552   6.497   6.944  0.4538  0.0028 -0.2058
 1299ERGO    R516106  10.447   6.632   7.079 -0.0055 -0.2738 -0.2649
 1299ERGO    C116107  10.701   6.480   7.320  0.0149  0.1323 -0.0211
 1299ERGO    C216108  10.829   6.240   7.502 -0.1938  0.0430  0.1600
 1300ERGO   ROH16109  11.982   8.684   6.208  0.0630  0.0151 -0.0389
 1300ERGO    R116110  12.154   8.772   6.415  0.0497 -0.0165 -0.0139
 1300ERGO    R216111  12.076   8.960   6.602  0.0370 -0.0437  0.0108
 1300ERGO    R316112  12.153   8.767   6.779  0.0242 -0.0727 -0.0153
 1300ERGO    R416113  12.121   9.009   6.942  0.1305 -0.0773  0.0038
 1300ERGO    R516114  12.297   8.881   6.932  0.0906 -0.1241 -0.0424
 1300ERGO    C116115  12.218   8.857   7.305  0.1730 -0.1240 -0.0248
 1300ERGO    C216116  12.183   8.759   7.716  0.1147 -0.0241 -0.2079
 1301ERGO   ROH16117   2.977  15.597   6.732  0.0938  0.0762  0.0661
 1301ERGO    R116118   2.995  15.796   6.932 -0.1018  0.1855 -0.0221
 1301ERGO    R216119   2.772  15.917   7.043 -0.2339 -0.1212  0.0555
 1301ERGO    R316120   2.884  15.835   7.276  0.0330  0.1413  0.0275
 1301ERGO    R416121   2.668  16.017   7.357 -0.2159 -0.1658  0.0763
 1301ERGO    R516122   2.878  16.029   7.417 -0.1943  0.1896 -0.0445
 1301ERGO    C116123   2.712  15.998   7.759  0.0451  0.0546  0.0622
 1301ERGO    C216124   2.643  15.796   8.095 -0.0713 -0.0052  0.2147
 1302ERGO   ROH16125  12.219  11.847   9.953  0.3286  0.0688 -0.0304
 1302ERGO    R116126  12.077  11.935   9.724  0.2192  0.0971  0.0461
 1302ERGO    R216127  12.177  12.125   9.550  0.1881  0.0385 -0.0444
 1302ERGO    R316128  12.129  11.932   9.364 -0.0032  0.0300  0.0137
 1302ERGO    R416129  12.208  12.165   9.208 -0.0030 -0.0360 -0.0704
 1302ERGO    R516130  12.027  12.048   9.182 -0.0636  0.0369  0.0567
 1302ERGO    C116131  12.180  12.008   8.835 -0.2937 -0.0873 -0.0310
 1302ERGO    C216132  12.170  11.975   8.499  0.1067 -0.0984  0.1339
 1303ERGO   ROH16133   1.892  16.871  10.275 -0.0442 -0.0545  0.0195
 1303ERGO    R116134   1.764  17.003  10.060 -0.1334 -0.1115  0.0382
 1303ERGO    R216135   1.887  17.045   9.817 -0.1115  0.1335  0.0959
 1303ERGO    R316136   1.666  16.922   9.719  0.0605 -0.0777 -0.0273
 1303ERGO    R416137   1.760  17.095   9.500 -0.0072  0.0543  0.0399
 1303ERGO    R516138   1.559  17.091   9.586 -0.0471 -0.1627 -0.0537
 1303ERGO    C116139   1.477  17.008   9.223  0.2149 -0.1902 -0.1081
 1303ERGO    C216140   1.537  17.063   8.802 -0.1004 -0.0176 -0.1506
 1304ERGO   ROH16141   6.931   7.833   9.997 -0.2454  0.0991 -0.0393
 1304ERGO    R116142   6.933   7.799   9.716 -0.1834  0.0482 -0.0311
 1304ERGO    R216143   6.729   7.889   9.554 -0.0644  0.1626 -0.1028
 1304ERGO    R316144   6.932   8.016   9.424  0.0612 -0.0044 -0.0771
 1304ERGO    R416145   6.728   7.969   9.218 -0.0144  0.2473 -0.0848
 1304ERGO    R516146   6.938   7.911   9.209 -0.0613  0.0345 -0.1088
 1304ERGO    C116147   6.917   8.134   8.900  0.1328  0.1396 -0.0501
 1304ERGO    C216148   7.041   8.172   8.584 -0.1673  0.4916  0.1234
 1305ERGO   ROH16149   2.933   6.240   6.081  0.1821 -0.0923 -0.0370
 1305ERGO    R116150   2.998   6.093   6.313  0.0883 -0.1013 -0.0168
 1305ERGO    R216151   3.203   6.166   6.483  0.0241 -0.1146  0.0611
 1305ERGO    R316152   3.008   6.154   6.672 -0.0452 -0.1149 -0.0091
 1305ERGO    R416153   3.259   6.145   6.824 -0.0905 -0.1951  0.0761
 1305ERGO    R516154   3.094   6.003   6.837 -0.1269 -0.1686 -0.0103
 1305ERGO    C116155   3.108   6.123   7.199 -0.2223 -0.2424  0.0189
 1305ERGO    C216156   3.117   6.202   7.563 -0.0328 -0.0457 -0.2811
 1306ERGO   ROH16157  12.091   7.702   6.035  0.1444 -0.1624  0.1859
 1306ERGO    R116158  11.938   7.577   6.237  0.2182 -0.1349  0.2601
 1306ERGO    R216159  11.989   7.614   6.506  0.2202  0.0243  0.2412
 1306ERGO    R316160  11.727   7.684   6.513  0.1874 -0.0962  0.2211
 1306ERGO    R416161  11.795   7.623   6.792  0.1546 -0.2025  0.2048
 1306ERGO    R516162  11.630   7.538   6.676  0.2174 -0.2191  0.1287
 1306ERGO    C116163  11.435   7.694   6.965  0.0858 -0.4476  0.1647
 1306ERGO    C216164  11.416   7.739   7.332  0.3179 -0.1838 -0.2184
 1307ERGO   ROH16165   0.232   2.074   6.419 -0.0268  0.4617  0.1079
 1307ERGO    R116166   0.423   2.109   6.625 -0.1019  0.4496  0.1811
 1307ERGO    R216167   0.365   2.237   6.862 -0.2882  0.1283  0.3162
 1307ERGO    R316168   0.460   2.008   6.972 -0.0559  0.1077  0.0802
 1307ERGO    R416169   0.527   2.217   7.167  0.0010  0.0182  0.1588
 1307ERGO    R516170   0.665   2.074   7.078  0.0045  0.1534 -0.0624
 1307ERGO    C116171   0.711   1.990   7.448  0.3874 -0.0653 -0.1544
 1307ERGO    C216172   0.927   1.983   7.747 -0.0253 -0.0440 -0.0672
 1308ERGO   ROH16173   5.944  14.713   6.682  0.0801 -0.0769 -0.0574
 1308ERGO    R116174   6.121  14.628   6.886  0.0535  0.0848  0.0349
 1308ERGO    R216175   6.157  14.771   7.119 -0.3869 -0.0040  0.1712
 1308ERGO    R316176   6.095  14.534   7.237 -0.0916 -0.1974 -0.0499
 1308ERGO    R416177   6.193  14.703   7.456 -0.6460 -0.1506  0.1711
 1308ERGO    R516178   6.265  14.504   7.403 -0.2213  0.0100  0.1224
 1308ERGO    C116179   6.156  14.440   7.762 -0.5197 -0.4174 -0.0365
 1308ERGO    C216180   6.137  14.501   8.090  0.0116  0.0020 -0.1231
 1309ERGO   ROH16181  11.936  16.144   7.142  0.0977 -0.0351 -0.1716
 1309ERGO    R116182  11.883  16.120   7.419  0.0082 -0.1683 -0.1992
 1309ERGO    R216183  11.914  15.883   7.556  0.1456 -0.1897 -0.2675
 1309ERGO    R316184  12.073  16.034   7.717 -0.0372 -0.1140 -0.1541
 1309ERGO    R416185  12.000  15.802   7.881  0.0728 -0.2212 -0.2554
 1309ERGO    R516186  11.975  16.012   7.935 -0.1124 -0.2550 -0.2008
 1309ERGO    C116187  12.199  15.896   8.222 -0.1413 -0.1684 -0.1419
 1309ERGO    C216188  12.258  15.714   8.526 -0.0097  0.0620 -0.0766
 1310ERGO   ROH16189  12.686  13.057  10.170 -0.0075 -0.0394  0.1259
 1310ERGO    R116190  12.529  13.035   9.935 -0.0355  0.0253  0.1375
 1310ERGO    R216191  12.526  13.230   9.740  0.0527  0.0166  0.1211
 1310ERGO    R316192  12.590  13.022   9.577 -0.0628 -0.0311  0.1361
 1310ERGO    R416193  12.506  13.235   9.395  0.1302  0.0195  0.1168
 1310ERGO    R516194  12.429  13.031   9.401 -0.0154  0.0787  0.1028
 1310ERGO    C116195  12.555  13.043   9.041  0.0667 -0.0237  0.1284
 1310ERGO    C216196  12.374  12.926   8.684 -0.1206  0.0094  0.1333
 1311ERGO   ROH16197   4.784   2.803   6.532 -0.1920  0.1471 -0.0213
 1311ERGO    R116198   4.681   2.778   6.794 -0.1441  0.0828 -0.0085
 1311ERGO    R216199   4.724   2.554   6.950 -0.0999  0.0523 -0.0646
 1311ERGO    R316200   4.817   2.737   7.129 -0.0823  0.0206 -0.0411
 1311ERGO    R416201   4.719   2.515   7.294  0.1245 -0.1002 -0.0762
 1311ERGO    R516202   4.663   2.725   7.312  0.0317 -0.1343  0.0478
 1311ERGO    C116203   4.803   2.664   7.661  0.2716 -0.2189 -0.0610
 1311ERGO    C216204   4.811   2.454   8.031 -0.1731  0.1847  0.3817
 1312ERGO   ROH16205   7.315   2.463  10.230 -0.2988 -0.0637  0.0164
 1312ERGO    R116206   7.342   2.272  10.023 -0.1312  0.0345 -0.0534
 1312ERGO    R216207   7.131   2.194   9.863 -0.0628 -0.0921 -0.0801
 1312ERGO    R316208   7.299   2.266   9.662 -0.1246  0.1264 -0.0567
 1312ERGO    R416209   7.123   2.064   9.543  0.1951 -0.1698 -0.0575
 1312ERGO    R516210   7.341   2.062   9.543  0.2066  0.1587 -0.0100
 1312ERGO    C116211   7.276   2.056   9.167  0.2872 -0.0100 -0.0222
 1312ERGO    C216212   7.226   2.002   8.787 -0.2070  0.0524  0.2519
 1313ERGO   ROH16213   7.211   0.124   6.596  0.1026 -0.1025 -0.0603
 1313ERGO    R116214   7.144   0.105   6.870  0.0453  0.1949 -0.0507
 1313ERGO    R216215   7.239  -0.097   7.033 -0.2376  0.1903  0.1129
 1313ERGO    R316216   7.322   0.110   7.188  0.0193  0.2021 -0.0360
 1313ERGO    R416217   7.438  -0.127   7.314 -0.3873  0.1245  0.2141
 1313ERGO    R516218   7.316   0.025   7.411 -0.1985  0.3994  0.0386
 1313ERGO    C116219   7.633   0.051   7.622 -0.2333  0.0972  0.1334
 1313ERGO    C216220   7.877   0.245   7.730 -0.3718  0.0533  0.1250
 1314ERGO   ROH16221   1.667  12.168   7.004 -0.1426  0.0994 -0.1022
 1314ERGO    R116222   1.706  12.192   7.283  0.0320  0.1335 -0.1284
 1314ERGO    R216223   1.818  12.417   7.399 -0.1029  0.2430 -0.2062
 1314ERGO    R316224   1.591  12.413   7.548  0.0025  0.0194 -0.0456
 1314ERGO    R416225   1.801  12.500   7.734  0.0453  0.2540 -0.2007
 1314ERGO    R516226   1.662  12.334   7.763  0.2363  0.1110 -0.0869
 1314ERGO    C116227   1.577  12.546   8.069  0.2306  0.0504 -0.0465
 1314ERGO    C216228   1.705  12.622   8.409  0.0818  0.0517 -0.2870
 1315ERGO   ROH16229   9.273   0.820  10.799  0.2396  0.1295 -0.0486
 1315ERGO    R116230   9.208   0.745  10.533  0.2183  0.1423 -0.0478
 1315ERGO    R216231   9.127   0.928  10.343  0.3244  0.1720 -0.0700
 1315ERGO    R316232   9.332   0.821  10.200  0.2811  0.0546 -0.0440
 1315ERGO    R416233   9.152   0.934   9.998  0.1922 -0.1732 -0.0886
 1315ERGO    R516234   9.227   0.730  10.005  0.2193 -0.1556  0.0871
 1315ERGO    C116235   9.359   0.837   9.663  0.0744 -0.4843 -0.0751
 1315ERGO    C216236   9.406   0.717   9.269 -0.0012 -0.1741  0.0185
 1316ERGO   ROH16237   1.364  16.069   6.857  0.0967  0.0435  0.1204
 1316ERGO    R116238   1.353  16.016   7.135  0.2076 -0.0217  0.1136
 1316ERGO    R216239   1.116  15.968   7.269  0.2275  0.2164  0.2514
 1316ERGO    R316240   1.243  15.741   7.347  0.0177  0.0441  0.0988
 1316ERGO    R416241   1.040  15.787   7.553  0.2268  0.2231  0.2542
 1316ERGO    R516242   1.254  15.757   7.585  0.2126 -0.0369  0.0923
 1316ERGO    C116243   1.116  15.468   7.792  0.0295  0.0651  0.1126
 1316ERGO    C216244   0.969  15.339   8.063 -0.0452  0.3053 -0.3597
 1317ERGO   ROH16245  14.570  12.784   6.817  0.0314  0.1245 -0.1087
 1317ERGO    R116246  14.701  12.718   7.059  0.0450  0.3321 -0.0572
 1317ERGO    R216247  14.656  12.856   7.294 -0.2962  0.2441 -0.0623
 1317ERGO    R316248  14.602  12.608   7.391  0.0876  0.1356 -0.1093
 1317ERGO    R416249  14.655  12.770   7.629 -0.1996  0.1823 -0.0780
 1317ERGO    R516250  14.751  12.582   7.576  0.1087  0.3418 -0.0975
 1317ERGO    C116251  14.604  12.487   7.915  0.2170  0.0444 -0.1311
 1317ERGO    C216252  14.478  12.405   8.266 -0.1498 -0.2767  0.2856
 1318ERGO   ROH16253  10.789   9.679  10.362  0.2456 -0.0524 -0.0111
 1318ERGO    R116254  10.710   9.851  10.151  0.1554  0.0549  0.1074
 1318ERGO    R216255  10.785  10.117  10.140  0.1787  0.0577  0.1921
 1318ERGO    R316256  10.877  10.047   9.894  0.0477  0.1553  0.1157
 1318ERGO    R416257  10.820  10.334   9.874  0.0999  0.1684  0.2721
 1318ERGO    R516258  10.745  10.178   9.743  0.0079  0.2497  0.2366
 1318ERGO    C116259  10.927  10.395   9.488 -0.0689  0.3245  0.2470
 1318ERGO    C216260  10.851  10.545   9.323 -0.1424  0.1458  0.1022
 1319ERGO   ROH16261   7.163   5.177   6.352  0.1180 -0.2483  0.0710
 1319ERGO    R116262   7.238   5.206   6.623  0.0134 -0.1383  0.0889
 1319ERGO    R216263   7.057   5.274   6.821 -0.0635 -0.0619 -0.0080
 1319ERGO    R316264   7.150   5.048   6.939 -0.1044 -0.0132  0.1200
 1319ERGO    R416265   7.085   5.226   7.162 -0.2346  0.0603  0.0249
 1319ERGO    R516266   7.276   5.126   7.128 -0.2073  0.0637  0.1577
 1319ERGO    C116267   7.189   4.986   7.472 -0.3725  0.1773  0.1642
 1319ERGO    C216268   7.073   4.852   7.824  0.3104 -0.2001  0.1130
 1320ERGO   ROH16269  16.191   0.812   8.073  0.0936  0.0009 -0.0954
 1320ERGO    R116270  15.920   0.732   8.051  0.0133  0.1956  0.1564
 1320ERGO    R216271  15.846   0.476   7.978 -0.2305  0.3418 -0.0944
 1320ERGO    R316272  15.703   0.487   8.209  0.0736  0.1112  0.1154
 1320ERGO    R416273  15.596   0.255   8.066 -0.3398  0.4365 -0.1589
 1320ERGO    R516274  15.482   0.423   8.145 -0.0819  0.4383  0.2713
 1320ERGO    C116275  15.316   0.135   8.333 -0.1179  0.2751  0.0004
 1320ERGO    C216276  15.171  -0.187   8.231 -0.0762  0.0282 -0.0074
 1321ERGO   ROH16277   5.450   7.684   6.350  0.2144 -0.0568  0.0165
 1321ERGO    R116278   5.371   7.791   6.600  0.3051 -0.0726  0.0540
 1321ERGO    R216279   5.107   7.793   6.684  0.2746  0.2701 -0.0152
 1321ERGO    R316280   5.210   7.667   6.901  0.0387 -0.0064 -0.0601
 1321ERGO    R416281   4.949   7.764   6.990  0.1174  0.2160 -0.1014
 1321ERGO    R516282   5.140   7.800   7.087  0.1125 -0.0704  0.0077
 1321ERGO    C116283   4.954   7.628   7.372 -0.1956 -0.0751 -0.1938
 1321ERGO    C216284   4.949   7.641   7.736 -0.3653  0.1836 -0.1650
 1322ERGO   ROH16285   2.067  15.228   6.863 -0.0258  0.0647  0.0512
 1322ERGO    R116286   2.159  15.198   7.129 -0.0074  0.1100  0.0501
 1322ERGO    R216287   2.104  15.382   7.328 -0.1002  0.0810  0.0530
 1322ERGO    R316288   2.009  15.163   7.459  0.0124  0.0305  0.0508
 1322ERGO    R416289   2.001  15.379   7.657 -0.0167  0.0010  0.0787
 1322ERGO    R516290   2.097  15.185   7.681  0.0596  0.0341  0.0309
 1322ERGO    C116291   1.852  15.173   7.973  0.1377 -0.0929  0.0916
 1322ERGO    C216292   1.500  15.272   8.057 -0.0937  0.1242 -0.0473
 1323ERGO   ROH16293  16.202  16.403   6.990  0.0212  0.1634 -0.1010
 1323ERGO    R116294  16.353  16.483   7.216 -0.0758 -0.0109  0.0286
 1323ERGO    R216295  16.307  16.722   7.348  0.0283  0.0010  0.0430
 1323ERGO    R316296  16.285  16.560   7.565 -0.2697 -0.0273 -0.0040
 1323ERGO    R416297  16.307  16.831   7.675  0.1300 -0.0824  0.0713
 1323ERGO    R516298  16.431  16.659   7.728 -0.1455 -0.2937  0.0535
 1323ERGO    C116299  16.287  16.743   8.071 -0.0905 -0.1573  0.0436
 1323ERGO    C216300  16.418  16.700   8.442 -0.1311 -0.1208 -0.1124
 1324ERGO   ROH16301   4.697   4.180   9.744 -0.1765  0.1236 -0.0057
 1324ERGO    R116302   4.811   4.095   9.499 -0.1224  0.1470  0.0111
 1324ERGO    R216303   4.687   3.912   9.333 -0.0094  0.0381  0.0447
 1324ERGO    R316304   4.721   4.108   9.147 -0.1289  0.0244  0.0079
 1324ERGO    R416305   4.641   3.872   8.993  0.0191 -0.0566  0.0520
 1324ERGO    R516306   4.817   3.995   8.959 -0.0565  0.0475  0.0307
 1324ERGO    C116307   4.646   4.031   8.620 -0.0766 -0.1246  0.0217
 1324ERGO    C216308   4.601   4.247   8.352 -0.0622 -0.2368  0.2347
 1325ERGO   ROH16309   9.225   9.453  10.163  0.0730  0.0967  0.0667
 1325ERGO    R116310   9.292   9.573   9.915  0.0436  0.1228  0.0707
 1325ERGO    R216311   9.551   9.646   9.850  0.0529  0.0455  0.0095
 1325ERGO    R316312   9.505   9.492   9.631 -0.0667  0.1035 -0.0061
 1325ERGO    R416313   9.636   9.734   9.527 -0.0333  0.0832 -0.0027
 1325ERGO    R516314   9.446   9.650   9.460 -0.0793  0.1527  0.0456
 1325ERGO    C116315   9.642   9.641   9.133 -0.1959  0.1597 -0.0242
 1325ERGO    C216316   9.804   9.678   8.870  0.0806  0.0542  0.2385
 1326ERGO   ROH16317   9.618   7.525   6.476 -0.1650  0.0388  0.0814
 1326ERGO    R116318   9.657   7.397   6.725 -0.0269  0.0713  0.0769
 1326ERGO    R216319   9.858   7.470   6.900 -0.0648  0.2380  0.0494
 1326ERGO    R316320   9.653   7.495   7.076 -0.0618  0.0679  0.0782
 1326ERGO    R416321   9.887   7.435   7.242  0.0368  0.3428  0.0523
 1326ERGO    R516322   9.697   7.328   7.242  0.1414  0.1460  0.1087
 1326ERGO    C116323   9.710   7.438   7.607  0.0988  0.2441  0.0811
 1326ERGO    C216324   9.698   7.204   7.879 -0.1026  0.2344  0.2051
 1327ERGO   ROH16325  15.369  12.785   6.972 -0.0186 -0.0391  0.0130
 1327ERGO    R116326  15.311  12.885   7.230 -0.0286 -0.0677  0.0210
 1327ERGO    R216327  15.103  12.789   7.383 -0.0465 -0.0673 -0.0100
 1327ERGO    R316328  15.299  12.752   7.569 -0.0669 -0.1088  0.0047
 1327ERGO    R416329  15.077  12.876   7.717 -0.0218  0.0319 -0.0330
 1327ERGO    R516330  15.284  12.946   7.709  0.0140 -0.0620 -0.0460
 1327ERGO    C116331  15.246  12.892   8.085 -0.0265  0.0507 -0.0326
 1327ERGO    C216332  15.226  13.023   8.461 -0.2500 -0.1484  0.0208
 1328ERGO   ROH16333   0.190   4.232   6.349 -0.0300 -0.0590  0.1321
 1328ERGO    R116334   0.342   4.177   6.582  0.0438  0.1018  0.1229
 1328ERGO    R216335   0.585   4.297   6.633 -0.0277  0.2730  0.0510
 1328ERGO    R316336   0.466   4.365   6.867 -0.0308  0.2588  0.0544
 1328ERGO    R416337   0.736   4.278   6.943 -0.0729  0.1160  0.0647
 1328ERGO    R516338   0.548   4.203   7.024 -0.1204  0.1739  0.0187
 1328ERGO    C116339   0.713   4.331   7.344 -0.1022  0.0112  0.0759
 1328ERGO    C216340   0.854   4.355   7.556 -0.2115  0.1120 -0.3306
 1329ERGO   ROH16341  15.350   1.108   6.613  0.1843 -0.1331 -0.0000
 1329ERGO    R116342  15.394   1.047   6.886  0.3611  0.0445  0.0133
 1329ERGO    R216343  15.516   1.223   7.060 -0.0795  0.4168 -0.0369
 1329ERGO    R316344  15.291   1.183   7.208  0.0176 -0.1341 -0.0148
 1329ERGO    R416345  15.481   1.308   7.393 -0.2680  0.3928 -0.0494
 1329ERGO    R516346  15.373   1.121   7.424  0.2016  0.1063 -0.0085
 1329ERGO    C116347  15.250   1.320   7.726 -0.2865 -0.1382 -0.0358
 1329ERGO    C216348  15.337   1.339   8.032 -0.2013  0.1977  0.1226
 1330ERGO   ROH16349   8.836   6.806   6.832 -0.0101  0.0556  0.0461
 1330ERGO    R116350   9.005   6.839   7.057  0.0725 -0.0051 -0.0061
 1330ERGO    R216351   8.912   6.826   7.317  0.1298  0.1253  0.0228
 1330ERGO    R316352   9.108   6.639   7.343  0.0071 -0.0052  0.0168
 1330ERGO    R416353   9.022   6.696   7.617  0.1074  0.1084  0.0236
 1330ERGO    R516354   9.225   6.704   7.541  0.0961 -0.0478 -0.0229
 1330ERGO    C116355   9.269   6.444   7.817 -0.0209 -0.0239  0.0184
 1330ERGO    C216356   9.529   6.207   7.888 -0.3429 -0.1503  0.0666
 1331ERGO   ROH16357   0.464   7.040   6.219  0.1074  0.0806 -0.1497
 1331ERGO    R116358   0.385   7.096   6.485  0.2413  0.1524 -0.1251
 1331ERGO    R216359   0.323   6.897   6.667 -0.1040  0.2112 -0.1801
 1331ERGO    R316360   0.509   7.023   6.819  0.1500 -0.1744 -0.1567
 1331ERGO    R416361   0.363   6.854   7.007 -0.3274  0.2037 -0.1524
 1331ERGO    R516362   0.398   7.068   7.026  0.1690  0.1456 -0.2048
 1331ERGO    C116363   0.562   6.947   7.348 -0.2191 -0.1627 -0.1143
 1331ERGO    C216364   0.477   6.834   7.666  0.2061  0.0522  0.0701
 1332ERGO   ROH16365   7.981  14.230   6.977 -0.0601  0.0928 -0.0916
 1332ERGO    R116366   7.908  14.089   7.211  0.0100  0.0262 -0.1091
 1332ERGO    R216367   7.854  14.216   7.450  0.0302 -0.0377 -0.0692
 1332ERGO    R316368   7.621  14.077   7.434  0.0537 -0.0774 -0.0578
 1332ERGO    R416369   7.665  14.117   7.722  0.1415 -0.2039 -0.0514
 1332ERGO    R516370   7.629  13.927   7.621  0.1472 -0.1641 -0.1301
 1332ERGO    C116371   7.336  13.929   7.865  0.2284 -0.3380 -0.0304
 1332ERGO    C216372   7.104  13.900   8.045 -0.0933 -0.1741  0.0227
 1333ERGO   ROH16373   9.946   3.305   9.993  0.1767  0.1395  0.0289
 1333ERGO    R116374  10.005   3.327   9.717  0.2017  0.0645  0.0281
 1333ERGO    R216375  10.093   3.113   9.567  0.0792 -0.0101  0.0632
 1333ERGO    R316376   9.882   3.179   9.408  0.1259  0.0936  0.0429
 1333ERGO    R416377  10.064   3.028   9.233  0.0435 -0.0606  0.0793
 1333ERGO    R516378   9.981   3.227   9.195  0.1698 -0.0116  0.0365
 1333ERGO    C116379   9.848   3.040   8.890  0.0666  0.0074  0.0696
 1333ERGO    C216380   9.798   2.746   8.656 -0.2587  0.2104 -0.2556
 1334ERGO   ROH16381   2.267   7.839   9.804  0.2443  0.2329  0.1001
 1334ERGO    R116382   2.176   7.849   9.536  0.1046  0.2792  0.1481
 1334ERGO    R216383   2.257   8.045   9.359  0.1054  0.2435  0.1079
 1334ERGO    R316384   2.327   7.833   9.205 -0.0792  0.2093  0.0662
 1334ERGO    R416385   2.320   8.060   9.020  0.0596  0.2388  0.0988
 1334ERGO    R516386   2.215   7.871   8.997 -0.0866  0.3201  0.0904
 1334ERGO    C116387   2.423   7.869   8.677 -0.1404  0.2040  0.0544
 1334ERGO    C216388   2.573   8.106   8.416 -0.0409  0.2965 -0.1639
 1335ERGO   ROH16389  13.601   7.858   6.208 -0.1680  0.2076  0.1651
 1335ERGO    R116390  13.664   7.645   6.384 -0.0151  0.1684  0.0642
 1335ERGO    R216391  13.866   7.663   6.572 -0.0405  0.2317  0.0811
 1335ERGO    R316392  13.667   7.593   6.744  0.0040 -0.0083  0.0398
 1335ERGO    R416393  13.911   7.576   6.904 -0.0054  0.3315  0.1036
 1335ERGO    R516394  13.762   7.419   6.878  0.2013  0.1286  0.0843
 1335ERGO    C116395  13.751   7.459   7.257  0.0570  0.1643  0.0780
 1335ERGO    C216396  13.864   7.377   7.652  0.3182 -0.1764  0.2240
 1336ERGO   ROH16397  14.676  12.150  10.452  0.0705 -0.1423 -0.0361
 1336ERGO    R116398  14.597  12.092  10.187 -0.0934 -0.0285 -0.0137
 1336ERGO    R216399  14.455  12.271  10.032  0.0558  0.1534  0.0538
 1336ERGO    R316400  14.659  12.232   9.856 -0.0491 -0.0692 -0.0226
 1336ERGO    R416401  14.445  12.354   9.697  0.0071  0.1218  0.0474
 1336ERGO    R516402  14.550  12.168   9.652 -0.1923  0.0117  0.0276
 1336ERGO    C116403  14.630  12.367   9.337 -0.1197 -0.1054 -0.0280
 1336ERGO    C216404  14.786  12.297   8.978 -0.2621 -0.2683  0.1404
 1337ERGO   ROH16405  10.498  15.725   6.964  0.2723  0.2526  0.0124
 1337ERGO    R116406  10.465  15.838   7.222  0.1432  0.1200  0.0558
 1337ERGO    R216407  10.361  15.695   7.435  0.2046 -0.0466 -0.0225
 1337ERGO    R316408  10.591  15.773   7.557  0.1277  0.0663  0.0510
 1337ERGO    R416409  10.422  15.671   7.774  0.1118 -0.0237 -0.0043
 1337ERGO    R516410  10.519  15.867   7.766  0.0163  0.0249  0.0310
 1337ERGO    C116411  10.674  15.730   8.087 -0.0143  0.0957  0.0754
 1337ERGO    C216412  10.617  15.886   8.406 -0.1698 -0.2084 -0.1568
 1338ERGO   ROH16413  12.075  10.429   6.826  0.1942 -0.1132  0.1558
 1338ERGO    R116414  11.996  10.484   7.093  0.0100  0.2767  0.0269
 1338ERGO    R216415  12.134  10.386   7.311 -0.5185  0.0307  0.2569
 1338ERGO    R316416  12.142  10.649   7.382  0.1132  0.0729  0.0968
 1338ERGO    R416417  12.209  10.504   7.628 -0.7486 -0.0200  0.3334
 1338ERGO    R516418  12.053  10.653   7.604 -0.2988  0.4463 -0.0522
 1338ERGO    C116419  12.261  10.818   7.878 -0.2897 -0.0099  0.2276
 1338ERGO    C216420  12.316  10.907   8.179 -0.0966  0.1414 -0.2867
 1339ERGO   ROH16421   7.360  17.336  10.367  0.2189 -0.1041 -0.0552
 1339ERGO    R116422   7.506  17.308  10.127  0.1126 -0.0942 -0.1211
 1339ERGO    R216423   7.488  17.084   9.966  0.0360 -0.0826 -0.1249
 1339ERGO    R316424   7.429  17.266   9.773 -0.0421 -0.0713 -0.0914
 1339ERGO    R416425   7.478  17.016   9.628  0.1485 -0.0100 -0.1436
 1339ERGO    R516426   7.574  17.209   9.591  0.0343  0.0636 -0.0770
 1339ERGO    C116427   7.417  17.147   9.249  0.1406  0.0427 -0.1230
 1339ERGO    C216428   7.402  17.163   8.912 -0.1941 -0.0773 -0.0336
 1340ERGO   ROH16429  17.659   0.250   6.351  0.0264 -0.1703  0.1407
 1340ERGO    R116430  17.780   0.386   6.567 -0.0501 -0.1397  0.1637
 1340ERGO    R216431  17.678   0.622   6.670 -0.0156 -0.0626  0.0122
 1340ERGO    R316432  17.684   0.484   6.904 -0.2136  0.0268  0.0720
 1340ERGO    R416433  17.678   0.766   6.984  0.2991  0.0918 -0.0543
 1340ERGO    R516434  17.823   0.616   7.048  0.0546 -0.1439 -0.0172
 1340ERGO    C116435  17.683   0.720   7.387  0.2965  0.2657 -0.0369
 1340ERGO    C216436  17.477   0.968   7.502  0.3619 -0.1627  0.1434
 1341ERGO   ROH16437  11.108   3.911   6.620 -0.0881  0.1397 -0.1623
 1341ERGO    R116438  11.086   3.887   6.901 -0.0937  0.0810 -0.1677
 1341ERGO    R216439  11.029   4.102   7.065 -0.1567  0.0366 -0.1313
 1341ERGO    R316440  10.828   3.941   7.152 -0.1203 -0.0335 -0.1689
 1341ERGO    R416441  10.868   4.133   7.369 -0.0858 -0.1477 -0.0733
 1341ERGO    R516442  10.868   3.916   7.386 -0.0591 -0.1591 -0.1915
 1341ERGO    C116443  10.585   3.999   7.628 -0.0105 -0.3208 -0.0749
 1341ERGO    C216444  10.466   4.092   7.884 -0.1378  0.1064  0.1776
 1342ERGO   ROH16445   3.021   9.891   6.614 -0.0926  0.0731  0.2100
 1342ERGO    R116446   3.057   9.953   6.888 -0.2431  0.3385  0.1727
 1342ERGO    R216447   2.845  10.010   7.057 -0.3863  0.0084  0.1127
 1342ERGO    R316448   2.954   9.811   7.207  0.0287  0.3300  0.2595
 1342ERGO    R416449   2.744   9.926   7.376 -0.2939 -0.0449  0.1286
 1342ERGO    R516450   2.953   9.898   7.430 -0.2348  0.4610  0.2114
 1342ERGO    C116451   2.786   9.691   7.703  0.1495  0.2261  0.2758
 1342ERGO    C216452   2.888   9.518   7.956  0.1961 -0.2018  0.1936
 1343ERGO   ROH16453   7.109  10.759   6.803 -0.1089 -0.1384 -0.0023
 1343ERGO    R116454   7.249  10.808   7.044 -0.0005  0.0057 -0.0941
 1343ERGO    R216455   7.129  10.794   7.292  0.1138  0.1416 -0.0307
 1343ERGO    R316456   7.332  10.622   7.345  0.1463  0.1812 -0.0236
 1343ERGO    R416457   7.222  10.691   7.608 -0.0859 -0.0903 -0.0445
 1343ERGO    R516458   7.431  10.706   7.546 -0.0429  0.0521  0.1273
 1343ERGO    C116459   7.467  10.468   7.842 -0.1715 -0.1880 -0.0460
 1343ERGO    C216460   7.584  10.353   8.154 -0.2902 -0.0385  0.0556
 1344ERGO   ROH16461  11.920   7.123   7.590  0.0557  0.0230  0.1847
 1344ERGO    R116462  11.797   7.299   7.774 -0.0902 -0.0292  0.1386
 1344ERGO    R216463  11.898   7.550   7.830 -0.1404 -0.0402  0.2791
 1344ERGO    R316464  11.647   7.630   7.764 -0.0951 -0.0320  0.1106
 1344ERGO    R416465  11.793   7.879   7.812 -0.1258 -0.0372  0.2454
 1344ERGO    R516466  11.605   7.819   7.904 -0.1934 -0.0487  0.1062
 1344ERGO    C116467  11.496   8.145   7.739 -0.0749 -0.0278  0.0676
 1344ERGO    C216468  11.444   8.399   7.476  0.3578 -0.6411 -0.1474
 1345ERGO   ROH16469  17.198   6.858   6.501  0.0616 -0.1598 -0.0309
 1345ERGO    R116470  17.076   6.877   6.755  0.0348 -0.0975 -0.0479
 1345ERGO    R216471  17.066   6.665   6.932 -0.0601 -0.0811 -0.0304
 1345ERGO    R316472  17.180   6.844   7.102 -0.0204 -0.1049 -0.0323
 1345ERGO    R416473  17.083   6.628   7.275 -0.1702 -0.0250 -0.0185
 1345ERGO    R516474  17.039   6.840   7.296 -0.0735 -0.0010 -0.0699
 1345ERGO    C116475  17.201   6.774   7.635 -0.1972 -0.0147 -0.0136
 1345ERGO    C216476  17.306   6.665   7.939  0.2240 -0.1460  0.0938
 1346W        W16477   6.477   3.093   0.505  0.2486  0.0769  0.3319
 1347W        W16478  13.850  12.958  13.899 -0.0684  0.2299  0.0260
 1348W        W16479   6.093  10.911   4.747 -0.1514 -0.0713 -0.3812
 1349W        W16480  15.523  15.633   1.103 -0.2769 -0.2111 -0.2964
 1350W        W16481   0.975   7.948  14.141 -0.0590 -0.2539  0.1553
 1351W        W16482  16.189   0.689  11.598  0.1483  0.1377  0.0678
 1352W        W16483   8.739  16.443   2.785  0.2645  0.2399 -0.2031
 1353W        W16484  14.014   5.805  16.560 -0.2011  0.1051 -0.0205
 1354W        W16485   5.451   2.111   4.642 -0.0605  0.1787 -0.1870
 1355W        W16486  16.763  12.301  12.733  0.2129  0.3357 -0.0232
 1356W        W16487  11.229  11.178  16.433 -0.0659  0.0577  0.4300
 1357W        W16488   0.828   9.961  16.709  0.2883  0.1658  0.2471
 1358W        W16489   7.028   7.759  14.048 -0.3017  0.3043 -0.4443
 1359W        W16490   1.405  12.457   1.799  0.1165 -0.1745  0.2509
 1360W        W16491  10.026  17.475  13.160  0.0181  0.2006  0.2853
 1361W        W16492  10.309   0.253   0.690 -0.1957  0.0616  0.0433
 1362W        W16493  15.769  13.821  14.509  0.0868 -0.0289 -0.1634
 1363W        W16494   0.642  14.266   3.995  0.0067 -0.1995  0.1381
 1364W        W16495   9.450  14.366   2.813 -0.2233  0.4613 -0.2723
 1365W        W16496   4.903   0.551  13.607  0.0316 -0.3030  0.0374
 1366W        W16497   8.702  13.418  13.080 -0.0015  0.1944  0.2861
 1367W        W16498  10.254   6.406  13.967  0.1116  0.3271  0.1039
 1368W        W16499   0.144   3.824  16.740  0.1215  0.0160  0.0445
 1369W        W16500   9.791   2.669  14.880  0.1897 -0.0220 -0.3117
 1370W        W16501   6.587   8.599   6.059 -0.2036  0.0677 -0.0889
 1371W        W16502   3.999   9.898  14.607  0.1031  0.0569  0.1246
 1372W        W16503   4.444   8.636   6.034  0.0081 -0.0397  0.0211
 1373W        W16504   7.486   9.461   3.421 -0.3827 -0.3359 -0.1154
 1374W        W16505   1.321  11.452   5.150 -0.3625 -0.1335  0.0344
 1375W        W16506   7.848  15.141  14.612 -0.0797 -0.0636  0.1437
 1376W        W16507   8.696  16.742   0.297 -0.2551 -0.0161  0.0672
 1377W        W16508   6.143   3.820  11.959  0.0650 -0.1620  0.0752
 1378W        W16509   0.794  17.406   2.419  0.0993  0.0575 -0.0093
 1379W        W16510  12.668  14.107   3.741  0.1241 -0.3987 -0.0610
 1380W        W16511   6.060   7.873  14.953 -0.1658 -0.0986 -0.1447
 1381W        W16512   7.365   6.198  11.934  0.1750  0.1506 -0.1306
 1382W        W16513   5.673  17.656   4.254  0.0815  0.2567  0.6082
 1383W        W16514   5.752  14.568   5.688  0.0370 -0.1807  0.4529
 1384W        W16515   3.053   5.463  16.363  0.0669  0.0373  0.0366
 1385W        W16516   7.980  11.209  12.274  0.2188  0.4973 -0.0019
 1386W        W16517   9.387   4.073  16.778 -0.2154 -0.2469 -0.1820
 1387W        W16518   1.835  13.848  11.740 -0.2498  0.0648  0.0510
 1388W        W16519   2.778   4.153   2.903 -0.1332  0.0177 -0.2766
 1389W        W16520   5.975   6.926  14.478 -0.2944 -0.1077 -0.1427
 1390W        W16521  17.671  10.391  10.960  0.1179 -0.1726 -0.5190
 1391W        W16522   9.245  12.338   4.910  0.2036  0.1335 -0.4025
 1392W        W16523  11.163  16.439  10.779 -0.1534  0.0913 -0.1124
 1393W        W16524  13.327  14.015  12.376 -0.0075 -0.0145 -0.0877
 1394W        W16525   7.084   2.039  11.597 -0.2073  0.0564 -0.1127
 1395W        W16526   1.178   7.689  16.011  0.2774 -0.2253 -0.0934
 1396W        W16527   0.683   7.308   0.363  0.0481  0.0777 -0.1650
 1397W        W16528   2.545   7.957  15.134  0.1292  0.2890  0.0022
 1398W        W16529   4.532  12.239   3.761  0.1663 -0.0688  0.3512
 1399W        W16530   3.602  10.829   6.516  0.0870  0.3330  0.1632
 1400W        W16531  15.865   6.247   4.677  0.1728  0.2038  0.2500
 1401W        W16532   7.861   0.760   4.709  0.2044  0.1813 -0.2131
 1402W        W16533  11.710  15.872   3.127 -0.1993 -0.1037 -0.0099
 1403W        W16534   0.812   2.740   2.440 -0.0024 -0.3083 -0.4061
 1404W        W16535  13.375  10.888  16.760  0.0468  0.0821 -0.0790
 1405W        W16536   8.381  13.590   3.195  0.2261  0.0815  0.2990
 1406W        W16537  13.757   0.979   5.059 -0.3118  0.2149 -0.1260
 1407W        W16538  17.124   7.016   0.172 -0.1512  0.0794 -0.0786
 1408W        W16539   2.601  17.516   1.860 -0.0922  0.1711 -0.0728
 1409W        W16540  16.994   5.878  14.366  0.0508 -0.0285  0.2078
 1410W        W16541   8.029   4.039  13.835 -0.1576 -0.0036 -0.1085
 1411W        W16542  11.632  11.441   2.886  0.0305  0.0174 -0.1045
 1412W        W16543   1.673  11.948   3.862 -0.3553 -0.1157 -0.0210
 1413W        W16544  11.878  13.384  16.205  0.3098  0.1257  0.0285
 1414W        W16545  10.778   0.612  15.478  0.2596  0.0385  0.0943
 1415W        W16546  10.895   9.632  11.069  0.0283 -0.1323  0.1781
 1416W        W16547   0.830   2.401  15.208 -0.2808 -0.3065 -0.1892
 1417W        W16548   5.396   1.575  12.893  0.1855 -0.0280 -0.0115
 1418W        W16549   0.024   3.811   5.576 -0.2597  0.1518  0.0105
 1419W        W16550  15.773   1.060   0.182  0.4572 -0.0420  0.0858
 1420W        W16551   9.178  16.188   4.763 -0.0163 -0.0974 -0.0945
 1421W        W16552  12.870  14.762   2.296  0.3302 -0.0006 -0.3997
 1422W        W16553  17.029   7.278   4.200 -0.1186  0.0592  0.2768
 1423W        W16554   1.610  15.328   0.703 -0.2774 -0.2725 -0.0323
 1424W        W16555   3.886  13.902  12.444  0.1194 -0.0295 -0.3026
 1425W        W16556   9.268   2.226   0.553  0.4899 -0.0326  0.3317
 1426W        W16557  13.476   3.161  15.628  0.2740  0.0644  0.0666
 1427W        W16558   1.670   0.017   0.642  0.1719 -0.0809 -0.1237
 1428W        W16559   2.985  15.230  16.851  0.3637 -0.0915 -0.0472
 1429W        W16560  16.233   7.039  10.819 -0.0908 -0.1871  0.0183
 1430W        W16561   4.114   8.332  15.377  0.1250  0.0977  0.0226
 1431W        W16562   0.715   2.855   5.217 -0.1755  0.0871 -0.0060
 1432W        W16563  14.405   6.938  12.052  0.2682  0.3267  0.0192
 1433W        W16564  11.793   6.293   2.099  0.1432 -0.1093  0.0888
 1434W        W16565   8.278  10.733   3.274 -0.0549  0.0887 -0.4421
 1435W        W16566   1.108  10.475   5.510 -0.0098  0.0491 -0.1550
 1436W        W16567   5.916  17.470  16.328 -0.0717 -0.1598  0.0326
 1437W        W16568   5.213   0.593  12.523 -0.0268  0.0439 -0.0349
 1438W        W16569   4.172   8.140  14.067  0.2116  0.0669 -0.2243
 1439W        W16570   4.438   1.278   3.753  0.2417  0.1719 -0.0945
 1440W        W16571  12.024  11.569  11.698 -0.2771  0.2414  0.2050
 1441W        W16572   2.690  10.771  14.772 -0.0320  0.2489 -0.1550
 1442W        W16573  13.589   9.013   4.574  0.1874  0.0325 -0.0136
 1443W        W16574  12.523  15.005  12.660  0.1156 -0.2854  0.0170
 1444W        W16575   7.212   7.613   2.824  0.2815  0.0822  0.2126
 1445W        W16576   7.703   3.475   0.302  0.1444 -0.0662  0.0256
 1446W        W16577  16.444   2.920  12.685  0.0097  0.2043  0.2026
 1447W        W16578  13.867   8.457   1.944 -0.1778 -0.0594 -0.2717
 1448W        W16579  16.666  14.600   6.227  0.3051  0.2342 -0.1324
 1449W        W16580  11.174   8.817   0.720 -0.1412  0.1366  0.1898
 1450W        W16581   1.164   4.060  15.133 -0.0705  0.1735  0.0121
 1451W        W16582   3.634   9.028   1.870 -0.1928 -0.0923  0.0685
 1452W        W16583  16.076   9.570  15.467  0.0511 -0.0177  0.2418
 1453W        W16584   2.067   2.773  12.579 -0.3319 -0.0079 -0.2223
 1454W        W16585  14.356  13.814   4.692  0.3326  0.1066  0.0761
 1455W        W16586  13.694   3.392  16.855 -0.0479  0.1551 -0.1041
 1456W        W16587   2.580  14.379   5.520  0.0221  0.3238  0.1599
 1457W        W16588   2.151  11.668  15.965  0.2007  0.0535 -0.0196
 1458W        W16589  16.777   8.189  16.836  0.0069 -0.1284  0.0321
 1459W        W16590   0.045   5.227  16.569 -0.0176 -0.0572 -0.1911
 1460W        W16591   8.113   0.461   5.134 -0.0524 -0.4906 -0.2723
 1461W        W16592   7.519  12.493  12.049  0.1533  0.2426 -0.0524
 1462W        W16593   0.691  13.093   5.068  0.0817 -0.0248 -0.2059
 1463W        W16594   5.485   5.351   3.931  0.2051 -0.1499 -0.0864
 1464W        W16595  14.001   5.676   2.194  0.0631  0.4404  0.0156
 1465W        W16596  11.461  15.915  11.439 -0.0683  0.0823  0.2100
 1466W        W16597  12.584   5.015  13.469 -0.1723  0.0470  0.0973
 1467W        W16598  12.971   0.772   3.964 -0.0985  0.0606  0.2459
 1468W        W16599  14.194  14.486   5.074  0.0217 -0.0086 -0.1744
 1469W        W16600   5.821  10.851  10.754  0.0350 -0.0371  0.1086
 1470W        W16601   9.399  14.277   5.877 -0.2185  0.2755 -0.2241
 1471W        W16602  11.407   7.856  13.321  0.0015  0.0181  0.1059
 1472W        W16603   7.895  16.979  13.381  0.1795  0.3528  0.0922
 1473W        W16604   1.438  14.529  16.739  0.0212 -0.1548  0.1305
 1474W        W16605  14.559  10.514  13.391  0.2478  0.0906 -0.0729
 1475W        W16606   7.582  15.318  16.043  0.3949  0.0429 -0.0847
 1476W        W16607  16.233   4.720  13.775  0.0280  0.1166 -0.1009
 1477W        W16608   0.666  16.220   5.313  0.1128  0.0141  0.1230
 1478W        W16609   5.387   9.960   4.207 -0.0028 -0.2981 -0.1889
 1479W        W16610  15.811   0.487   6.101 -0.0728  0.0879 -0.1577
 1480W        W16611   1.451   9.052  16.525 -0.1978  0.3685 -0.0255
 1481W        W16612  14.576   5.975   3.987 -0.2057  0.1240  0.0102
 1482W        W16613  11.076   2.603   3.260  0.0565  0.0694 -0.2373
 1483W        W16614  16.191  12.776   2.452 -0.0050  0.0726 -0.1976
 1484W        W16615  16.512   7.529   3.378 -0.1574  0.0397 -0.2232
 1485W        W16616  14.371  15.442  14.032  0.1124  0.0732  0.1815
 1486W        W16617   4.438   6.764   4.579  0.1660  0.1925  0.2605
 1487W        W16618   7.701   9.844  14.027  0.0261 -0.1539 -0.0637
 1488W        W16619  13.428   7.575   4.990 -0.1624  0.3735  0.2593
 1489W        W16620  13.038  10.733   2.904  0.3667  0.0620 -0.0213
 1490W        W16621   0.409   0.235  16.046 -0.2712  0.1611  0.0478
 1491W        W16622   1.119  11.428   4.235  0.0240 -0.2217 -0.2160
 1492W        W16623   7.724  11.411   5.422  0.0685 -0.2746  0.0266
 1493W        W16624  16.452   6.862   2.277 -0.1015  0.0646 -0.5127
 1494W        W16625   0.289  16.397   3.122 -0.1213  0.0435  0.2115
 1495W        W16626  16.544  13.207  14.917  0.2916 -0.1119 -0.1473
 1496W        W16627   4.645   8.045  13.763 -0.1831  0.0600  0.2280
 1497W        W16628   9.408   2.082   6.876  0.0762 -0.1276 -0.1565
 1498W        W16629  10.617   6.632  13.748 -0.2074  0.1686  0.0654
 1499W        W16630   1.159   2.495  15.581 -0.1556  0.0503 -0.0306
 1500W        W16631  12.966   3.759   0.721  0.3691 -0.3781  0.0859
 1501W        W16632  13.986  15.580   5.824 -0.2021 -0.1344  0.1167
 1502W        W16633   1.555   2.326  13.854 -0.1113 -0.0631  0.3001
 1503W        W16634  10.961   3.609  14.110  0.1156  0.3620 -0.0196
 1504W        W16635   8.494   0.635   1.080 -0.0813  0.0331  0.0206
 1505W        W16636   7.740  12.362   1.484  0.4187  0.5162  0.1063
 1506W        W16637  15.247   8.641  11.624  0.3310  0.1656  0.0721
 1507W        W16638   0.303   4.204  11.047  0.0370 -0.2677  0.0440
 1508W        W16639   4.594  11.156  11.858  0.1480  0.2394 -0.1238
 1509W        W16640  15.417  14.280  11.335  0.1339  0.0939  0.0162
 1510W        W16641  13.865   6.460   4.597 -0.2311 -0.1924 -0.1380
 1511W        W16642   3.221   9.114  11.657 -0.0641 -0.1132 -0.0117
 1512W        W16643   1.094  10.915   4.443 -0.0597 -0.0157  0.0173
 1513W        W16644   6.019  14.856  16.116  0.0663 -0.0370  0.0931
 1514W        W16645  12.921   8.270   2.317 -0.1147 -0.0736  0.0498
 1515W        W16646  17.670   6.256  13.225  0.1026 -0.0259  0.0178
 1516W        W16647   1.783  11.467  13.212  0.2942  0.1207 -0.0317
 1517W        W16648  12.309   4.389   5.083 -0.0418 -0.0459  0.2177
 1518W        W16649   4.112   5.500  11.171  0.1989 -0.0548 -0.2724
 1519W        W16650  14.376  15.433   2.832  0.1554 -0.0253 -0.0305
 1520W        W16651   1.278   6.603  16.940  0.3232 -0.0855  0.1040
 1521W        W16652   1.219   2.406  13.507 -0.2668  0.2027 -0.2433
 1522W        W16653   3.882   2.238   4.563  0.1990  0.1717  0.1292
 1523W        W16654   6.771  17.397  12.065  0.0603  0.3142 -0.4146
 1524W        W16655   7.681  11.746  16.246 -0.1463 -0.1909 -0.1512
 1525W        W16656   4.732   4.883  11.719 -0.0854 -0.0138  0.4624
 1526W        W16657  15.772   5.285  10.752  0.0458 -0.1233  0.2568
 1527W        W16658  17.494   6.674   3.718  0.0189  0.2676 -0.1596
 1528W        W16659   9.968  13.067   4.582  0.1693  0.0839  0.2627
 1529W        W16660  10.672   1.075  14.705 -0.1738  0.0698  0.0441
 1530W        W16661  13.979   4.599  15.584 -0.0727 -0.1344 -0.0432
 1531W        W16662  11.050   7.072  14.999  0.1789  0.1528 -0.0382
 1532W        W16663  14.724   1.947   1.538 -0.0016 -0.3620  0.0303
 1533W        W16664   4.650   6.230   4.519 -0.0560 -0.1715 -0.0319
 1534W        W16665  14.859   4.671  12.894  0.1309 -0.0710  0.2754
 1535W        W16666   4.943   2.036   4.824 -0.0249 -0.1843 -0.1218
 1536W        W16667  15.589   4.881  14.469  0.0048 -0.0374  0.0299
 1537W        W16668   5.724   3.879  15.146 -0.0530 -0.1797  0.1219
 1538W        W16669   7.444   8.517   2.103  0.1921  0.1533 -0.0374
 1539W        W16670   3.594   9.522  12.896 -0.2097  0.0527  0.2889
 1540W        W16671  13.357  12.125  11.770  0.0590 -0.1697 -0.0296
 1541W        W16672   6.113   7.147  14.063 -0.0760  0.5156  0.2436
 1542W        W16673   1.206   5.533  11.570 -0.0062  0.0983  0.2394
 1543W        W16674   0.204   5.663  14.986 -0.1546 -0.1207  0.0738
 1544W        W16675  12.160   0.801  12.434 -0.2131  0.0202 -0.2855
 1545W        W16676   3.710  15.503  11.836 -0.2211  0.4190 -0.2731
 1546W        W16677   5.569   5.685   0.683  0.1379 -0.4104  0.0491
 1547W        W16678   3.756   1.479  14.694  0.1841 -0.0833 -0.0104
 1548W        W16679   0.363   0.949  13.679 -0.1148  0.0139  0.0997
 1549W        W16680  16.004   8.225   2.538 -0.1429 -0.0315  0.3697
 1550W        W16681  10.025   1.442   2.523  0.2849 -0.0179 -0.0490
 1551W        W16682  17.125   9.316  11.399  0.1429 -0.2636  0.1767
 1552W        W16683   1.925   3.493  11.997 -0.3653  0.1276 -0.1874
 1553W        W16684  12.757  16.726  15.419 -0.3390 -0.2427  0.2119
 1554W        W16685  14.544   0.809  12.938 -0.0271  0.0400 -0.0747
 1555W        W16686   6.994   8.275  12.819 -0.0723 -0.0537 -0.0783
 1556W        W16687  12.614  14.231  14.189  0.0113 -0.0704  0.0965
 1557W        W16688   5.581   4.958   3.595  0.0851 -0.1054 -0.0719
 1558W        W16689  11.099   9.026  11.704  0.0913  0.0899  0.1147
 1559W        W16690  16.424   7.215  11.303 -0.1576  0.1148 -0.1602
 1560W        W16691  16.409  17.499   1.411  0.0817 -0.2168  0.2706
 1561W        W16692   5.119  17.498   0.429 -0.1531  0.0739 -0.0281
 1562W        W16693   0.759   7.831   0.150 -0.3192  0.1253 -0.3052
 1563W        W16694   3.892   9.952   6.499  0.2870 -0.5212  0.1804
 1564W        W16695   3.100   5.832   0.372 -0.0524 -0.2828 -0.1567
 1565W        W16696   6.660   0.460   3.386 -0.2060 -0.2136 -0.3639
 1566W        W16697   2.328  15.144   1.947  0.0667  0.1076  0.0288
 1567W        W16698   0.559  15.215  12.662  0.0298  0.2725  0.0840
 1568W        W16699   4.245  12.179   2.147 -0.1843  0.1575  0.1064
 1569W        W16700   0.488  16.334   4.494 -0.2748 -0.2871  0.1745
 1570W        W16701   9.127   8.820   2.468 -0.1694 -0.0404  0.1710
 1571W        W16702   9.218   2.690   0.679 -0.0803  0.0664  0.2766
 1572W        W16703   6.786   8.201  12.401 -0.0699  0.0269 -0.0456
 1573W        W16704   2.058  16.824   3.010 -0.0245  0.0006  0.2889
 1574W        W16705   4.051   9.141  16.657 -0.0028 -0.2097 -0.1989
 1575W        W16706   1.591  13.871  13.632 -0.2692  0.0673 -0.0853
 1576W        W16707   5.732  12.556  12.040 -0.1705  0.1641  0.0345
 1577W        W16708   3.222   1.457  11.217  0.2566  0.4230 -0.0361
 1578W        W16709   8.014  15.483  11.346  0.0478 -0.0706 -0.3102
 1579W        W16710  11.142   7.252  11.542 -0.0109  0.2543  0.1021
 1580W        W16711   2.587   6.319  16.101  0.1343 -0.3911 -0.4157
 1581W        W16712  13.689   8.143  12.855  0.1355  0.0153  0.1809
 1582W        W16713   6.338  12.474  16.816  0.0896  0.0190  0.0057
 1583W        W16714  15.314   2.742   2.028 -0.1321 -0.0037 -0.2573
 1584W        W16715   2.780   3.565  15.291 -0.0728 -0.2184  0.2276
 1585W        W16716   9.975   2.238  11.845  0.0038 -0.2853  0.0881
 1586W        W16717  15.188   2.604  13.849  0.1880  0.1143 -0.0220
 1587W        W16718   6.634   9.361   4.963  0.0340 -0.0493 -0.3762
 1588W        W16719   9.133   0.408   5.795  0.0364  0.1333 -0.2196
 1589W        W16720  12.037  10.378   6.324 -0.2284 -0.1239  0.0601
 1590W        W16721  16.741  11.546   2.195 -0.2844  0.2923  0.3295
 1591W        W16722   3.081  14.099  15.136 -0.1237 -0.0854  0.1009
 1592W        W16723   8.862  14.015   1.575  0.0851  0.0477 -0.4264
 1593W        W16724  12.977   9.886  14.841  0.0270  0.3517  0.2450
 1594W        W16725  16.185   7.156  15.866 -0.1758 -0.3636  0.2748
 1595W        W16726  14.767   1.141  14.021 -0.0185  0.1857  0.1982
 1596W        W16727   4.595   6.948   1.411 -0.1634 -0.1301  0.0070
 1597W        W16728   8.125  15.513   6.392  0.0689  0.2456  0.1783
 1598W        W16729   3.973  15.621   5.982  0.3071 -0.1026  0.1117
 1599W        W16730   9.876  16.010  14.918  0.1174  0.0124  0.0076
 1600W        W16731  17.675  16.581   6.332 -0.0749  0.1479 -0.0432
 1601W        W16732   7.168   1.463  11.538  0.0586  0.2721  0.1050
 1602W        W16733   2.055   0.133  15.849 -0.0431  0.2005  0.1419
 1603W        W16734  13.946   8.827   0.144 -0.0042  0.0301  0.0222
 1604W        W16735  13.605   1.675   4.439 -0.1138 -0.1707 -0.0305
 1605W        W16736   8.317  13.378  10.838 -0.1297 -0.3064 -0.0057
 1606W        W16737   0.369   0.243   4.144 -0.1022 -0.3066  0.1604
 1607W        W16738  11.933  15.249  13.224 -0.0467  0.0426  0.2730
 1608W        W16739  16.975  14.243   1.515 -0.0044  0.2187 -0.0374
 1609W        W16740   5.724  10.094  11.779  0.1921  0.1963  0.0965
 1610W        W16741  17.515   7.900  13.399 -0.0688  0.4699 -0.4036
 1611W        W16742  17.356  16.930  13.523 -0.1862 -0.2894  0.0150
 1612W        W16743   0.099   9.354   3.500  0.3577  0.1357  0.3250
 1613W        W16744   4.216   2.513   0.386  0.2099 -0.0439 -0.0816
 1614W        W16745   6.479   2.941  16.369 -0.1915 -0.1022  0.0510
 1615W        W16746  14.271  11.474  13.829 -0.0274  0.0372  0.0256
 1616W        W16747   8.385  13.837   4.754 -0.1425 -0.0957  0.1242
 1617W        W16748   2.110   2.332   1.490  0.0235 -0.0166  0.2165
 1618W        W16749   1.468  11.923  12.016 -0.0121 -0.0886  0.0739
 1619W        W16750   9.233  12.071   1.397  0.0958  0.0010  0.1254
 1620W        W16751   8.565   5.931  16.809 -0.0413  0.0487 -0.0151
 1621W        W16752   2.130  14.518  14.904 -0.0501  0.0889  0.1990
 1622W        W16753  11.294  17.584  12.889  0.4166  0.1876 -0.0313
 1623W        W16754  16.170  13.060  11.272  0.0066 -0.1942  0.1696
 1624W        W16755   9.988   5.554  14.062  0.1522 -0.0250 -0.3888
 1625W        W16756   3.439   1.072  14.622  0.0896 -0.0545  0.2050
 1626W        W16757  15.412  15.376  12.260  0.1961  0.0767 -0.1962
 1627W        W16758   0.473  11.526   1.169 -0.3637  0.0777  0.1005
 1628W        W16759  14.588   7.388  11.843  0.0197  0.1553 -0.3134
 1629W        W16760  11.670   4.597  12.183 -0.0361 -0.0184  0.1554
 1630W        W16761   4.547  11.329   5.623 -0.1780  0.2910 -0.0065
 1631W        W16762   6.751  15.949  12.075 -0.2439 -0.0428 -0.1289
 1632W        W16763  16.067  11.755   2.796  0.0153 -0.4288 -0.1889
 1633W        W16764   0.937   7.207  12.142 -0.1772  0.0249 -0.0187
 1634W        W16765   4.193  12.331   0.748  0.0505  0.0969  0.0610
 1635W        W16766   6.960  15.665   6.705  0.0188 -0.0967  0.0445
 1636W        W16767   4.872  15.870   5.389 -0.3282  0.2131  0.0063
 1637W        W16768  15.221  13.571   3.337 -0.1116 -0.0112  0.0569
 1638W        W16769   4.303   5.597  16.015  0.0142  0.1327  0.0622
 1639W        W16770   0.512  13.811   3.571  0.2009  0.1447 -0.1062
 1640W        W16771  12.524   9.241  11.086  0.1708 -0.0556 -0.3135
 1641W        W16772   5.969   7.153   1.141  0.3174  0.0382 -0.2361
 1642W        W16773   7.017  15.933  16.925 -0.0450 -0.2416  0.1248
 1643W        W16774   2.471  15.085  16.783 -0.2029 -0.0531  0.1272
 1644W        W16775   6.933   7.415   1.194  0.2284 -0.1133  0.0491
 1645W        W16776  12.462   3.961  12.888 -0.1554 -0.1623 -0.0433
 1646W        W16777   8.709  17.164  14.959 -0.4959 -0.0631 -0.0617
 1647W        W16778   1.789   8.577  14.422  0.0843  0.0870  0.1524
 1648W        W16779   6.423  11.986   5.745  0.1601 -0.2664 -0.0778
 1649W        W16780   9.148   0.860  12.193 -0.1506 -0.2795  0.2164
 1650W        W16781  10.494   9.179  12.401 -0.0851 -0.3812 -0.0052
 1651W        W16782  17.621   0.328  11.749  0.4195 -0.1392  0.3019
 1652W        W16783   0.774  14.310   6.439  0.0718  0.2826 -0.1616
 1653W        W16784  15.917   7.908  16.327  0.0187  0.1060  0.1152
 1654W        W16785   8.534  11.853   6.384  0.2373  0.0380 -0.1560
 1655W        W16786   9.393   4.087  15.848 -0.1601  0.1163  0.0832
 1656W        W16787  15.724  12.786   5.540 -0.0100  0.1038  0.3564
 1657W        W16788  11.323   3.393  15.855  0.0355 -0.0508 -0.1438
 1658W        W16789   2.999  16.736  13.114 -0.1366  0.2039 -0.2923
 1659W        W16790  16.887  12.179   3.639 -0.1816 -0.1120 -0.2617
 1660W        W16791  10.950  16.283   4.562  0.2063 -0.0935  0.2063
 1661W        W16792   2.131  15.176  14.341 -0.0596  0.2435  0.1451
 1662W        W16793  11.751   2.268  15.480 -0.1466 -0.0249 -0.2306
 1663W        W16794   5.282   1.773  11.139 -0.1500 -0.1570 -0.0647
 1664W        W16795   9.116  12.680  12.342  0.2167 -0.2410 -0.0729
 1665W        W16796   1.374  14.114   2.479  0.2027 -0.1732 -0.0687
 1666W        W16797   3.028   2.363  11.361  0.0498 -0.2106 -0.0445
 1667W        W16798   6.571   8.967  16.229  0.0970  0.0194  0.1220
 1668W        W16799  17.247  16.113  14.955  0.0225  0.1389  0.0260
 1669W        W16800  12.010  12.439  16.521 -0.3566 -0.0843 -0.0616
 1670W        W16801   0.219   1.449   5.122  0.1826 -0.2487  0.0889
 1671W        W16802   0.342   1.548  16.282 -0.3514 -0.1567 -0.1564
 1672W        W16803   2.807   2.113  15.710  0.0474  0.0932  0.0906
 1673W        W16804   2.490   9.641   0.232 -0.1811 -0.0186  0.0837
 1674W        W16805  10.106  11.134  15.462 -0.1148 -0.0940 -0.1973
 1675W        W16806   0.042   0.393  15.313 -0.0796  0.2094  0.0386
 1676W        W16807  17.225  17.132  13.047  0.1493  0.2254 -0.2952
 1677W        W16808   3.690  12.201   3.744  0.0646  0.1603 -0.1006
 1678W        W16809  12.275  14.651   2.943  0.0115  0.2411 -0.1429
 1679W        W16810   8.945   0.924   5.086  0.1368  0.1541  0.1524
 1680W        W16811  12.983   9.204   3.480  0.2057 -0.0443  0.0263
 1681W        W16812   9.818  14.967   0.995 -0.1607 -0.0735  0.0833
 1682W        W16813  10.926   8.478  12.739 -0.2106 -0.0931  0.4745
 1683W        W16814   3.433  12.725  15.406 -0.1639 -0.1087 -0.0662
 1684W        W16815  15.576  11.977   0.827 -0.1100 -0.1914  0.3661
 1685W        W16816  17.117  10.336  14.997  0.2728 -0.2151 -0.1138
 1686W        W16817   4.932   2.100  11.577  0.4951 -0.3735  0.1800
 1687W        W16818  11.808   0.882  13.099 -0.0405 -0.1986 -0.0462
 1688W        W16819  12.731  15.609  14.730  0.2469  0.1601 -0.2694
 1689W        W16820   7.906   1.200  11.884 -0.1485 -0.1146 -0.1027
 1690W        W16821  10.183   9.227  13.937  0.3121 -0.1135  0.2323
 1691W        W16822  14.219  12.213   0.722 -0.0958  0.0480  0.2240
 1692W        W16823   6.098   0.278  12.373 -0.0872  0.4676  0.1967
 1693W        W16824   9.196  10.877  12.700 -0.0442  0.0864 -0.6084
 1694W        W16825   8.633  11.769   2.549 -0.0377  0.1124 -0.0539
 1695W        W16826   8.214  15.129   2.695 -0.1108 -0.0863  0.3270
 1696W        W16827   4.858  10.691   3.710 -0.1877  0.2498  0.1499
 1697W        W16828  12.614  16.536   3.076 -0.1476  0.0692 -0.0795
 1698W        W16829   0.095  12.852   0.815 -0.0731 -0.2173 -0.0072
 1699W        W16830   4.728   2.208   6.170 -0.3442  0.3218  0.0603
 1700W        W16831   3.409   4.599  15.508  0.0257 -0.0690  0.1019
 1701W        W16832  10.935   1.998  10.366 -0.3563  0.3825 -0.1928
 1702W        W16833  14.667   1.690  12.746 -0.0815 -0.0080 -0.1539
 1703W        W16834   9.354   3.439  13.882 -0.2986 -0.1443 -0.0625
 1704W        W16835   3.386  14.926  12.901  0.0813 -0.0187 -0.0300
 1705W        W16836   4.339  14.642   3.572 -0.0599  0.0913  0.0229
 1706W        W16837   8.959   9.593  12.271 -0.0896  0.1297  0.1869
 1707W        W16838   1.420  16.416  14.085 -0.1235  0.2823 -0.3623
 1708W        W16839   2.693   0.275   5.269  0.1073  0.1044  0.1866
 1709W        W16840   6.516   9.100  16.730 -0.1860  0.1060 -0.2478
 1710W        W16841   6.661  13.484  13.987  0.2489  0.0746 -0.0002
 1711W        W16842  14.145  12.068  13.631  0.0043  0.2775 -0.2922
 1712W        W16843   9.346   7.263  15.124  0.2217  0.0635  0.0612
 1713W        W16844   5.346  10.400   4.478 -0.1952 -0.1902 -0.2007
 1714W        W16845   4.186  12.620   5.864  0.0371 -0.0547  0.1833
 1715W        W16846   4.406  14.566  13.278 -0.3698 -0.1834  0.0481
 1716W        W16847   9.107   2.763   4.611 -0.4489  0.0995  0.2224
 1717W        W16848   2.041   1.677  14.078 -0.1686 -0.3124  0.1792
 1718W        W16849   8.949  11.179   5.227  0.0827 -0.0110 -0.0138
 1719W        W16850  12.530  16.362  13.086 -0.1812  0.1481  0.2232
 1720W        W16851  12.950   9.515  11.741 -0.0464 -0.0039 -0.1018
 1721W        W16852   6.745   2.797   2.447  0.0982  0.2338 -0.1892
 1722W        W16853  14.235  11.928  11.790  0.3544 -0.0176 -0.1571
 1723W        W16854   3.022   2.245   1.435  0.1289  0.1145 -0.1382
 1724W        W16855  14.126  11.560  16.184 -0.2304  0.0088 -0.0202
 1725W        W16856  15.779   0.711   5.080  0.0320  0.1352  0.2398
 1726W        W16857   9.818   6.778  13.786 -0.0080 -0.0975  0.3347
 1727W        W16858   3.822   6.309  10.840 -0.0739 -0.1079 -0.2034
 1728W        W16859   5.144   5.412   2.890 -0.1142  0.0406  0.1015
 1729W        W16860  11.219  16.734   4.431 -0.0071 -0.2791  0.0092
 1730W        W16861  16.758  13.696   5.980  0.1187  0.1836 -0.1811
 1731W        W16862   5.994  14.825   2.984  0.3266 -0.1361  0.0861
 1732W        W16863  10.651  17.440  16.893  0.1762 -0.0639  0.2393
 1733W        W16864   0.631  10.048  12.371  0.2795 -0.0134  0.5766
 1734W        W16865  13.625   9.509  12.961 -0.0284  0.0167  0.3729
 1735W        W16866  11.322   9.982   4.733 -0.1853  0.0774 -0.0076
 1736W        W16867  15.698   4.263   0.932  0.1458 -0.2983 -0.1488
 1737W        W16868   3.466   0.261   6.114  0.1538  0.0344 -0.1800
 1738W        W16869   5.986   4.629  15.671  0.1140  0.0891  0.1514
 1739W        W16870   7.100   5.053   3.460 -0.1891  0.1644  0.0717
 1740W        W16871  16.756   1.499  14.714 -0.1215  0.0845 -0.0342
 1741W        W16872   5.817   7.468   2.953  0.0037 -0.1326 -0.0767
 1742W        W16873  13.509  11.054  11.605 -0.0849  0.2587  0.0806
 1743W        W16874  14.640   1.840  15.729  0.1982  0.0044 -0.3142
 1744W        W16875  13.946  17.153   3.297  0.0959 -0.0916 -0.0400
 1745W        W16876   9.718  16.077   4.866 -0.0125 -0.2110  0.3516
 1746W        W16877   3.667   8.321  14.621  0.0948 -0.0170 -0.0489
 1747W        W16878   2.455   2.847  16.795  0.0005 -0.1684 -0.1512
 1748W        W16879   2.916   5.253   0.885  0.1190  0.2155  0.0339
 1749W        W16880   3.609   9.030   2.371  0.0722  0.1534 -0.0910
 1750W        W16881   1.450   7.064  13.444  0.3240  0.2676 -0.0599
 1751W        W16882   7.598   1.185  16.540  0.0607 -0.4311  0.1598
 1752W        W16883   6.469   5.790   2.985 -0.2336 -0.1249  0.0636
 1753W        W16884  12.829   1.482   6.822 -0.2630  0.1516 -0.1959
 1754W        W16885  14.681  10.784   2.626 -0.1087  0.0466 -0.0688
 1755W        W16886  12.154   6.925   4.686  0.1492  0.1898 -0.2282
 1756W        W16887   9.597   3.705   5.270 -0.0242  0.1780 -0.0896
 1757W        W16888  14.984   8.672  14.375 -0.0108  0.3030  0.1762
 1758W        W16889   8.417  10.895   2.276  0.0133 -0.0536 -0.0962
 1759W        W16890   4.397   2.233  11.707  0.0696  0.0018 -0.0842
 1760W        W16891  15.077   8.084   4.434  0.1354 -0.1579 -0.2294
 1761W        W16892   7.273   1.269   4.829  0.1149  0.1387 -0.1866
 1762W        W16893   6.133   3.568  15.792 -0.0447 -0.0862  0.0168
 1763W        W16894   3.940   3.092  14.818 -0.1425  0.0781  0.0303
 1764W        W16895   6.831   6.772   3.234 -0.0105  0.0371 -0.3290
 1765W        W16896   2.697   8.110  14.178 -0.1565  0.1810  0.4229
 1766W        W16897   2.952  15.699  16.111  0.0373  0.0064  0.1300
 1767W        W16898   3.947  12.797  14.604 -0.3754  0.1089  0.1141
 1768W        W16899  14.496  12.966   0.381  0.2111  0.2732 -0.3242
 1769W        W16900   1.567  12.295   2.376  0.2191  0.0084  0.1967
 1770W        W16901  15.458   4.815   5.388  0.0365 -0.0722 -0.1054
 1771W        W16902  11.366  10.320  11.466 -0.3646 -0.0536 -0.1353
 1772W        W16903   9.425  14.645   1.865 -0.1378 -0.2361 -0.0610
 1773W        W16904  10.079  17.045   1.051 -0.2483 -0.0746 -0.0778
 1774W        W16905   1.755   5.288  12.832  0.1640  0.3537  0.0982
 1775W        W16906  11.097   1.241  12.136  0.0580  0.2748 -0.1749
 1776W        W16907   0.433   8.222  12.872  0.0146 -0.1251  0.1661
 1777W        W16908   6.193  17.324   5.910  0.0105 -0.2266 -0.3308
 1778W        W16909   1.491  17.522   3.454 -0.1675 -0.0786 -0.1036
 1779W        W16910   6.331  14.681  12.913 -0.0557  0.0384 -0.1468
 1780W        W16911   8.465   7.482   3.850  0.0486 -0.0890 -0.0704
 1781W        W16912   4.262   4.416   0.808  0.0253 -0.0504 -0.1131
 1782W        W16913  10.784   8.353  12.163  0.1586  0.0882  0.2768
 1783W        W16914   7.625  13.978  15.635 -0.3158  0.3333 -0.0015
 1784W        W16915   3.568   5.490  15.553 -0.0080 -0.1016  0.1436
 1785W        W16916   0.893   6.625  10.514 -0.1363  0.1502 -0.3389
 1786W        W16917   8.114   1.177   3.724  0.4006 -0.1187 -0.0822
 1787W        W16918  12.752  10.575  15.625  0.1401  0.3884  0.3427
 1788W        W16919   4.185  15.877   3.824  0.1005 -0.4034  0.1497
 1789W        W16920   2.250   4.944   4.326 -0.0948 -0.2493 -0.1406
 1790W        W16921  10.923   1.238   2.449  0.1383  0.1005 -0.0729
 1791W        W16922   3.879   5.975   2.703  0.0275  0.0745  0.3198
 1792W        W16923  14.440   1.381  10.781  0.2148  0.2525  0.1837
 1793W        W16924   0.739   3.435   1.613  0.0374  0.0478 -0.0728
 1794W        W16925  10.743  12.240  13.111  0.1391 -0.3294 -0.0532
 1795W        W16926   7.342   4.418  11.969 -0.0661 -0.0320  0.2103
 1796W        W16927  11.197   2.324   2.302  0.0154  0.0871  0.3666
 1797W        W16928  12.895  13.902  12.658  0.4739  0.0357 -0.0107
 1798W        W16929   5.558   0.270  11.182  0.1673  0.0727  0.1408
 1799W        W16930  17.613   2.440  12.954 -0.3582 -0.2802 -0.4089
 1800W        W16931   8.923   9.808   1.618 -0.3094 -0.0766  0.0958
 1801W        W16932   9.317   9.647   2.411 -0.1226 -0.0314 -0.0048
 1802W        W16933   2.041   3.208   0.862  0.3026  0.1763  0.1625
 1803W        W16934   5.624  16.773   4.539 -0.0617  0.0588  0.1785
 1804W        W16935  15.047   3.784  16.367  0.1357 -0.3316 -0.0817
 1805W        W16936   2.804   5.326  12.990 -0.0603  0.0351  0.0315
 1806W        W16937   1.703  14.768   5.370 -0.0400  0.1341  0.0790
 1807W        W16938  11.109   6.560   1.476  0.0439  0.3610  0.3314
 1808W        W16939   5.536   6.764  16.862 -0.2600 -0.1335  0.3771
 1809W        W16940   8.965  12.280  11.794  0.2301 -0.1472  0.2471
 1810W        W16941  15.876  13.228  12.881  0.2481  0.1715 -0.3134
 1811W        W16942   8.951   4.128  16.583  0.0402  0.2982 -0.1586
 1812W        W16943  15.344  14.720   3.521  0.2850 -0.0751  0.0365
 1813W        W16944  14.419   9.112  15.993 -0.0471  0.4314 -0.0860
 1814W        W16945   5.424   2.390   2.514 -0.1293  0.0118  0.1111
 1815W        W16946  13.877  11.504  11.662  0.1866  0.0365  0.1161
 1816W        W16947  14.047   0.711  13.763 -0.0563  0.1075 -0.1943
 1817W        W16948   5.476   8.126  15.511 -0.1411 -0.0018 -0.0807
 1818W        W16949  15.519  12.449  14.121 -0.0734 -0.0355  0.1569
 1819W        W16950  15.884  13.887  12.476  0.0615 -0.0767 -0.1752
 1820W        W16951   3.082  14.236   5.576 -0.1619 -0.0406  0.0220
 1821W        W16952   5.053   2.161   2.203  0.0938 -0.1368 -0.1681
 1822W        W16953  15.968  10.781  12.427 -0.0778  0.5145 -0.1772
 1823W        W16954  11.068  13.429   3.154  0.0697 -0.2641  0.0300
 1824W        W16955  10.297  13.714  15.982 -0.1543 -0.0061  0.1333
 1825W        W16956   8.794  11.965  13.494  0.0147  0.2483 -0.1314
 1826W        W16957   5.612   3.028  15.683  0.3259 -0.0097 -0.2148
 1827W        W16958  16.853   7.673  16.937  0.0806  0.3860  0.1588
 1828W        W16959  14.241  17.305  15.862  0.2972 -0.4483  0.1390
 1829W        W16960   8.973  14.424  16.051  0.1417 -0.2235 -0.0499
 1830W        W16961   1.210   1.159  16.614  0.1493  0.3960  0.1148
 1831W        W16962   2.856   7.766   4.830 -0.4425  0.0267 -0.0420
 1832W        W16963   2.152  17.538  16.254  0.0359 -0.0247  0.2475
 1833W        W16964   1.402   4.977  16.714  0.1656 -0.0338  0.0093
 1834W        W16965  12.231  16.567   1.488 -0.0276 -0.2121 -0.1226
 1835W        W16966  12.132  12.905  12.366  0.0956  0.2449  0.0580
 1836W        W16967   6.635   7.317   5.214  0.0147 -0.0046  0.1141
 1837W        W16968  10.369  15.211   6.042  0.2265 -0.0107 -0.2079
 1838W        W16969   8.847  16.664   6.794 -0.1253  0.2715  0.1862
 1839W        W16970   4.627  17.641   0.220  0.1503 -0.1452 -0.0480
 1840W        W16971   7.762  16.729   1.759 -0.1343 -0.1065  0.1095
 1841W        W16972  13.324   7.184   2.401  0.1351  0.2492  0.2335
 1842W        W16973   9.201   0.738   5.462  0.1427  0.1999  0.0941
 1843W        W16974   3.600   4.767   3.607 -0.1463 -0.0274  0.3648
 1844W        W16975   7.185   4.818   2.456 -0.1048  0.1686 -0.2695
 1845W        W16976   7.509   5.881  13.016  0.0630  0.3577 -0.2168
 1846W        W16977  11.837  10.973   5.587 -0.0431  0.0455  0.0658
 1847W        W16978  15.592   3.193   1.696  0.1501  0.3687 -0.1439
 1848W        W16979  14.536  14.344   3.615 -0.0734 -0.0173 -0.1069
 1849W        W16980   7.197   2.995  15.053 -0.0743 -0.1782  0.2171
 1850W        W16981  13.005  12.890  16.051  0.1064 -0.0192  0.3356
 1851W        W16982   4.308  12.943   0.599  0.0529 -0.1282  0.1642
 1852W        W16983   8.745  17.373   3.999  0.0751  0.0099 -0.0633
 1853W        W16984   2.219   6.484   3.901 -0.0158  0.2594  0.0683
 1854W        W16985  14.920  17.452   3.240 -0.0776 -0.3357  0.1882
 1855W        W16986   5.962   7.240  16.477  0.0112  0.1373 -0.1587
 1856W        W16987   1.095  16.588   5.078  0.0284 -0.3996 -0.3009
 1857W        W16988  14.729  16.769  13.830  0.2874 -0.2990 -0.0284
 1858W        W16989  16.010   2.134  14.710  0.1000  0.1258  0.0169
 1859W        W16990   8.565   5.525   2.141  0.1335 -0.2424  0.2256
 1860W        W16991  10.817  12.987  14.191 -0.1581 -0.0561 -0.3165
 1861W        W16992  15.894   4.820   4.733 -0.1827  0.0585 -0.1892
 1862W        W16993   1.262  12.028   1.548  0.0061 -0.1640  0.1998
 1863W        W16994  10.292   2.982   0.564 -0.2494  0.0549 -0.3266
 1864W        W16995  15.271  15.650  15.830  0.1691 -0.0238 -0.1462
 1865W        W16996   8.179   0.435   4.266  0.1697  0.1744  0.0618
 1866W        W16997   4.274  14.922   4.091  0.3092  0.0144  0.2823
 1867W        W16998   8.051   6.768  13.609  0.0960  0.0328 -0.0268
 1868W        W16999  11.334   9.375   5.984 -0.0586 -0.0378  0.2680
 1869W        W17000   9.662   3.566   2.604  0.0454 -0.0538 -0.0977
 1870W        W17001  13.170   0.495  13.680 -0.0357 -0.0569  0.0877
 1871W        W17002   8.963   2.958  11.640  0.1014 -0.3064 -0.0165
 1872W        W17003  17.388  16.810  11.352  0.1726 -0.1003 -0.0821
 1873W        W17004  10.224   8.856  11.994  0.0509 -0.1140 -0.0803
 1874W        W17005   9.087   7.471   0.576 -0.1523  0.0355  0.0741
 1875W        W17006  15.742  17.677  14.777  0.1511 -0.0775  0.2920
 1876W        W17007  12.377   7.236   5.109  0.0878  0.0978 -0.1143
 1877W        W17008  14.964   1.322   5.145  0.0946  0.2238  0.2001
 1878W        W17009  12.411  13.241   0.082  0.0443  0.0168  0.0579
 1879W        W17010   4.541   0.955  12.675  0.0121  0.2182  0.0528
 1880W        W17011  11.789  17.168   2.315 -0.2953 -0.0694 -0.1315
 1881W        W17012  16.065  10.962   5.713  0.0292  0.2514  0.1151
 1882W        W17013   5.133   7.372   1.971 -0.2785  0.1051 -0.1671
 1883W        W17014   8.394  17.516   5.640  0.0194  0.1021 -0.0867
 1884W        W17015  10.612   9.457   3.990  0.1621 -0.2365  0.4125
 1885W        W17016   3.122   4.058  12.306 -0.2147  0.0288 -0.1210
 1886W        W17017   9.942   9.843  14.191  0.4069 -0.1944 -0.0709
 1887W        W17018   0.894   6.691  15.599 -0.1542 -0.5564  0.1338
 1888W        W17019   1.454  11.375  16.304 -0.0405 -0.0234  0.0236
 1889W        W17020  10.132  13.781   1.072 -0.1803  0.0122  0.1743
 1890W        W17021   1.296  17.529  16.867 -0.2656  0.0904 -0.2578
 1891W        W17022   6.666   1.218   4.415 -0.1120  0.2407 -0.2271
 1892W        W17023  10.782   3.103   5.064 -0.1414  0.0699 -0.1007
 1893W        W17024   9.636  16.472   3.894 -0.0464 -0.1148  0.0786
 1894W        W17025  10.805   4.058  11.235  0.2063  0.5953 -0.2338
 1895W        W17026  17.161   5.891  12.468 -0.0137  0.1460  0.2858
 1896W        W17027   4.992   3.600  15.966  0.0851  0.0059 -0.0720
 1897W        W17028  16.413  15.534   1.587  0.0767 -0.0353  0.0930
 1898W        W17029   5.128   4.351  11.228  0.1337  0.2188 -0.2383
 1899W        W17030  11.034   2.941  11.450  0.0345  0.0420  0.2370
 1900W        W17031   0.592   5.507  14.706 -0.1077  0.1284 -0.0244
 1901W        W17032  16.907   2.421   0.774 -0.1931  0.0524  0.0393
 1902W        W17033   8.056  15.381  15.574 -0.0281 -0.0162 -0.1346
 1903W        W17034  16.130   8.627   2.983  0.0519 -0.0333 -0.2411
 1904W        W17035  16.154   9.056  11.229  0.0438 -0.0723 -0.3215
 1905W        W17036  15.987  14.504  13.793 -0.1131  0.1682 -0.2689
 1906W        W17037  16.103   2.317   0.414  0.1562  0.0206 -0.2726
 1907W        W17038   9.935  11.213  11.776 -0.2473  0.0980 -0.1399
 1908W        W17039   9.661  15.015   6.465 -0.1764  0.1661 -0.3783
 1909W        W17040   7.290   3.423  15.424 -0.0060  0.0553  0.1269
 1910W        W17041   3.235   9.197   4.003  0.0579  0.3171 -0.0732
 1911W        W17042   8.090  10.700  12.217  0.4253  0.1482  0.1146
 1912W        W17043   7.061  17.390   5.723  0.3254  0.2886  0.0821
 1913W        W17044  13.562   6.385   0.480  0.2698 -0.0376  0.2876
 1914W        W17045   2.372  14.377  15.968  0.1948  0.1980  0.1601
 1915W        W17046  10.272  11.406   2.380 -0.2479  0.1891  0.0025
 1916W        W17047  11.337   9.112  13.350  0.1635  0.1015  0.1033
 1917W        W17048   8.335  13.060  13.129  0.1220  0.0991  0.1512
 1918W        W17049  11.476   7.007   2.532 -0.1817  0.1659 -0.3370
 1919W        W17050   0.638   1.893  11.760 -0.2534 -0.0278 -0.2551
 1920W        W17051  14.237  10.742  12.412  0.1518  0.1530  0.3346
 1921W        W17052   9.759  15.746  15.354  0.1892 -0.1076  0.2566
 1922W        W17053   7.713  16.451   2.657  0.1590  0.0460 -0.0467
 1923W        W17054  16.294  13.087  12.282  0.0382 -0.1428  0.3850
 1924W        W17055  16.388   6.198   0.391 -0.2539 -0.2609  0.1586
 1925W        W17056  13.778   5.255  14.710  0.0657  0.1219  0.1978
 1926W        W17057   3.277   8.762  12.052  0.1600  0.0108  0.0667
 1927W        W17058  15.648  12.336  16.655 -0.0759 -0.2165  0.0576
 1928W        W17059  15.411   0.961  15.241 -0.1517  0.1393  0.1701
 1929W        W17060   7.730  12.906   4.830  0.2118 -0.0665 -0.0583
 1930W        W17061  16.822  14.114   0.979 -0.0387 -0.0068 -0.2530
 1931W        W17062   5.234   2.686  12.117  0.0030  0.3065 -0.1705
 1932W        W17063   2.317  13.981  14.149  0.2339  0.0754  0.2777
 1933W        W17064   3.108   9.447  14.819  0.0818 -0.1431 -0.1431
 1934W        W17065  14.978   5.325  13.961  0.0794  0.0899 -0.1160
 1935W        W17066   7.313   0.388   1.634  0.0570  0.3246 -0.0445
 1936W        W17067   0.154   0.918   2.115 -0.1232  0.2377  0.1368
 1937W        W17068   8.312   9.522   1.496  0.1870 -0.2149 -0.0742
 1938W        W17069   0.406   6.202   3.742 -0.0910 -0.1270 -0.0381
 1939W        W17070  14.346   7.466  16.553  0.1901  0.1939 -0.0007
 1940W        W17071   7.877   5.431  13.051 -0.1618  0.1628 -0.1879
 1941W        W17072   1.197   9.213   3.241 -0.0936  0.1426  0.2089
 1942W        W17073  14.865  12.514  11.505  0.5017 -0.0030 -0.1519
 1943W        W17074  14.385  11.992   3.664 -0.1244  0.0243  0.0686
 1944W        W17075  11.040  16.032  14.231 -0.0949  0.0770  0.0238
 1945W        W17076  16.738   7.926  13.848 -0.1697  0.2182  0.0777
 1946W        W17077  13.903  12.267   3.015 -0.1740  0.0565  0.1351
 1947W        W17078  13.125   0.663  16.903 -0.0601 -0.2300  0.0308
 1948W        W17079  15.814   5.755   2.365  0.0082 -0.3707 -0.1960
 1949W        W17080   4.164   3.079  14.353 -0.1013 -0.1587 -0.1238
 1950W        W17081   9.042  15.788  14.086  0.0153  0.1418 -0.1383
 1951W        W17082  14.637  10.830   1.745 -0.1812 -0.2022  0.0052
 1952W        W17083   1.927   8.978   5.848 -0.2206  0.3229  0.2838
 1953W        W17084   0.575   8.143   1.357  0.2855 -0.0179  0.0816
 1954W        W17085   0.640  11.589   3.947  0.1190 -0.1661  0.1747
 1955W        W17086   1.449  10.875  16.008 -0.3205  0.2299  0.1147
 1956W        W17087   3.339   9.595   5.736 -0.1548 -0.4821  0.0244
 1957W        W17088   4.430   3.849  12.983 -0.1644 -0.1448  0.3106
 1958W        W17089   4.968   2.960  11.769 -0.3066  0.1572  0.1286
 1959W        W17090  14.607   3.158  16.848  0.0631  0.0503 -0.0859
 1960W        W17091   1.402  17.647  14.786 -0.1091  0.0089 -0.1802
 1961W        W17092   3.918  14.052   1.474  0.0214  0.0109 -0.4361
 1962W        W17093   8.274  10.543   0.347  0.2395 -0.3240 -0.4269
 1963W        W17094   0.411   1.352   0.852 -0.3094  0.0286 -0.1884
 1964W        W17095   5.251   7.175   3.770 -0.3466 -0.2964  0.0369
 1965W        W17096   3.237   1.617  14.402 -0.1281 -0.1738  0.1781
 1966W        W17097   5.658   9.974  16.514  0.1046  0.0999  0.3368
 1967W        W17098   9.475   3.673   6.078 -0.0029 -0.4681  0.1714
 1968W        W17099   9.104   6.777  10.942  0.0162  0.0545  0.0121
 1969W        W17100   4.467  11.277   1.495 -0.0552  0.0345 -0.1643
 1970W        W17101  11.852  16.448  14.205 -0.1148 -0.2719  0.1889
 1971W        W17102  10.493  16.637  15.076  0.1974  0.2219 -0.0398
 1972W        W17103   7.260  12.822   3.172 -0.0724  0.1325  0.2251
 1973W        W17104   3.949   7.684  11.707  0.0285 -0.0860  0.1234
 1974W        W17105  13.600  17.507   2.314 -0.1318  0.1074  0.1710
 1975W        W17106  16.788   0.363   2.165 -0.0467  0.1955 -0.1173
 1976W        W17107   1.455   6.148   4.244 -0.1376  0.0144 -0.0248
 1977W        W17108   3.184   8.479  15.315 -0.0401 -0.1305  0.1055
 1978W        W17109   8.164  11.733  16.410 -0.0881 -0.2588  0.1191
 1979W        W17110   8.121   0.126   1.698 -0.2657  0.0387  0.0763
 1980W        W17111  14.006  17.122  14.336 -0.0466  0.1839 -0.2663
 1981W        W17112   4.205  11.582   1.993 -0.0551  0.2903 -0.2922
 1982W        W17113  15.698  14.972   0.406 -0.0804  0.0634  0.1520
 1983W        W17114   3.604  11.382   2.526  0.1274  0.1726  0.0283
 1984W        W17115  10.791  12.055  16.336  0.2736  0.1711  0.0132
 1985W        W17116   5.813  15.372   0.996  0.2012  0.2178  0.1147
 1986W        W17117   6.201   2.761  12.758 -0.1387  0.0496  0.0829
 1987W        W17118   0.625  13.526   4.479  0.1374  0.3543 -0.0580
 1988W        W17119  14.736  11.434  15.290  0.0726 -0.0445 -0.3021
 1989W        W17120   3.920   1.714  11.630 -0.0148 -0.1295  0.0982
 1990W        W17121  14.806  16.142  15.143  0.3835 -0.0193  0.2156
 1991W        W17122  13.444   7.868   0.889  0.0147 -0.0490 -0.2205
 1992W        W17123  11.508  14.461   0.194  0.1672  0.0715 -0.1006
 1993W        W17124   1.677  15.956  12.658 -0.0063  0.1202  0.1718
 1994W        W17125  11.369   4.283  10.620 -0.3548 -0.1196  0.0913
 1995W        W17126   2.621  10.244   3.522  0.0627 -0.0060  0.0373
 1996W        W17127   6.702   2.164   4.512 -0.0289 -0.1262  0.0382
 1997W        W17128   0.689   5.570   5.336 -0.3217 -0.1799  0.0383
 1998W        W17129  14.158   4.303   4.102 -0.1470 -0.1155 -0.0557
 1999W        W17130  15.391  13.029   4.653 -0.1062 -0.0646 -0.0011
 2000W        W17131  16.959  13.318  15.311  0.2181  0.0329 -0.2675
 2001W        W17132  13.139  10.933  15.475 -0.0107  0.2702  0.1138
 2002W        W17133   0.930   1.705   0.620  0.1175 -0.0773  0.0502
 2003W        W17134  11.292   6.308   2.091  0.0308 -0.0054 -0.0029
 2004W        W17135  10.386  14.629   4.953 -0.0672  0.2649  0.1487
 2005W        W17136  17.103   2.284  12.087  0.0732 -0.1752 -0.0141
 2006W        W17137  17.346   2.393   0.548 -0.0076  0.0782  0.3030
 2007W        W17138  14.204  11.401   2.965  0.0655 -0.2991  0.1642
 2008W        W17139  15.197   3.319   2.628 -0.4142 -0.1156 -0.0643
 2009W        W17140  14.992  14.509   5.033 -0.0908 -0.2968 -0.1506
 2010W        W17141  11.919   5.805  12.814 -0.3749  0.0734 -0.1716
 2011W        W17142  12.265   9.652  13.631  0.0270  0.0317 -0.3029
 2012W        W17143   5.700   3.110  11.104  0.2170 -0.3666 -0.0689
 2013W        W17144  15.252  17.421  14.735 -0.1036 -0.0728 -0.3222
 2014W        W17145   3.541   5.963  12.528  0.2639 -0.2279  0.0293
 2015W        W17146   7.204  14.940  15.686  0.2715 -0.1611  0.1067
 2016W        W17147  14.314  10.701  11.760  0.1166  0.2371 -0.2847
 2017W        W17148   2.197   4.632   1.762  0.0441 -0.0663  0.0885
 2018W        W17149  17.161   3.964  11.834 -0.3918  0.0084 -0.1321
 2019W        W17150   7.495  13.625   1.693  0.0583 -0.0768 -0.0212
 2020W        W17151  11.977  17.178   5.969  0.3565 -0.2795  0.1211
 2021W        W17152   0.172  12.169  16.438  0.0758  0.0003  0.0324
 2022W        W17153   8.413  17.174   5.231  0.1420  0.1620  0.1038
 2023W        W17154   7.661  13.958   3.712  0.0436  0.0253 -0.1203
 2024W        W17155   6.333  11.452  16.910 -0.0456 -0.1286  0.2042
 2025W        W17156  13.290   0.734   3.127  0.0170  0.0755  0.1767
 2026W        W17157  12.874   0.414   2.274 -0.1392  0.1905  0.4192
 2027W        W17158  14.010   4.355  11.925 -0.1544 -0.1178 -0.1656
 2028W        W17159  12.437   2.740   1.415  0.0602  0.0716  0.3573
 2029W        W17160   6.381  17.118   3.439 -0.2336 -0.0553 -0.0031
 2030W        W17161   3.869  16.703  15.943  0.1810  0.0933 -0.0365
 2031W        W17162  15.251  11.348  13.057  0.3519 -0.1299 -0.0636
 2032W        W17163  11.942   8.237  14.969  0.1772 -0.1676  0.2652
 2033W        W17164   4.573   0.403  15.333  0.0270 -0.1280  0.0221
 2034W        W17165  10.883   6.118   1.725  0.0521  0.0012 -0.2086
 2035W        W17166   1.120  12.883   0.592  0.0335  0.0262 -0.3896
 2036W        W17167  16.750   5.456   3.988 -0.1619  0.0684  0.0517
 2037W        W17168  17.688   3.034  14.771 -0.1714  0.0099  0.3991
 2038W        W17169   0.013  12.283   1.590  0.2296 -0.0582  0.2866
 2039W        W17170   7.911  15.880  15.232  0.1806 -0.1753  0.3163
 2040W        W17171   4.650   5.836   4.104  0.0752  0.3900 -0.0698
 2041W        W17172   5.517   4.070   5.415 -0.0519 -0.1485  0.2293
 2042W        W17173  12.498  11.067   5.098 -0.0716 -0.2383 -0.0754
 2043W        W17174  15.365  10.867  13.120 -0.1378  0.1516 -0.1302
 2044W        W17175   9.713   3.151  12.292 -0.0964  0.2519  0.3019
 2045W        W17176   6.342  15.674  11.806 -0.2908 -0.2172  0.2020
 2046W        W17177   0.987   5.712  16.748  0.1345 -0.2445  0.0120
 2047W        W17178   4.833   5.670   5.117 -0.0031 -0.0484  0.1228
 2048W        W17179   1.771   7.965   0.297  0.0006 -0.3022  0.2521
 2049W        W17180  15.047   2.922   2.892  0.0760  0.1408  0.1470
 2050W        W17181  12.586  17.586  11.449 -0.1478 -0.0023 -0.1297
 2051W        W17182  15.762   8.771   0.078  0.0852  0.4132 -0.1411
 2052W        W17183   2.526   1.336  16.365 -0.2286 -0.2134 -0.0131
 2053W        W17184   1.883   3.221  12.466  0.1535  0.1962  0.1578
 2054W        W17185  16.758  15.852   0.390  0.1747  0.2455  0.1185
 2055W        W17186  12.837  11.887   0.581  0.0201 -0.1469  0.0653
 2056W        W17187   3.846   1.884   6.258  0.3938 -0.1827  0.0687
 2057W        W17188   6.407  16.168  10.922  0.2017  0.1388 -0.1076
 2058W        W17189   4.443   8.126   0.600  0.2361 -0.2249  0.2586
 2059W        W17190   1.817  13.879   1.304 -0.0290  0.0294  0.0814
 2060W        W17191  11.335   4.021   4.579  0.1416  0.1464 -0.0225
 2061W        W17192   8.712  16.590  11.698  0.1137  0.0173  0.4041
 2062W        W17193   2.004   2.274   5.282 -0.1107 -0.1430 -0.0392
 2063W        W17194  15.128   3.036  14.047 -0.0031  0.0108 -0.0196
 2064W        W17195  12.836   5.158   2.546  0.1041 -0.1508 -0.0047
 2065W        W17196   3.916   3.910   3.769  0.2895 -0.1012 -0.1533
 2066W        W17197  12.841   2.866  13.550  0.0936  0.0482 -0.0780
 2067W        W17198   4.333   2.331  16.859  0.1577  0.2687 -0.0491
 2068W        W17199   9.007   0.348   4.219 -0.0278  0.2209 -0.0082
 2069W        W17200  12.391  10.539   1.380  0.1606 -0.0241 -0.1304
 2070W        W17201  12.516   0.710   1.888  0.3749 -0.0688  0.2605
 2071W        W17202   6.325  13.737  13.241  0.0553 -0.0614  0.1827
 2072W        W17203  13.312   8.284  14.868 -0.1395 -0.0827  0.0561
 2073W        W17204   5.021   2.640   5.470 -0.1253 -0.1436  0.1808
 2074W        W17205  10.300  12.744   2.283  0.2564 -0.1475  0.0644
 2075W        W17206  16.565   5.019  11.568  0.0057  0.0177 -0.3471
 2076W        W17207  10.281   5.871   3.011  0.2860  0.1749  0.0094
 2077W        W17208  10.354   2.207  16.217  0.0668 -0.0983 -0.4433
 2078W        W17209  16.415  15.413   2.739  0.0788  0.1442  0.3855
 2079W        W17210  14.335   6.609  11.324  0.0698  0.0189  0.1047
 2080W        W17211  16.814  10.468   5.621 -0.2329  0.4261 -0.1364
 2081W        W17212   5.392   9.058  15.032 -0.0511  0.0753  0.1979
 2082W        W17213   0.874  11.767   1.327 -0.2197  0.1562 -0.0639
 2083W        W17214  14.938  13.226   3.631  0.0391 -0.0502 -0.1705
 2084W        W17215   9.330  10.873  14.901 -0.1448  0.0956  0.1371
 2085W        W17216   8.539   3.181  13.793 -0.1066 -0.0359 -0.0652
 2086W        W17217  17.320   6.560   4.191  0.0046 -0.1510  0.0496
 2087W        W17218   3.073  16.455   0.578  0.0152 -0.0823  0.1297
 2088W        W17219   0.080   0.148   5.475 -0.0286 -0.1537  0.0613
 2089W        W17220   9.434   5.988  13.398 -0.0861  0.2121  0.0293
 2090W        W17221   7.083   8.802   1.153  0.3330  0.1203 -0.0032
 2091W        W17222  15.350   0.042   2.131 -0.0598 -0.1453 -0.0547
 2092W        W17223   0.457  13.948  13.121  0.1496  0.1722 -0.1801
 2093W        W17224  11.248   2.423  11.862 -0.4707  0.1559 -0.1130
 2094W        W17225  13.680   6.052   2.186  0.1956 -0.0565  0.1291
 2095W        W17226  16.347  12.694  15.555  0.1408 -0.0554  0.1704
 2096W        W17227   6.299   3.227  16.747 -0.0944  0.1553 -0.2225
 2097W        W17228  17.515  15.034  12.978 -0.2581 -0.0067  0.1649
 2098W        W17229   6.968   9.599   5.791 -0.1595 -0.1358  0.0590
 2099W        W17230  11.757   0.047   0.618  0.0907  0.1986  0.0564
 2100W        W17231   8.182   5.028  13.017 -0.1030 -0.3026 -0.4476
 2101W        W17232   9.780  10.752   2.710  0.0920  0.0317  0.4053
 2102W        W17233  17.146  10.513  13.082  0.4409  0.0636  0.0673
 2103W        W17234  16.549  10.958   4.865 -0.0188 -0.1238  0.2898
 2104W        W17235   2.648  10.250   6.594  0.2548  0.0950  0.2922
 2105W        W17236  11.647   8.610  13.827  0.0945 -0.2625  0.1839
 2106W        W17237  10.633   7.372   2.421  0.1534 -0.0694 -0.1546
 2107W        W17238  13.742   4.228  14.617 -0.0447 -0.0813  0.1971
 2108W        W17239   2.162   9.122  12.274  0.1552 -0.2006  0.3741
 2109W        W17240  11.894   2.671  15.856 -0.1303  0.0819  0.3549
 2110W        W17241  14.089   9.453   0.912 -0.1255  0.2681 -0.3333
 2111W        W17242   5.487  10.859  14.400  0.0226 -0.1769 -0.0311
 2112W        W17243   9.794   4.502   0.533  0.0115 -0.0777 -0.1645
 2113W        W17244   4.908   2.328   0.557  0.1837 -0.0282  0.2102
 2114W        W17245  10.454   1.268  13.107 -0.3106  0.2042  0.3861
 2115W        W17246  17.306   8.833  15.574  0.2774  0.1664  0.1967
 2116W        W17247   8.197   1.781  14.314  0.0842  0.0330 -0.1491
 2117W        W17248   0.713  15.179   0.165  0.2539 -0.1613 -0.0263
 2118W        W17249  13.737  13.645  14.841 -0.1319 -0.1475  0.0150
 2119W        W17250  14.786   2.757  14.239 -0.2940 -0.0081  0.1212
 2120W        W17251   2.040   9.019   5.388  0.0797  0.1608  0.1490
 2121W        W17252  12.689  12.865   3.096 -0.1673 -0.3299 -0.1817
 2122W        W17253  12.568  17.294  12.720 -0.0607  0.1790 -0.0839
 2123W        W17254  12.663   7.607   4.861  0.2834 -0.1189  0.1176
 2124W        W17255  11.466   8.820   3.657 -0.0534 -0.0592 -0.0198
 2125W        W17256  12.320  12.488   3.088 -0.0601 -0.0856  0.1425
 2126W        W17257   5.509  10.634   2.941  0.0111  0.0948 -0.3813
 2127W        W17258   9.414  16.039   4.127  0.0074 -0.0906 -0.0109
 2128W        W17259   4.820  16.296   2.384 -0.0744 -0.0545 -0.1806
 2129W        W17260  16.531   4.999   4.104  0.1966 -0.0908 -0.0692
 2130W        W17261   7.034   1.949   3.520 -0.1729 -0.1906  0.0240
 2131W        W17262  10.341   5.269   0.693 -0.2804 -0.2872 -0.1133
 2132W        W17263   1.127  14.130  14.877 -0.0990  0.0309  0.2087
 2133W        W17264   6.854  16.667  15.982  0.0979 -0.4815  0.1827
 2134W        W17265   1.087   2.977   0.305  0.1909  0.3820 -0.2279
 2135W        W17266  16.343   1.154   1.882 -0.0409  0.2572 -0.0700
 2136W        W17267  15.816  17.488  16.835 -0.1428 -0.1447  0.2531
 2137W        W17268   7.037   5.448   5.472 -0.3394 -0.1495  0.4357
 2138W        W17269   6.358  14.235  13.082 -0.1137 -0.0693 -0.2964
 2139W        W17270   4.792   1.612  14.927  0.4135 -0.1662 -0.0059
 2140W        W17271   2.336  13.613  13.718 -0.0407  0.1781 -0.3944
 2141W        W17272  11.132   9.345  12.352 -0.2462  0.0964  0.3172
 2142W        W17273   8.965   4.211   0.211  0.0457  0.0580  0.2767
 2143W        W17274  10.537   5.028   2.996  0.0406  0.1694 -0.0270
 2144W        W17275   9.753   4.575   3.011 -0.1130 -0.1422  0.2248
 2145W        W17276  17.310   4.664  13.676  0.0394  0.1837  0.0164
 2146W        W17277  10.466   3.649  12.353  0.0093 -0.0779 -0.3072
 2147W        W17278   4.413   1.847  13.040  0.0225 -0.0554  0.1457
 2148W        W17279   0.107  13.744   0.291 -0.1384  0.0303  0.0329
 2149W        W17280  14.354   8.822  13.174  0.1679 -0.1988  0.1166
 2150W        W17281   4.814  13.710  14.715 -0.1205 -0.1087  0.0368
 2151W        W17282   2.669  13.266  14.334  0.0847  0.3382 -0.1430
 2152W        W17283   0.347   4.345  13.963 -0.0554 -0.1582 -0.0733
 2153W        W17284   6.743   7.687  13.654  0.0367  0.0449  0.0508
 2154W        W17285   3.710   3.126   2.716  0.1182 -0.0688  0.1159
 2155W        W17286  12.227   8.651  15.787  0.0097 -0.1697 -0.2012
 2156W        W17287   3.559   7.815   3.535 -0.1326  0.0485 -0.0830
 2157W        W17288  17.152  10.721   5.797 -0.1267 -0.0828 -0.1176
 2158W        W17289  11.699  16.035   0.447  0.0605  0.0392  0.1221
 2159W        W17290  16.017  14.857   5.369 -0.1287 -0.4046  0.0713
 2160W        W17291  17.616   9.019  16.410  0.0268 -0.0752 -0.1998
 2161W        W17292   1.171   6.206  15.425 -0.0531 -0.0246 -0.1516
 2162W        W17293   8.786   3.207   5.923 -0.0437  0.4081  0.0329
 2163W        W17294  15.453   7.095   5.030  0.0124  0.2370 -0.0595
 2164W        W17295   5.013   1.722   0.220 -0.1218 -0.0778  0.1143
 2165W        W17296  12.127  10.682  11.743 -0.0366 -0.1690 -0.0240
 2166W        W17297  13.030  14.419   2.733  0.0582  0.1851 -0.0381
 2167W        W17298   0.014   7.464  11.741 -0.6293  0.1274  0.3064
 2168W        W17299   9.686   6.423  15.957  0.0874  0.2544 -0.1702
 2169W        W17300   3.078  10.474  13.467 -0.1691 -0.2819  0.2131
 2170W        W17301   4.729  11.169   0.524  0.0866  0.0339  0.1397
 2171W        W17302   4.539   3.511   5.238 -0.2003  0.0595  0.0452
 2172W        W17303  12.597  14.755   1.620 -0.0607  0.0670  0.3019
 2173W        W17304   9.926  12.104   3.023  0.3593 -0.1237  0.2028
 2174W        W17305  11.230   3.209  14.017  0.1943  0.1007 -0.0078
 2175W        W17306  11.131  14.374   1.609 -0.0755 -0.2640 -0.0525
 2176W        W17307   8.255   1.728  15.332  0.0809 -0.2536 -0.0180
 2177W        W17308  14.728  16.167   2.455 -0.2693 -0.1388  0.0403
 2178W        W17309  14.707  11.424  16.188  0.4983  0.1000 -0.1549
 2179W        W17310  15.732   0.625   5.633  0.0130  0.0772  0.1336
 2180W        W17311   3.351   6.620   1.223  0.3793 -0.0412  0.0101
 2181W        W17312  14.120  13.955  16.754  0.0145 -0.2677  0.0150
 2182W        W17313   2.181   4.372  12.623  0.1363 -0.1881 -0.1953
 2183W        W17314  17.283  12.789   2.261  0.0103  0.0930 -0.0786
 2184W        W17315   9.378  17.460   3.139  0.0156 -0.0435 -0.1287
 2185W        W17316   8.041   3.035  15.183  0.0130 -0.0203  0.1635
 2186W        W17317  16.059   0.079   4.346 -0.0729 -0.1135  0.1002
 2187W        W17318  15.960  14.539   0.346  0.0870 -0.1806  0.0578
 2188W        W17319  13.330   6.714   4.901 -0.3288  0.0795 -0.3704
 2189W        W17320   5.058  12.228  16.113 -0.1116 -0.3184 -0.2060
 2190W        W17321   3.912   9.931  16.646  0.1489 -0.1892 -0.1218
 2191W        W17322   2.395   0.048  12.611  0.1881 -0.1645  0.5023
 2192W        W17323  10.755   5.712   3.812  0.0611  0.0237  0.0404
 2193W        W17324   6.530  15.699  15.324 -0.3257 -0.0652  0.2304
 2194W        W17325   1.579  10.951   4.178 -0.0755 -0.0399  0.2252
 2195W        W17326  13.533   3.918  16.786  0.0513 -0.2337 -0.0422
 2196W        W17327   5.889  16.014   1.876  0.2773 -0.0481 -0.1302
 2197W        W17328  13.264   2.229   1.365  0.0750  0.0393  0.1833
 2198W        W17329   4.253  17.041  16.023  0.2100 -0.0959 -0.1399
 2199W        W17330  12.525  12.269  14.330 -0.3677  0.0385 -0.0709
 2200W        W17331   1.762   9.830   1.983  0.1664 -0.1122  0.0902
 2201W        W17332  15.704   2.663  14.656  0.0028 -0.0824  0.1167
 2202W        W17333   5.559  14.348  16.003  0.0662  0.0689  0.1399
 2203W        W17334   4.389  14.475  16.316  0.2884  0.1375  0.0198
 2204W        W17335   2.023   2.357  15.843 -0.0185  0.1879 -0.0285
 2205W        W17336   3.595   6.549   0.604 -0.3664  0.0500 -0.1351
 2206W        W17337   7.933   8.865  14.939 -0.0692  0.2103  0.1244
 2207W        W17338   7.656   9.611  14.917 -0.3863  0.1370  0.0072
 2208W        W17339  12.240  17.224   4.665  0.0951 -0.1286 -0.0752
 2209W        W17340   0.383   6.690  10.671  0.1367  0.0369 -0.0154
 2210W        W17341  10.036   3.842  11.643 -0.2574 -0.0070  0.2864
 2211W        W17342   9.886   2.193   0.044  0.1752 -0.1025 -0.0426
 2212W        W17343   3.539  14.146  13.444  0.0119  0.1320  0.2358
 2213W        W17344   1.709   0.282  15.053 -0.2710  0.0052 -0.1536
 2214W        W17345  10.712  10.537  15.642 -0.1249 -0.2131  0.2180
 2215W        W17346   6.083  10.299   1.563 -0.0529  0.1655  0.1869
 2216W        W17347   3.667  13.569  13.513  0.2183 -0.4327  0.0002
 2217W        W17348  11.310   0.969  13.725 -0.2111  0.1434 -0.1434
 2218W        W17349   2.240   4.460  16.451 -0.1002  0.0410  0.0393
 2219W        W17350   5.158  13.754  13.227 -0.2824 -0.0724  0.2163
 2220W        W17351   4.974   3.217   2.430 -0.1902 -0.1665 -0.2634
 2221W        W17352  13.555  15.665  11.765  0.2618 -0.1084  0.1280
 2222W        W17353   3.193   9.172   2.636  0.1499  0.0200  0.0811
 2223W        W17354   2.408   6.240  13.831 -0.0432 -0.1681 -0.0491
 2224W        W17355   6.571   4.938  14.131 -0.0519  0.0015 -0.6335
 2225W        W17356   4.220   1.620  14.818 -0.0972  0.0250  0.1829
 2226W        W17357   8.713   5.196  15.412 -0.0115 -0.3583 -0.0810
 2227W        W17358  14.530  13.676   2.858  0.2188  0.0233  0.2482
 2228W        W17359   0.087   7.634   4.703  0.1705 -0.2008 -0.1350
 2229W        W17360   2.676   5.993  14.216 -0.0566 -0.0477 -0.1301
 2230W        W17361  17.363  11.573   5.736  0.1072 -0.0533 -0.2728
 2231W        W17362  10.601  14.175   3.742  0.3462  0.0815 -0.1766
 2232W        W17363   8.846   4.942   3.633  0.0306  0.0932 -0.0164
 2233W        W17364  12.388   4.369  16.423 -0.0828 -0.0653 -0.0066
 2234W        W17365   0.468  13.670  16.422  0.2596  0.1843  0.1437
 2235W        W17366   4.658   6.162   3.097  0.0683 -0.0294  0.2863
 2236W        W17367   5.912   4.114  12.954  0.0929  0.0775  0.2335
 2237W        W17368   0.128   1.051   2.633  0.0699  0.1059 -0.4830
 2238W        W17369  11.436   0.302   2.589  0.2305 -0.0854 -0.1000
 2239W        W17370   1.394   4.439   1.873 -0.0018 -0.0726  0.0745
 2240W        W17371   5.194   1.567  13.399 -0.0613 -0.0478 -0.2795
 2241W        W17372   2.775   4.181  16.503  0.1403 -0.2820 -0.2306
 2242W        W17373  11.460   5.638  12.660  0.3118 -0.1625 -0.2212
 2243W        W17374  14.326   2.583   1.241 -0.2664  0.0440 -0.0149
 2244W        W17375   3.459  14.244   3.684 -0.4276 -0.1146 -0.0439
 2245W        W17376   1.526  10.044  15.444 -0.1797 -0.1386 -0.0485
 2246W        W17377   1.938   8.052  14.487  0.0516  0.1895  0.0338
 2247W        W17378   2.994   4.892   0.187  0.0686  0.1933 -0.1507
 2248W        W17379  15.549   4.498  11.903 -0.1603  0.0073 -0.1712
 2249W        W17380  16.853  12.220   4.136 -0.2690 -0.0280 -0.0471
 2250W        W17381  13.180  13.950  11.474  0.0449 -0.0757  0.0167
 2251W        W17382   0.619  16.112   1.927  0.4401 -0.0456 -0.3360
 2252W        W17383   8.075  16.087   5.713  0.3178  0.0977 -0.0193
 2253W        W17384   9.162  11.456  16.055 -0.1184  0.1943 -0.1272
 2254W        W17385   5.660   9.589  11.902  0.3396  0.0050  0.1434
 2255W        W17386   6.427   0.852  13.131  0.2327  0.3325  0.0648
 2256W        W17387  15.107  14.383  16.681  0.1460 -0.1402 -0.1107
 2257W        W17388   8.692   5.465  12.325  0.0423  0.0929 -0.1351
 2258W        W17389   4.055   1.673  13.303  0.1707  0.0839 -0.0479
 2259W        W17390   9.448   8.629   4.679  0.2258  0.1408 -0.1063
 2260W        W17391   9.169  15.152  13.325 -0.1135  0.1322  0.2798
 2261W        W17392  10.736  15.764   1.832 -0.1200  0.4444 -0.2854
 2262W        W17393  13.069   5.540  12.091  0.1912  0.1067 -0.2129
 2263W        W17394   7.353  10.058  14.315 -0.2925 -0.1779  0.0174
 2264W        W17395   8.283  12.010   2.865 -0.0295  0.0925 -0.1372
 2265W        W17396   9.125   0.421  15.952 -0.1392  0.0453 -0.2573
 2266W        W17397   2.157   5.318  16.170 -0.0835 -0.0134 -0.1836
 2267W        W17398  12.409   5.403  13.208 -0.0671 -0.2068 -0.0116
 2268W        W17399   6.646  15.643   5.760  0.1184 -0.1688  0.2697
 2269W        W17400   9.945  12.041  13.321  0.0159 -0.0877  0.1096
 2270W        W17401  15.315  14.931   5.004  0.1021  0.1584  0.0330
 2271W        W17402  17.673   0.709   3.570 -0.3673 -0.0344  0.2353
 2272W        W17403   2.174  17.189   4.427  0.0555 -0.3053 -0.1996
 2273W        W17404   6.123  11.693  15.620 -0.0964  0.0300  0.0361
 2274W        W17405   4.253   9.659  16.368 -0.0562  0.0952  0.2421
 2275W        W17406   6.774  17.435   0.060 -0.0640  0.1469 -0.1579
 2276W        W17407   7.979   8.942   0.967  0.1500 -0.0630  0.2664
 2277W        W17408  16.640   7.153   0.049 -0.3338  0.0072  0.5224
 2278W        W17409   4.493   3.156   1.571 -0.2019 -0.0724 -0.1155
 2279W        W17410   9.801  11.393   2.548 -0.1940 -0.0597  0.0991
 2280W        W17411   9.324   8.048   5.581 -0.0419 -0.0834 -0.0715
 2281W        W17412   5.087  17.583   5.815  0.0286 -0.0669 -0.2257
 2282W        W17413   9.734  13.954  11.937  0.0343  0.0304  0.0135
 2283W        W17414   0.829   5.624   2.235 -0.2443  0.1521  0.1782
 2284W        W17415   7.474  15.920  16.067  0.0471  0.2396 -0.0653
 2285W        W17416  12.181   9.903  12.192 -0.0302  0.0057 -0.1298
 2286W        W17417  13.903   8.967   4.931 -0.0489 -0.0995  0.0513
 2287W        W17418  17.408  13.444   2.929  0.0451 -0.1455  0.1329
 2288W        W17419  10.211  13.527   1.950  0.1758 -0.1152 -0.0453
 2289W        W17420  13.320   8.606   1.547  0.0963  0.0887  0.1718
 2290W        W17421  12.268   3.088   3.627  0.2429 -0.1862 -0.1292
 2291W        W17422  13.084  14.570  14.547 -0.2389 -0.0661 -0.1030
 2292W        W17423   6.500  12.304   2.883  0.0780  0.0395  0.4759
 2293W        W17424   0.542   5.907   1.140  0.2044 -0.0044  0.0794
 2294W        W17425   4.591  14.247  15.399 -0.0503 -0.3120  0.0078
 2295W        W17426   3.184   1.343  16.079 -0.1329  0.0229  0.3695
 2296W        W17427   4.541   2.813  16.817 -0.1100  0.0612 -0.0126
 2297W        W17428  11.953  15.533  14.466 -0.2571  0.0576  0.2115
 2298W        W17429  17.628  10.825  16.182  0.1225 -0.1819 -0.0663
 2299W        W17430  11.201   8.298   0.065 -0.3441 -0.2562  0.0833
 2300W        W17431   6.355   8.603  15.007 -0.1007  0.3011  0.1374
 2301W        W17432   5.866   3.292  11.564  0.0988  0.1457 -0.0949
 2302W        W17433  15.224   4.936  13.585 -0.1179 -0.0879  0.2637
 2303W        W17434  16.348   8.289   5.693  0.1105 -0.0141  0.1281
 2304W        W17435  10.139   7.020  15.159 -0.1523  0.1775 -0.0627
 2305W        W17436   5.377  13.068  14.984  0.0707 -0.2332  0.0481
 2306W        W17437  17.482  12.510   0.806  0.0538  0.0854  0.0410
 2307W        W17438  10.464  11.650  16.325 -0.1586  0.2023  0.1423
 2308W        W17439  15.254   5.874   0.738 -0.3421 -0.0925 -0.0048
 2309W        W17440  11.493   1.276   4.593  0.1472 -0.1155 -0.2032
 2310W        W17441   4.025   1.000  11.978  0.2008 -0.0090 -0.0379
 2311W        W17442   0.066   8.776  12.731 -0.1217 -0.0631 -0.0203
 2312W        W17443   0.936  10.918  16.494 -0.1322  0.1465 -0.2709
 2313W        W17444   4.952   1.695  16.226 -0.1062  0.2325 -0.2482
 2314W        W17445  12.521  11.720   3.208  0.1875 -0.2669 -0.0598
 2315W        W17446   5.840   8.224   1.248  0.1315 -0.2843  0.0374
 2316W        W17447   3.875  15.195   6.528 -0.0527 -0.2351 -0.1059
 2317W        W17448  12.682  10.547  13.738 -0.0342  0.4057 -0.0964
 2318W        W17449   6.699  17.329   6.246 -0.0405  0.1105  0.2134
 2319W        W17450  15.115   8.628   3.696  0.1007  0.3984  0.1457
 2320W        W17451  13.948  14.954  13.286  0.0386 -0.4593 -0.2166
 2321W        W17452   7.562   4.417   3.121  0.0397  0.0491 -0.0774
 2322W        W17453   8.418  16.007   3.187 -0.0304 -0.0985 -0.2045
 2323W        W17454   1.688  17.018   5.531 -0.0177  0.4059  0.0943
 2324W        W17455   2.720  14.648   3.193  0.0728  0.0512 -0.1849
 2325W        W17456   0.780  11.350   5.111 -0.4879 -0.0865 -0.0036
 2326W        W17457   1.753   4.620   1.071  0.0385 -0.3295 -0.0264
 2327W        W17458   3.537  10.796   4.362 -0.1962  0.0147 -0.2881
 2328W        W17459  12.374   5.087  15.215 -0.1041  0.3441 -0.1945
 2329W        W17460  15.420   0.063  15.213 -0.1072 -0.2584  0.2091
 2330W        W17461   0.701   3.596   4.469 -0.1191  0.4141 -0.0143
 2331W        W17462  16.932   5.972   3.135 -0.0598 -0.1912  0.1961
 2332W        W17463  17.526   8.788  14.457 -0.2122 -0.1301  0.1058
 2333W        W17464   0.942   1.015  12.761 -0.4063  0.2402  0.2226
 2334W        W17465  10.625   4.851   2.022 -0.2020  0.1762 -0.1235
 2335W        W17466   8.707   6.365  14.281  0.0183 -0.0053 -0.0998
 2336W        W17467   7.486   0.179   2.368 -0.0121 -0.2548 -0.2529
 2337W        W17468   6.400   0.434  13.411 -0.0629  0.0495  0.0271
 2338W        W17469   2.433   2.460  13.525  0.0041 -0.0916 -0.2656
 2339W        W17470  11.529   8.573   5.248  0.2197  0.1187 -0.1304
 2340W        W17471   3.331   6.248   4.531  0.0809 -0.3275  0.1161
 2341W        W17472   5.146   6.826  16.409 -0.0612  0.1165 -0.0410
 2342W        W17473   0.455  16.004  12.190 -0.0309  0.1960  0.2840
 2343W        W17474   2.646  15.022   3.502  0.0042  0.0636 -0.0755
 2344W        W17475  17.128  17.206  13.969 -0.0295  0.0291  0.2500
 2345W        W17476  12.850  11.892  13.536 -0.0297 -0.2362 -0.3485
 2346W        W17477   0.381  17.616   2.683  0.2598 -0.2933  0.2612
 2347W        W17478   6.340   0.663  14.820 -0.2744  0.2176 -0.2148
 2348W        W17479   4.702   7.070   2.824  0.0964  0.1084 -0.1703
 2349W        W17480   0.060   8.402  11.331  0.1967  0.0225  0.0224
 2350W        W17481   5.333  16.021   2.205  0.1951  0.4189 -0.1784
 2351W        W17482   7.386  14.406  15.758 -0.2696 -0.0311 -0.2911
 2352W        W17483  16.711   1.033   2.451 -0.0050  0.0580 -0.1881
 2353W        W17484  15.137   9.054  16.195 -0.2822 -0.2539  0.1959
 2354W        W17485   0.708  10.827   0.008  0.1651  0.0770  0.4005
 2355W        W17486  12.354   4.422   3.058 -0.0863 -0.0681 -0.0164
 2356W        W17487   5.577  15.258  16.476  0.3152  0.0963 -0.0227
 2357W        W17488  15.995   7.797   2.904 -0.2428 -0.1060  0.2721
 2358W        W17489   8.293  16.457  12.576  0.0446  0.0101  0.1876
 2359W        W17490  15.996   0.157  15.183  0.1122  0.0204  0.2469
 2360W        W17491  10.554   8.467   6.337 -0.1106 -0.0530  0.0826
 2361W        W17492  13.261  14.342   2.210  0.3633 -0.0433  0.0387
 2362W        W17493   8.170  13.840  12.365 -0.0537 -0.0429  0.0272
 2363W        W17494   8.971  15.601  16.718  0.1555 -0.0984 -0.1226
 2364W        W17495   3.918   8.815   4.874 -0.3823 -0.3039 -0.1370
 2365W        W17496   7.275   6.684   2.877 -0.1302  0.0323  0.0498
 2366W        W17497  14.350  10.964   0.794 -0.0384 -0.1017 -0.0261
 2367W        W17498   8.237   0.142  15.666  0.1023 -0.2292 -0.2442
 2368W        W17499   1.931  12.354   3.905 -0.0481  0.0617  0.1732
 2369W        W17500   8.849   3.537   0.198  0.1081 -0.0894 -0.1502
 2370W        W17501  13.915  10.780   2.471  0.1045  0.0939 -0.1011
 2371W        W17502   6.862   0.029   4.839 -0.1258  0.3363 -0.1887
 2372W        W17503  15.076   3.188  15.880  0.1063 -0.1642 -0.3001
 2373W        W17504   2.721  15.380  13.338 -0.4937  0.0761 -0.0066
 2374W        W17505   6.709  15.033   0.956 -0.2714 -0.2595  0.3445
 2375W        W17506   6.308  15.146  14.559 -0.1732 -0.0035 -0.0949
 2376W        W17507  16.911   7.392   5.890  0.1714 -0.0798  0.1928
 2377W        W17508   0.035  11.182  15.828  0.2973 -0.1582 -0.0621
 2378W        W17509  15.592   3.525   0.121  0.0757 -0.2945 -0.1376
 2379W        W17510   3.864   9.853   4.858 -0.0222 -0.0870  0.0172
 2380W        W17511  14.100  14.817  15.436  0.0124 -0.1234 -0.1355
 2381W        W17512   6.903  14.589   0.772 -0.2255 -0.1193  0.3136
 2382W        W17513  16.313   3.389   5.598  0.2255 -0.3026  0.2162
 2383W        W17514   5.699   8.885   0.065 -0.1008  0.3755 -0.0421
 2384W        W17515  15.204  14.800  13.810 -0.0525 -0.0653  0.2253
 2385W        W17516   9.295  16.694   1.151 -0.2113  0.1038 -0.0359
 2386W        W17517  13.661  16.282  14.440  0.0736 -0.0145 -0.0760
 2387W        W17518   8.657   0.383   5.059 -0.0092 -0.0982 -0.0399
 2388W        W17519   1.435  17.179  13.465 -0.1734 -0.0091 -0.0847
 2389W        W17520   3.577   2.843   1.512 -0.1444 -0.0246  0.0381
 2390W        W17521   7.394   4.385   2.636  0.1126  0.2271  0.1417
 2391W        W17522  17.492   9.503  14.669  0.1644  0.1063 -0.0854
 2392W        W17523   6.619   9.032   1.906  0.0438 -0.0576 -0.2453
 2393W        W17524   5.894   3.547  10.162  0.1314  0.1516 -0.1116
 2394W        W17525   4.661  17.652   2.981 -0.1311 -0.3465  0.0452
 2395W        W17526   6.922   3.083   0.753  0.1076 -0.0270  0.0192
 2396W        W17527  15.547  14.464  12.396  0.1925  0.1995  0.0279
 2397W        W17528  13.396   7.771  12.701 -0.0087 -0.0145 -0.0613
 2398W        W17529   4.923  17.515  15.290 -0.0382  0.1052  0.1549
 2399W        W17530   7.539   0.790   4.199  0.1652  0.0390 -0.0909
 2400W        W17531  16.062   3.906   1.027 -0.3917 -0.1310 -0.0325
 2401W        W17532   0.742  10.044  14.103 -0.4674  0.0871  0.3429
 2402W        W17533   8.351  15.695  15.170 -0.2601 -0.1662  0.2716
 2403W        W17534  10.058   0.265   4.959  0.0159  0.1074 -0.2956
 2404W        W17535   9.399   4.128  15.367  0.0302  0.0320  0.2472
 2405W        W17536  15.721  13.789   4.680  0.0974  0.1564 -0.1352
 2406W        W17537  11.110   7.350  15.800  0.0291  0.2100 -0.0306
 2407W        W17538  14.252  11.892   1.717 -0.1254  0.1030  0.1631
 2408W        W17539  16.249  10.514  16.387 -0.1150 -0.1320 -0.0119
 2409W        W17540   3.683  11.346  13.276 -0.2153  0.1610  0.4555
 2410W        W17541  11.581  10.546  15.796  0.0801 -0.1441 -0.0349
 2411W        W17542   7.611   8.073   4.891 -0.0964  0.0378 -0.2915
 2412W        W17543   0.775   1.400   3.581 -0.1387 -0.0541  0.1596
 2413W        W17544  10.748  10.419   0.454  0.1037 -0.1537  0.0774
 2414W        W17545   0.191   9.117   0.359 -0.0428 -0.0185 -0.0683
 2415W        W17546   8.368   4.318   0.863 -0.1412  0.2069 -0.0743
 2416W        W17547  13.621  12.451  13.919  0.1514  0.0758 -0.4068
 2417W        W17548  15.243  11.471  11.508 -0.1274  0.2739 -0.1162
 2418W        W17549   5.283  11.885   1.772 -0.0517  0.0231  0.1002
 2419W        W17550   4.741  15.475   0.691 -0.0443  0.1518  0.1165
 2420W        W17551   5.450   9.497  13.503 -0.3355  0.1862  0.0198
 2421W        W17552   4.174  13.569  12.688  0.0630  0.0462 -0.1412
 2422W        W17553  12.578  15.154  16.768  0.1430 -0.1151 -0.0293
 2423W        W17554   2.737  14.257  12.958 -0.0776  0.1124 -0.3243
 2424W        W17555  11.532  14.043  16.801  0.0918 -0.0471 -0.0101
 2425W        W17556   4.611   4.197   1.765  0.1160 -0.1422  0.0380
 2426W        W17557  17.246   9.890  15.983  0.3649  0.2845 -0.0458
 2427W        W17558  13.720  15.660   0.110  0.0996 -0.1234 -0.0613
 2428W        W17559  10.340  11.609   0.089  0.0783 -0.1934  0.1027
 2429W        W17560  16.064   3.664  16.761  0.1674  0.0554 -0.1042
 2430W        W17561   9.200   6.007  11.939 -0.3166  0.0585 -0.0236
 2431W        W17562  14.146  16.738   3.587 -0.2197 -0.4413 -0.1376
 2432W        W17563   3.340   3.840  13.639  0.1603 -0.0963  0.0520
 2433W        W17564   8.407  14.930  12.444 -0.0899  0.2418  0.1821
 2434W        W17565   2.636  15.345   4.401 -0.0617  0.1346  0.0645
 2435W        W17566  13.803   7.089  13.160  0.3493  0.1033 -0.0377
 2436W        W17567   8.952  17.180  15.915 -0.3294 -0.0973  0.0565
 2437W        W17568  10.789  16.623  11.303  0.1937  0.4089  0.0123
 2438W        W17569  10.116   5.870  15.295 -0.3288  0.2945  0.3028
 2439W        W17570   0.815   3.125  15.626  0.2649 -0.0336  0.0674
 2440W        W17571  12.988   1.691   3.567  0.1573 -0.1158  0.0496
 2441W        W17572   0.924   9.579  12.118  0.0549  0.1906 -0.5439
 2442W        W17573  11.829  16.882   2.795  0.2107 -0.1131 -0.2070
 2443W        W17574  17.311   6.285  15.243 -0.3463  0.1400  0.1918
 2444W        W17575   9.654   3.464  11.284  0.0787 -0.1735 -0.0567
 2445W        W17576   5.273   7.601  15.241 -0.3858 -0.3496 -0.3522
 2446W        W17577   7.992   7.059  15.413  0.1954  0.3787 -0.0987
 2447W        W17578   3.602  10.164   2.731 -0.0091 -0.2991 -0.2052
 2448W        W17579  17.379  13.234  15.534 -0.2575  0.2688  0.0090
 2449W        W17580  12.637   4.361  12.611  0.1671 -0.0143  0.0084
 2450W        W17581   2.964  10.655   3.123 -0.0571 -0.2027 -0.0494
 2451W        W17582   2.887   9.499   4.906  0.0857  0.1470 -0.0893
 2452W        W17583  15.639   0.636   1.742  0.2195 -0.5174  0.0887
 2453W        W17584   7.939  14.631  14.589  0.3042  0.2361  0.0197
 2454W        W17585   8.742   8.196  15.199 -0.0793  0.0687  0.0828
 2455W        W17586  14.599   2.644   4.523  0.1458  0.4722  0.2912
 2456W        W17587   3.013  10.257   6.218 -0.2450  0.2196 -0.1889
 2457W        W17588   4.219  13.033  12.659 -0.1890 -0.0788 -0.0445
 2458W        W17589  10.006   1.189  15.331 -0.1105  0.0830 -0.0738
 2459W        W17590  11.941   6.907  15.511  0.1080  0.0144  0.0973
 2460W        W17591   7.864   1.885  13.781  0.1533  0.3531  0.0443
 2461W        W17592   4.960  15.517  14.148  0.0411 -0.1320 -0.1667
 2462W        W17593  17.065  11.669   5.311  0.0434 -0.0659  0.0823
 2463W        W17594  13.613   4.315   0.451 -0.0890  0.1935  0.0185
 2464W        W17595   0.432   6.809   1.038  0.0047 -0.2636 -0.2495
 2465W        W17596  17.102   1.068  12.054  0.1527  0.0432 -0.1361
 2466W        W17597   9.471  16.621   0.267 -0.1759  0.1455 -0.0984
 2467W        W17598   0.777  15.715   5.101 -0.1428  0.0503 -0.0041
 2468W        W17599   6.367   5.860  15.673 -0.1405  0.0454  0.1118
 2469W        W17600   1.422   2.648   4.054  0.1070  0.1481 -0.0002
 2470W        W17601   9.772   8.548   0.482 -0.2646  0.0018 -0.0766
 2471W        W17602   4.144   9.845   5.263  0.2210 -0.1900 -0.2833
 2472W        W17603   3.202  13.153  12.606  0.0925  0.2312 -0.0502
 2473W        W17604  11.120  12.812  16.761 -0.2122  0.0056  0.2923
 2474W        W17605   7.167   8.701   6.131  0.2015 -0.1904  0.0624
 2475W        W17606  16.553   0.827   2.974 -0.1543 -0.0745 -0.1557
 2476W        W17607  16.173   2.853  14.658  0.2082  0.3261  0.1736
 2477W        W17608  11.781   3.700   4.285 -0.1285  0.2959  0.2569
 2478W        W17609   7.387  16.420   1.066  0.1313  0.0371 -0.3297
 2479W        W17610  14.895  15.193   2.995 -0.1314 -0.0996 -0.0045
 2480W        W17611   6.250   4.902   1.929 -0.2730  0.0628  0.0415
 2481W        W17612  14.624  17.001  16.380 -0.0666 -0.0405  0.2239
 2482W        W17613   3.330  13.640  13.110  0.1081 -0.4447  0.1204
 2483W        W17614  11.237   9.454  16.367  0.1717 -0.2598  0.0620
 2484W        W17615   3.632   0.649   0.812 -0.1113  0.2806  0.3052
 2485W        W17616   5.622   1.822   3.164  0.3781  0.0653  0.1458
 2486W        W17617  11.796   9.917   0.748  0.1637  0.1868  0.2903
 2487W        W17618   8.016  15.607   0.710 -0.1707 -0.0795 -0.0336
 2488W        W17619   4.213  11.208  13.951 -0.1855  0.0630  0.1676
 2489W        W17620   7.256  17.688   0.147  0.0722  0.1164  0.1092
 2490W        W17621  17.053  16.224   0.025 -0.1833 -0.3844  0.1491
 2491W        W17622   6.836   8.309  11.866 -0.1150 -0.0201  0.0319
 2492W        W17623   6.321   7.467   5.640 -0.1850 -0.0883 -0.0534
 2493W        W17624   2.885   9.894   5.699  0.2237 -0.0808  0.0776
 2494W        W17625  13.540   0.156   4.414 -0.0690 -0.3056  0.1777
 2495W        W17626  13.336  12.854  13.816  0.2568  0.0664  0.0643
 2496W        W17627  12.073   3.444  13.737  0.1949 -0.1266  0.0073
 2497W        W17628  14.102  16.194   4.712 -0.1391 -0.0185 -0.0950
 2498W        W17629   4.065  12.303  14.372 -0.1130 -0.4645  0.1167
 2499W        W17630  15.032  16.690  12.975  0.0395  0.0870 -0.1110
 2500W        W17631  16.975  10.985   0.926 -0.6238  0.3391  0.1797
 2501W        W17632  14.601  14.169  16.785 -0.1172  0.2806 -0.0129
 2502W        W17633   5.226   7.784  13.337  0.2205 -0.1704  0.0445
 2503W        W17634  11.424  15.310   1.399 -0.0403  0.2003  0.3131
 2504W        W17635  16.604  12.003   6.148  0.0132  0.2807  0.0853
 2505W        W17636  15.000   0.874   4.952 -0.1221  0.0651  0.2739
 2506W        W17637   0.265  11.931  12.938 -0.2645  0.5112  0.1277
 2507W        W17638   2.685  14.276  16.722 -0.1881 -0.0395 -0.0773
 2508W        W17639  15.723   3.714  11.791 -0.3491  0.1171  0.1028
 2509W        W17640   8.987   2.760   2.577 -0.1323  0.1706  0.2883
 2510W        W17641   1.932  14.319  14.416 -0.1666 -0.3046 -0.0242
 2511W        W17642  10.970  12.473   3.763  0.0569 -0.1758 -0.2364
 2512W        W17643   8.168   3.098  12.210  0.2608  0.0585  0.2533
 2513W        W17644  10.085   6.001  12.330 -0.3073 -0.0177  0.2308
 2514W        W17645  15.709   4.459  12.488  0.0113  0.0837 -0.3119
 2515W        W17646  11.875  16.219   2.157  0.2412  0.0021 -0.1669
 2516W        W17647  10.756  17.093   3.392 -0.1115  0.2495  0.0892
 2517W        W17648   1.922   6.364   2.252 -0.0513  0.1440 -0.3386
 2518W        W17649   9.549  17.250   5.894 -0.0269  0.0579 -0.1101
 2519W        W17650  12.231   1.727  16.087 -0.2021  0.1466  0.0688
 2520W        W17651  12.098   4.767  14.845 -0.0486  0.1023 -0.0977
 2521W        W17652   9.197  12.614   2.434 -0.3411 -0.2957 -0.0237
 2522W        W17653  10.633  15.800  12.499  0.0293  0.0181 -0.2848
 2523W        W17654   5.117   6.814   1.312  0.2200 -0.1414 -0.0090
 2524W        W17655   5.813  15.674  16.542  0.0309 -0.1123 -0.0517
 2525W        W17656   5.968   6.303  13.191 -0.0270  0.1336 -0.4242
 2526W        W17657   3.076  14.207   0.537 -0.0093 -0.0314 -0.2978
 2527W        W17658  10.812  16.422  16.761 -0.0985 -0.0349  0.1907
 2528W        W17659   2.577   7.603   4.015 -0.2137  0.0136  0.2572
 2529W        W17660   3.955   4.523  14.657 -0.1595 -0.0276 -0.0165
 2530W        W17661  12.305   5.718   1.215  0.1367 -0.1065  0.1287
 2531W        W17662  14.016  12.267   1.937  0.0110  0.0199 -0.0223
 2532W        W17663  16.981  10.344   2.861 -0.0762 -0.3438  0.0423
 2533W        W17664   2.031   5.013   2.249  0.1372  0.0258 -0.0251
 2534W        W17665   2.386   7.505   0.828 -0.2292 -0.1064  0.0252
 2535W        W17666  15.931  10.221  13.237  0.2990 -0.1083 -0.0751
 2536W        W17667   0.636   8.456   4.904  0.5903 -0.1371 -0.0011
 2537W        W17668  11.992   9.769  14.345 -0.0046 -0.1321 -0.1788
 2538W        W17669  13.498  17.497   2.776  0.0420 -0.0763 -0.4080
 2539W        W17670  12.597  13.295   4.408  0.2395 -0.3487  0.1483
 2540W        W17671   0.713  10.448   0.307  0.2360  0.0958  0.0929
 2541W        W17672   5.257  15.287   4.640  0.1176 -0.2926 -0.1138
 2542W        W17673   7.028  16.807  13.974  0.2741  0.1720 -0.1393
 2543W        W17674  16.704   8.426   3.566  0.0227 -0.0969 -0.2668
 2544W        W17675   1.956  17.275   5.146  0.0653 -0.1197 -0.0919
 2545W        W17676   6.591  10.440  12.275  0.1102 -0.2391  0.1514
 2546W        W17677  14.043   7.773   4.181 -0.1680  0.2487 -0.0290
 2547W        W17678   1.144   0.569  12.755  0.2544  0.0884 -0.0527
 2548W        W17679   1.190  12.295  13.565  0.1280 -0.2583  0.0972
 2549W        W17680  14.149  13.362   2.709 -0.3941  0.0270  0.1915
 2550W        W17681  17.487   8.541   3.376  0.0335  0.1153  0.1545
 2551W        W17682  16.790   9.393   1.544 -0.1801 -0.2021 -0.1308
 2552W        W17683   6.003   8.205   5.403 -0.2029 -0.2137 -0.0883
 2553W        W17684   9.402  13.094   0.429 -0.0972 -0.0509  0.3703
 2554W        W17685   2.859   6.795  14.600  0.1196 -0.4748  0.1591
 2555W        W17686  10.583  16.393   1.811  0.1066 -0.3690 -0.1707
 2556W        W17687   0.209   8.720  10.923  0.2723 -0.2356 -0.3275
 2557W        W17688   3.077  12.751  13.611  0.0328 -0.4186  0.1355
 2558W        W17689   4.880  16.098   1.891 -0.2807 -0.0406 -0.1870
 2559W        W17690   3.676  10.404   4.069  0.3255 -0.1332 -0.1896
 2560W        W17691   6.757   3.612   3.837 -0.1178  0.0729 -0.1364
 2561W        W17692   5.447  10.063   2.538  0.1744 -0.0158 -0.0438
 2562W        W17693  10.354   7.484  14.828 -0.0659 -0.1027 -0.1174
 2563W        W17694   1.038  13.227  11.162 -0.1461 -0.0147  0.1050
 2564W        W17695  13.515  17.590   1.633 -0.1382 -0.1783 -0.1041
 2565W        W17696  13.179  14.154   3.138  0.0680 -0.0441 -0.2514
 2566W        W17697  12.992   2.511  16.262  0.0276  0.0456  0.0247
 2567W        W17698   7.712   0.046   0.932 -0.0106  0.0167 -0.1096
 2568W        W17699   4.074  17.610   0.961  0.0889  0.0908 -0.2677
 2569W        W17700  13.047  17.498   5.043 -0.1788 -0.0966 -0.0075
 2570W        W17701   3.137  17.637  14.735 -0.3885  0.0327 -0.0348
 2571W        W17702  11.254   7.710   4.882 -0.1004 -0.2249  0.1797
 2572W        W17703  15.322   0.486   3.483 -0.0850 -0.1236 -0.0644
 2573W        W17704   2.866  16.513   2.667 -0.1166 -0.1355 -0.1306
 2574W        W17705   1.250   7.499  13.091 -0.2178  0.1693  0.0441
 2575W        W17706   1.278   9.645  13.519 -0.0138 -0.0076 -0.1134
 2576W        W17707  11.726   8.203  13.539  0.1273  0.0313  0.1350
 2577W        W17708  16.421   6.948   3.387  0.0553 -0.0358  0.0603
 2578W        W17709  10.127  17.454  15.312  0.1701  0.1449 -0.1356
 2579W        W17710   2.156   0.606   1.964 -0.1510  0.0899  0.1693
 2580W        W17711   5.992   9.883   4.571 -0.2511  0.0689 -0.1398
 2581W        W17712   8.360  15.586   1.140 -0.1506 -0.4041 -0.1034
 2582W        W17713   8.014   7.494  11.951  0.3109  0.1225 -0.2432
 2583W        W17714  10.052   8.199   1.955 -0.0976  0.0271 -0.2346
 2584W        W17715   1.466   8.777  15.602 -0.0765  0.0332 -0.2267
 2585W        W17716  11.552  12.281   5.011 -0.4523 -0.3010 -0.0695
 2586W        W17717  13.900  15.592   2.707 -0.4643 -0.0662  0.0951
 2587W        W17718  14.668   3.553  16.132  0.0161  0.1978 -0.1510
 2588W        W17719   0.488  14.506  16.226 -0.2357 -0.0661 -0.0861
 2589W        W17720   8.964  16.828   3.123 -0.2405 -0.0407 -0.2042
 2590W        W17721   6.198  16.131  14.927  0.1641  0.0769 -0.0630
 2591W        W17722  14.993  12.138   3.946  0.4150 -0.0959 -0.0771
 2592W        W17723  10.997  14.754   3.267 -0.2017  0.2494 -0.0222
 2593W        W17724  11.425  16.644   4.928  0.0051  0.2289  0.1385
 2594W        W17725   6.859  16.195   2.281 -0.3965  0.0404 -0.2117
 2595W        W17726   1.933  14.879  15.653  0.2343  0.0269 -0.1904
 2596W        W17727  15.645  10.405  12.325  0.2807  0.1466  0.0338
 2597W        W17728  15.171   7.482  14.477 -0.1200 -0.2456 -0.0205
 2598W        W17729   8.037   1.278   2.287 -0.1848 -0.2105  0.1396
 2599W        W17730   4.667  14.453  15.900 -0.1155 -0.0442  0.0291
 2600W        W17731   2.371   9.484  15.789  0.0263 -0.0281  0.1144
 2601W        W17732  12.081  11.457  12.714  0.0377 -0.1315  0.4501
 2602W        W17733  15.086   3.971  13.545 -0.0484  0.3570  0.0912
 2603W        W17734  15.845  14.644  12.913 -0.1037  0.0780 -0.2349
 2604W        W17735  15.278   1.541   3.344 -0.3136 -0.0158 -0.1791
 2605W        W17736   2.676   9.929   4.995 -0.2007 -0.0442  0.2235
 2606W        W17737   5.228   3.652   4.440  0.1949 -0.0351 -0.0894
 2607W        W17738  10.137   7.429  12.698 -0.1790  0.3535  0.0175
 2608W        W17739  16.931   1.495   0.764 -0.0460 -0.0911  0.1922
 2609W        W17740   8.035  17.633  15.198 -0.3590 -0.2595 -0.2352
 2610W        W17741  14.887  17.389   4.305  0.1082 -0.1792 -0.1223
 2611W        W17742   9.047   1.006   3.269  0.2162 -0.0514 -0.1355
 2612W        W17743   9.988   5.343   5.922  0.1835  0.0733 -0.0114
 2613W        W17744  13.197   1.498  13.924  0.0367  0.2886 -0.0954
 2614W        W17745   3.609   1.595  16.082  0.1217  0.3575 -0.4149
 2615W        W17746   1.332  10.565   2.064 -0.0632 -0.1199 -0.0600
 2616W        W17747  13.932   4.275  15.138 -0.0379  0.1531 -0.0252
 2617W        W17748  16.619  10.473  12.802 -0.1596 -0.0088  0.2026
 2618W        W17749   1.086   9.772   6.287 -0.1673 -0.0409 -0.1446
 2619W        W17750   4.012   5.678   5.866  0.1844  0.0120  0.1910
 2620W        W17751   3.673   6.533   2.717 -0.1983 -0.1804 -0.1159
 2621W        W17752   8.421  11.357   2.151 -0.1196  0.1799  0.1732
 2622W        W17753   7.982   4.165   3.231 -0.1699  0.1015 -0.4429
 2623W        W17754  15.731  13.595   3.610  0.1894 -0.0028 -0.0790
 2624W        W17755   7.726   2.985   5.168 -0.1056  0.3177  0.0001
 2625W        W17756   6.369  13.319   2.270 -0.0998  0.0430 -0.0809
 2626W        W17757   2.451   2.510  14.080 -0.2489  0.0434  0.2109
 2627W        W17758  10.561   2.389  14.454 -0.0797 -0.0649 -0.0981
 2628W        W17759   1.998  12.610   1.511  0.0379  0.1853  0.2481
 2629W        W17760  10.593   4.940   1.087  0.2747 -0.1438 -0.0117
 2630W        W17761  11.156   7.547  10.755  0.2203  0.0066  0.1441
 2631W        W17762   9.915   5.152  15.060 -0.0689 -0.0882  0.3541
 2632W        W17763   7.016   6.404   4.642  0.0961  0.0951 -0.2465
 2633W        W17764  10.197  15.169  15.774 -0.1805  0.0305  0.1180
 2634W        W17765   8.034   2.809   0.998  0.1636  0.2308 -0.1207
 2635W        W17766  15.299   0.779   0.949 -0.4713 -0.0385  0.0024
 2636W        W17767  11.938  13.322   1.880 -0.1757 -0.0856  0.3315
 2637W        W17768   6.215   7.788   5.244  0.0699  0.0599  0.2606
 2638W        W17769   2.771   1.584  11.658 -0.2886  0.3683  0.2257
 2639W        W17770  11.335   1.661   6.381  0.1568  0.1351 -0.1269
 2640W        W17771  17.134  13.242   4.181 -0.2979  0.1060 -0.5161
 2641W        W17772   8.921   7.457   3.475  0.2133 -0.1321 -0.1721
 2642W        W17773   5.928  12.993   3.464 -0.0737  0.2531  0.0071
 2643W        W17774  12.327  16.758  13.447  0.0853 -0.2408 -0.0683
 2644W        W17775   1.768   7.744   4.633  0.1166 -0.0538 -0.1558
 2645W        W17776   6.897   0.199   1.466 -0.0829  0.0663 -0.0717
 2646W        W17777   3.499   4.837  12.361 -0.0172  0.0176  0.0054
 2647W        W17778   3.370  11.268   4.405 -0.0336  0.1396 -0.0166
 2648W        W17779   4.374   4.262  11.540  0.3505 -0.0059 -0.0008
 2649W        W17780   1.466   8.323  10.909 -0.1263 -0.1675  0.0410
 2650W        W17781   0.309   3.289   2.050  0.3864  0.0027 -0.0973
 2651W        W17782   4.889  16.370   5.444 -0.1501  0.0814  0.2501
 2652W        W17783   5.345  14.171  14.232 -0.3161 -0.2772 -0.0682
 2653W        W17784  11.466   2.656   4.736 -0.0483 -0.2099 -0.0159
 2654W        W17785   5.978   2.896   0.535  0.1029  0.0428 -0.2046
 2655W        W17786  17.277  14.970   0.916  0.2866 -0.0784  0.0780
 2656W        W17787  17.043   6.420   0.924  0.1212  0.0862 -0.0439
 2657W        W17788   9.242  10.917  16.391 -0.2996  0.0456  0.0939
 2658W        W17789  12.159  12.384   4.487 -0.1361 -0.1083  0.0300
 2659W        W17790  11.233   9.223  12.850  0.0962  0.0119 -0.0348
 2660W        W17791  11.790  11.145   1.015 -0.0675 -0.1435  0.4178
 2661W        W17792  13.706  16.587  15.368  0.0935 -0.2461 -0.1939
 2662W        W17793   8.195  13.583   5.991  0.0099  0.0841  0.1076
 2663W        W17794  13.359  11.681  13.381  0.1456  0.1232 -0.1484
 2664W        W17795   6.394  17.178   1.340  0.0093  0.2961 -0.0213
 2665W        W17796  12.453  11.487  13.732 -0.1686  0.1680 -0.0605
 2666W        W17797  13.693  11.362   3.608 -0.1884 -0.2862 -0.0270
 2667W        W17798   7.388   9.157  12.646  0.1436  0.1281  0.1245
 2668W        W17799   0.602  12.723  15.375 -0.2939  0.0563  0.1813
 2669W        W17800  16.972   6.924   3.438  0.1155  0.2689 -0.1426
 2670W        W17801  14.163  17.093   2.326 -0.0208 -0.1816  0.1262
 2671W        W17802  14.060  12.549   1.081 -0.1660  0.0100 -0.1544
 2672W        W17803  10.456   9.192   1.729  0.1582 -0.1241  0.0100
 2673W        W17804  16.989  13.552  16.331 -0.0768 -0.1016 -0.0673
 2674W        W17805  12.279  13.661  16.804 -0.1284  0.1702  0.0974
 2675W        W17806   3.272   3.930  14.690  0.2255 -0.0783  0.0262
 2676W        W17807   3.636   0.847   1.666 -0.2722 -0.1846 -0.2642
 2677W        W17808   3.526   5.620  16.345  0.2852  0.0471  0.0723
 2678W        W17809   8.874  11.359   2.759 -0.2568  0.0188  0.0957
 2679W        W17810   7.559  17.354   0.552 -0.0274  0.1847 -0.2958
 2680W        W17811  13.766  15.260   1.144  0.0555 -0.2094 -0.0318
 2681W        W17812  12.309  10.412   2.580 -0.0107  0.2228 -0.0079
 2682W        W17813   0.234   7.113  12.804  0.2045 -0.0518 -0.3402
 2683W        W17814   2.746  15.163  11.596  0.1553 -0.0380  0.0797
 2684W        W17815   5.730  10.324  15.105 -0.0417 -0.0188  0.1791
 2685W        W17816   6.906  11.668  15.077 -0.0802  0.0387  0.0167
 2686W        W17817  14.726   9.229  15.145  0.1254  0.0789  0.0736
 2687W        W17818   2.655   5.262  12.492 -0.1473 -0.1641  0.1470
 2688W        W17819   8.350  10.130  14.742 -0.1014  0.1104  0.2948
 2689W        W17820   4.074  12.412   3.331  0.0485  0.1802 -0.1441
 2690W        W17821   9.881   7.384   5.157 -0.1280  0.2602  0.1513
 2691W        W17822  15.723  13.484  13.344  0.0356  0.1275  0.0210
 2692W        W17823   7.379  12.068  16.610 -0.0129  0.1945 -0.2185
 2693W        W17824   0.468   8.227  14.703  0.3080  0.0219  0.2817
 2694W        W17825  16.331   1.213   1.345  0.1491  0.1604  0.4588
 2695W        W17826  17.491  14.677   4.694 -0.0773  0.1158 -0.0633
 2696W        W17827   3.530  15.055   5.606  0.3061  0.0350 -0.0403
 2697W        W17828   2.951  14.194   1.009  0.0326 -0.3791  0.2322
 2698W        W17829  10.805  14.556  16.005  0.0199  0.2240 -0.0496
 2699W        W17830  12.338  11.127  14.454  0.0092 -0.2988  0.0705
 2700W        W17831   3.325   4.841  13.553  0.0967 -0.1400  0.5499
 2701W        W17832  14.133   0.931   4.099  0.0106 -0.0983 -0.3281
 2702W        W17833  13.205   8.215  12.798 -0.0467 -0.0627  0.4646
 2703W        W17834  12.504  10.769  14.806 -0.1331 -0.2210 -0.2428
 2704W        W17835   6.056  13.086   4.816  0.1810 -0.0366 -0.0860
 2705W        W17836  13.712  17.568  14.165 -0.0012 -0.0319  0.0300
 2706W        W17837   7.779   3.684  13.061 -0.2390 -0.1432  0.1337
 2707W        W17838  10.996   2.358  15.786 -0.3534  0.0493 -0.1339
 2708W        W17839   8.873   8.875   3.381  0.0896  0.1006  0.0073
 2709W        W17840  17.279  15.679   6.472  0.1312 -0.4423  0.0920
 2710W        W17841   8.954   6.229  16.543  0.0432  0.0195 -0.2268
 2711W        W17842   3.031   5.234  13.400  0.1505  0.3164  0.0692
 2712W        W17843   5.184  12.954  15.624 -0.0640 -0.0417 -0.0705
 2713W        W17844   4.295   6.277   3.425 -0.0005  0.3978  0.0231
 2714W        W17845  10.935   0.832   0.771  0.0721  0.2824  0.0031
 2715W        W17846   9.670   9.413   3.769 -0.2327  0.2823  0.2260
 2716W        W17847   6.386  15.750   4.235  0.1865 -0.2832  0.2339
 2717W        W17848   3.537   4.008   4.663 -0.0884 -0.0611  0.1205
 2718W        W17849   7.852   7.474   4.526  0.1220 -0.1519 -0.1431
 2719W        W17850   5.070  11.363  11.936 -0.0011 -0.0718 -0.3167
 2720W        W17851   6.563   2.672   3.000  0.1103  0.2959  0.0263
 2721W        W17852  12.821  13.449   0.801  0.0913 -0.0878  0.3919
 2722W        W17853  12.633   5.682   3.276  0.0014  0.0685 -0.0792
 2723W        W17854   6.038   8.840  11.906 -0.1340 -0.0878  0.0144
 2724W        W17855  12.678   1.365   0.381 -0.1587  0.1115  0.0672
 2725W        W17856   7.871   3.208  16.829 -0.0918  0.0292  0.0428
 2726W        W17857   8.726   4.489  14.877  0.1925 -0.0985  0.2104
 2727W        W17858  16.527  12.750  12.688  0.2915  0.1408 -0.0633
 2728W        W17859   7.293   8.317  16.532  0.3514  0.1291 -0.1477
 2729W        W17860   9.747   8.640   1.635  0.0897 -0.2267  0.1759
 2730W        W17861  12.017  14.007   3.791 -0.1254 -0.0510 -0.2043
 2731W        W17862  13.198   4.874  15.673 -0.2278 -0.0663  0.0448
 2732W        W17863   5.175   9.496  12.033  0.1391 -0.0763 -0.1002
 2733W        W17864   0.102   5.641  12.290  0.0950  0.1874  0.0874
 2734W        W17865   2.571   5.508  16.446  0.0467 -0.0174  0.0784
 2735W        W17866   4.868  12.431   4.197  0.0266  0.1276 -0.0169
 2736W        W17867  12.284  15.420   0.127 -0.0567  0.3271  0.4988
 2737W        W17868   6.215   9.173   0.835 -0.1421  0.0106  0.0583
 2738W        W17869  10.651  12.473  15.110  0.0843  0.1289 -0.0525
 2739W        W17870  10.482   3.266  15.405  0.1575 -0.2139  0.0216
 2740W        W17871  16.025  15.328  16.081 -0.5241  0.1996 -0.3583
 2741W        W17872  12.897   6.521   2.151  0.2989  0.0980 -0.2881
 2742W        W17873  16.897  15.390   0.215 -0.4486 -0.0470  0.0819
 2743W        W17874  17.099   1.284  11.012  0.1622  0.3821 -0.1467
 2744W        W17875   2.482  14.295  14.520  0.2785 -0.3910  0.0438
 2745W        W17876   2.766   6.679  11.671  0.2319  0.1069 -0.1640
 2746W        W17877   4.935  16.041  12.916  0.1527 -0.0738 -0.1951
 2747W        W17878   6.264   6.261   2.220 -0.4062  0.1429 -0.2899
 2748W        W17879   5.555  17.266  14.045 -0.1316  0.1202  0.0274
 2749W        W17880  16.022   1.503  14.053  0.0663 -0.0011  0.0237
 2750W        W17881  14.811  12.124   1.430  0.0967 -0.0026 -0.1049
 2751W        W17882   7.794  13.467  12.263  0.1966  0.0228 -0.1437
 2752W        W17883   7.561  17.080   5.743  0.0606  0.1163 -0.2521
 2753W        W17884  16.890   6.613  16.170 -0.3147  0.0110  0.2433
 2754W        W17885   2.232  16.639   3.573 -0.1653 -0.0478  0.2192
 2755W        W17886   6.537   7.715  14.814 -0.0455 -0.1839  0.2368
 2756W        W17887   9.236   9.805   0.090 -0.2221  0.3720  0.0864
 2757W        W17888   5.485   3.551  14.890 -0.1888  0.3436 -0.2615
 2758W        W17889   3.917  15.464   1.307 -0.4365 -0.2280 -0.0600
 2759W        W17890  14.832  15.138  13.925  0.1342 -0.2245 -0.4115
 2760W        W17891   9.312  15.284   3.048 -0.3236 -0.2626  0.1487
 2761W        W17892   8.319  14.700   1.917  0.1001  0.1454  0.2530
 2762W        W17893  15.118   5.852  11.923 -0.1199 -0.0912  0.2501
 2763W        W17894  12.685  11.255  12.770 -0.0950  0.0935  0.0277
 2764W        W17895   7.230  16.453  15.636  0.1871 -0.2715 -0.3547
 2765W        W17896  13.909   1.872   2.861 -0.0970  0.1472  0.0389
 2766W        W17897   1.438   5.090   4.064  0.1814  0.3889  0.3219
 2767W        W17898   8.651  13.668   0.595 -0.0216 -0.0895  0.1347
 2768W        W17899   1.831  11.836  13.739  0.2231 -0.0533  0.0016
 2769W        W17900  14.976   9.467   3.612  0.1886 -0.4281 -0.3837
 2770W        W17901   9.197  10.344  12.921 -0.0688 -0.0841 -0.4417
 2771W        W17902   1.549  14.509   3.725 -0.2775  0.0975  0.1506
 2772W        W17903  11.025   5.264   3.830  0.1196 -0.1058  0.2805
 2773W        W17904   7.216   0.283   4.578 -0.1761 -0.0115 -0.0790
 2774W        W17905  11.808   6.031  15.985 -0.2678 -0.1206  0.0037
 2775W        W17906   8.312   3.129  15.593  0.3538  0.2544  0.1425
 2776W        W17907   7.653   2.976  12.380 -0.0745  0.0358  0.0962
 2777W        W17908   9.681   7.695   5.684  0.0124  0.2385  0.0848
 2778W        W17909  11.690   5.070  12.016  0.3146 -0.2898 -0.4781
 2779W        W17910   3.440   6.817  12.576  0.4252 -0.1498  0.1401
 2780W        W17911   5.555   1.643   0.363  0.0819 -0.0833  0.0142
 2781W        W17912  10.833  14.812   1.726 -0.2457  0.0855  0.1828
 2782W        W17913   7.970   9.670   4.684  0.1731 -0.0202  0.0738
 2783W        W17914   5.129   3.644   2.137 -0.0958 -0.0578  0.1767
 2784W        W17915   3.026  14.664   1.286 -0.1751  0.0059 -0.0102
 2785W        W17916   7.799  14.808   0.496 -0.1845 -0.1279  0.2354
 2786W        W17917  10.736  15.371  12.197 -0.0514  0.0157 -0.1885
 2787W        W17918   1.238   5.719  13.499 -0.1787 -0.0719 -0.2411
 2788W        W17919   1.747   9.835   4.660 -0.1224 -0.5480 -0.1606
 2789W        W17920   5.207  14.749   3.273 -0.0499  0.0885  0.1819
 2790W        W17921  15.331   4.437  12.877 -0.0482 -0.0311 -0.3252
 2791W        W17922   2.654  11.651   2.611  0.1298 -0.2001 -0.0982
 2792W        W17923   8.347  12.520  16.073 -0.0256  0.4097  0.3355
 2793W        W17924   9.354   6.429   5.006 -0.2908  0.1029  0.1016
 2794W        W17925   4.679   6.141  13.540 -0.0985  0.0223  0.0020
 2795W        W17926   5.176   2.871  12.587 -0.0456 -0.0260 -0.1307
 2796W        W17927  16.829  17.031  15.807 -0.4376  0.0156  0.1043
 2797W        W17928  14.522   1.626  14.093  0.1259 -0.0503  0.1874
 2798W        W17929   7.451   7.508  16.671  0.1676 -0.0829  0.0061
 2799W        W17930  13.302   2.913   1.446 -0.3440  0.1893 -0.1098
 2800W        W17931   3.233   2.580  14.559  0.1141 -0.0175 -0.0261
 2801W        W17932   0.987  16.394  15.310 -0.2812  0.1204 -0.0730
 2802W        W17933  16.708   9.429   5.360  0.0510  0.0582  0.0879
 2803W        W17934  10.438   0.509  16.560 -0.1569 -0.0142 -0.1795
 2804W        W17935  14.553  10.246  13.012  0.0550  0.1435  0.2003
 2805W        W17936  10.236  16.318   1.395 -0.1435  0.1728  0.2369
 2806W        W17937   5.632  11.393  16.645  0.1682 -0.2098 -0.0863
 2807W        W17938   6.873  15.251  16.690  0.3153 -0.0871 -0.0685
 2808W        W17939  11.448   6.345   4.195  0.1559  0.1209 -0.1766
 2809W        W17940   9.502  14.535   1.066  0.0288  0.1695 -0.1503
 2810W        W17941   1.867  10.232  12.795 -0.2784  0.0638 -0.0460
 2811W        W17942   2.581   9.658  13.048  0.3180  0.0209  0.0816
 2812W        W17943   4.949  12.634  13.125 -0.1409  0.0923  0.2657
 2813W        W17944  16.528  11.822  15.012  0.0909 -0.1625  0.1665
 2814W        W17945  11.543  15.195  12.566 -0.0024 -0.0821  0.1480
 2815W        W17946   6.988  11.252   3.874 -0.1354 -0.3347 -0.2190
 2816W        W17947   0.438  13.562  14.094  0.1373 -0.1033 -0.2901
 2817W        W17948   6.871   5.278  13.870 -0.3637 -0.1248  0.0930
 2818W        W17949   5.042  12.030   3.854 -0.3629 -0.0408 -0.2495
 2819W        W17950  13.621   3.350  14.184 -0.0006  0.1067  0.3133
 2820W        W17951  12.257   3.530  11.595 -0.2135  0.1013  0.0070
 2821W        W17952  15.905  15.564  11.930 -0.0827 -0.0599 -0.2236
 2822W        W17953   2.907  17.344  13.150 -0.1116  0.0362  0.2649
 2823W        W17954  15.371   2.488  11.867  0.1961  0.4086 -0.1041
 2824W        W17955   2.067  11.571   2.498  0.2318  0.0082 -0.1023
 2825W        W17956   3.502  13.235   4.337 -0.3046 -0.1420 -0.0897
 2826W        W17957  17.092   8.886   4.756  0.1472  0.0242 -0.0839
 2827W        W17958  14.224  10.517  14.044 -0.1738  0.0305 -0.2316
 2828W        W17959   5.977  11.713   0.362  0.2467 -0.1166 -0.2663
 2829W        W17960   8.755  12.612  12.674 -0.0335 -0.0368 -0.0382
 2830W        W17961   6.776   9.505  15.848 -0.0484  0.2159 -0.0187
 2831W        W17962   2.647   9.553   5.341 -0.1135  0.0618  0.4886
 2832W        W17963  12.580  17.411   3.673 -0.3609  0.2742 -0.0088
 2833W        W17964  12.915   4.139  13.821  0.2765  0.1489 -0.2623
 2834W        W17965   9.160   9.432   5.643 -0.2574 -0.0548 -0.0743
 2835W        W17966  13.823  11.159   1.682  0.0091  0.0748 -0.0258
 2836W        W17967  13.849   9.283  16.837 -0.1909  0.1305  0.0135
 2837W        W17968  10.730   0.892  12.902 -0.2293 -0.0192 -0.1123
 2838W        W17969   0.164   3.598   0.392  0.0613 -0.0682  0.1879
 2839W        W17970   0.215   8.554   5.248  0.1064 -0.0926 -0.0588
 2840W        W17971  15.813  10.138  15.636 -0.1368 -0.0657  0.0501
 2841W        W17972  13.147   0.188   4.759 -0.2619  0.2505 -0.1033
 2842W        W17973  14.589  14.041   3.181  0.0843 -0.2168 -0.2136
 2843W        W17974   5.053   8.118  14.129 -0.1481  0.1455 -0.1869
 2844W        W17975   6.556   1.779  14.714  0.1367  0.2463  0.0331
 2845W        W17976   0.722   3.869  15.765  0.1556 -0.0157 -0.1882
 2846W        W17977   0.575  13.065  12.559 -0.1507 -0.2023 -0.0213
 2847W        W17978  10.592  15.672  15.623  0.1912 -0.1075  0.0683
 2848W        W17979   3.021   8.197   4.647  0.1252 -0.0785  0.2115
 2849W        W17980  16.631   8.737  11.998  0.2462  0.2044  0.1340
 2850W        W17981   0.908   7.212   1.733 -0.1403 -0.3013  0.0716
 2851W        W17982   5.355   6.398  14.742 -0.1371  0.1594  0.1164
 2852W        W17983  15.701   5.360  14.662 -0.1464 -0.0768  0.1433
 2853W        W17984  11.506  10.981  16.016 -0.1970  0.0644 -0.0497
 2854W        W17985  11.968  16.105  12.341 -0.0203 -0.0479 -0.1558
 2855W        W17986   2.765   1.397  13.531 -0.1502  0.0709 -0.1437
 2856W        W17987  14.673   6.299   0.048 -0.1466  0.2229  0.0087
 2857W        W17988   5.824   5.056   4.633  0.2283 -0.0904 -0.0609
 2858W        W17989  10.364  16.785   1.394 -0.0823  0.2466 -0.1261
 2859W        W17990  16.387  10.837  13.702 -0.0096  0.0136  0.0628
 2860W        W17991   6.310  16.159   0.678  0.2388 -0.0079  0.1957
 2861W        W17992  14.158   6.865  13.870  0.1921 -0.1758  0.3918
 2862W        W17993   6.919   4.248  13.531  0.0888  0.4717 -0.0138
 2863W        W17994   4.576   7.889   2.455 -0.0208 -0.2259 -0.0843
 2864W        W17995   2.541   4.235   4.882  0.5776 -0.0900 -0.0430
 2865W        W17996   3.250  14.522  15.537 -0.2795  0.0215 -0.0369
 2866W        W17997   9.901  12.200   4.469 -0.1335 -0.0009 -0.0396
 2867W        W17998  11.695  17.009  15.129  0.1497 -0.0943 -0.1387
 2868W        W17999   9.068   5.496   5.557  0.1906 -0.1106 -0.2721
 2869W        W18000   8.987   2.664   2.086 -0.1605 -0.1214  0.0563
 2870W        W18001  10.124  10.470  15.067 -0.1282  0.0250  0.1752
 2871W        W18002  17.197   7.497   0.290 -0.0963  0.0302 -0.0082
 2872W        W18003  12.726  14.733   3.990  0.1291 -0.2200 -0.0610
 2873W        W18004   4.614   6.103  11.201  0.2746  0.2941  0.0672
 2874W        W18005  14.097  14.955   3.041  0.1743 -0.2944 -0.0546
 2875W        W18006  15.944  13.359  11.605  0.1423 -0.2986  0.0192
 2876W        W18007  14.687   1.410  12.341  0.0362  0.1184  0.2293
 2877W        W18008   3.802   9.509  14.270  0.2301 -0.3926  0.2139
 2878W        W18009   2.164   2.988   4.707  0.3498 -0.1239  0.0961
 2879W        W18010  14.055  16.786   4.120  0.1707 -0.1418 -0.4613
 2880W        W18011   7.612   4.873  12.154  0.0836  0.3733  0.1211
 2881W        W18012   4.289   5.793   5.283  0.0408 -0.1204 -0.0884
 2882W        W18013  16.650  13.669  14.801 -0.1269 -0.0757 -0.1642
 2883W        W18014   6.713  15.330  15.049 -0.3671  0.1360  0.0146
 2884W        W18015  15.856   1.983   3.062  0.0944  0.2139  0.0773
 2885W        W18016   7.112   1.337   0.263 -0.2295  0.0385 -0.0553
 2886W        W18017   9.784   7.276   4.690 -0.1323  0.1662 -0.0187
 2887W        W18018  12.896  10.321  13.293  0.0246  0.1283 -0.0435
 2888W        W18019  15.297  15.839  12.489 -0.1355 -0.0074 -0.1331
 2889W        W18020   4.334   7.687  14.188 -0.2844 -0.0098  0.0402
 2890W        W18021  10.111   2.628  14.343  0.0935  0.0244 -0.0382
 2891W        W18022   4.315   0.511   3.702 -0.3963 -0.0120 -0.0364
 2892W        W18023   4.456  11.575   0.513  0.1065 -0.0228  0.0132
 2893W        W18024  17.223   6.814  16.524  0.0938 -0.2592 -0.1192
 2894W        W18025   8.177  17.624   3.239  0.0899  0.0132 -0.0709
 2895W        W18026  11.046  10.851  13.135  0.0432 -0.4137  0.0743
 2896W        W18027   7.155  13.627   5.105 -0.1176 -0.3495 -0.1022
 2897W        W18028  17.301  11.331  16.695  0.0903 -0.0218  0.0647
 2898W        W18029   2.636  16.800  13.883 -0.0506  0.0227 -0.0103
 2899W        W18030   5.626  11.042   2.688  0.2724 -0.0053  0.3947
 2900W        W18031  12.644   1.109   1.470  0.0815 -0.0301  0.1736
 2901W        W18032   3.668  16.762  11.942 -0.2233  0.1158  0.0227
 2902W        W18033  14.522   6.755   4.075  0.1249  0.3046 -0.0060
 2903W        W18034  11.645   9.624   0.372  0.0046 -0.1403 -0.3557
 2904W        W18035  13.149   1.531   5.127 -0.1238  0.2007 -0.3859
 2905W        W18036  15.997   3.341  15.905 -0.0908  0.0031  0.3745
 2906W        W18037  15.415   0.240   6.320 -0.0173 -0.1194  0.2613
 2907W        W18038  12.863   8.011  13.934 -0.0033  0.1819 -0.1170
 2908W        W18039  16.263   5.440   5.148 -0.0237 -0.0826 -0.3574
 2909W        W18040  14.598   6.983  11.544  0.3484 -0.0285 -0.1947
 2910W        W18041   1.263   1.293  16.139  0.1798 -0.0752  0.2093
 2911W        W18042   4.010   5.624  16.536  0.0712 -0.3955  0.2153
 2912W        W18043   0.759  12.023  13.434  0.1021 -0.0454 -0.1409
 2913W        W18044   1.841   0.065   3.111 -0.0137 -0.2416  0.0600
 2914W        W18045  15.446  13.681  13.728 -0.2233 -0.2677  0.0012
 2915W        W18046   5.547   4.615   3.150  0.4037 -0.1326 -0.1098
 2916W        W18047   2.469   1.259  15.656 -0.1390  0.1284  0.2526
 2917W        W18048  13.811   0.094   2.008 -0.3289  0.0177  0.0888
 2918W        W18049   7.053   3.937   1.234 -0.0819 -0.1927 -0.1036
 2919W        W18050   8.474   1.031  16.880 -0.0056 -0.0752 -0.0950
 2920W        W18051  11.913  14.657  13.927 -0.4644 -0.0733  0.0098
 2921W        W18052   8.429  14.204   1.824  0.3284 -0.1152  0.0766
 2922W        W18053  14.608  14.419  12.176  0.0959  0.1056 -0.2273
 2923W        W18054  11.134  10.045   2.122 -0.1863  0.0889 -0.3345
 2924W        W18055  11.914  14.149   0.363  0.0483  0.1134  0.0510
 2925W        W18056  10.342  10.027  16.451  0.0201  0.0074  0.0319
 2926W        W18057  15.753   7.404   3.980  0.1798  0.1279 -0.0284
 2927W        W18058   7.728   4.689   0.450 -0.1570 -0.4812 -0.0139
 2928W        W18059  12.060   8.533   4.497 -0.0714  0.1878 -0.3560
 2929W        W18060   0.294   6.229  12.805 -0.0231 -0.0651  0.0940
 2930W        W18061  12.491  13.000  15.903  0.1041 -0.1350  0.0531
 2931W        W18062   7.653   7.681  13.291  0.0338 -0.1070 -0.1888
 2932W        W18063  10.570  13.627   0.962 -0.2413 -0.1041  0.1404
 2933W        W18064  11.351   6.361  13.353 -0.1247 -0.1836  0.4324
 2934W        W18065   1.012  12.127  11.781 -0.1255  0.1423 -0.1382
 2935W        W18066  11.001  17.220   0.829 -0.0117  0.0840  0.1170
 2936W        W18067   3.872   3.041   4.982  0.1916 -0.1235  0.1443
 2937W        W18068  11.827  11.035  12.001  0.0479  0.0088 -0.1881
 2938W        W18069  17.006   5.876  15.486  0.1772 -0.1100 -0.2023
 2939W        W18070   8.741   9.600  12.874  0.0169  0.2008  0.0871
 2940W        W18071   8.580  13.429   1.307  0.0695  0.2541 -0.1169
 2941W        W18072   5.550  10.841   0.459 -0.2054  0.2303 -0.0011
 2942W        W18073   7.913   1.733   0.139  0.0240  0.0720  0.0710
 2943W        W18074  12.944  13.622   1.284 -0.1652 -0.0155 -0.2534
 2944W        W18075  17.410   2.002  16.583 -0.0482 -0.1610  0.1332
 2945W        W18076  17.360  13.221  16.088  0.0415 -0.1075  0.0311
 2946W        W18077   9.256   4.199   4.039  0.1794 -0.0474  0.1937
 2947W        W18078   9.759   0.146   3.202 -0.0735 -0.1276  0.2101
 2948W        W18079   3.105   7.618  14.558  0.0863  0.0694  0.1572
 2949W        W18080   6.829  10.846  14.691  0.0298  0.2967 -0.0803
 2950W        W18081  15.849  16.865  11.683 -0.0238  0.1391 -0.1602
 2951W        W18082   5.373  11.446   1.056 -0.0809  0.0681  0.0203
 2952W        W18083   0.940  16.595   4.457 -0.0650 -0.1810  0.1161
 2953W        W18084  17.465   1.888  12.835  0.1703 -0.0867  0.2043
 2954W        W18085  16.726   3.500  13.071  0.1152  0.0958 -0.0646
 2955W        W18086  10.975   5.424   9.976 -0.0492  0.1819 -0.2969
 2956W        W18087   4.687   3.301   0.461  0.0949 -0.3308 -0.2086
 2957W        W18088  13.962   5.970   2.627 -0.0502 -0.1669 -0.2146
 2958W        W18089  12.042  10.001  16.094  0.3415  0.2836 -0.1540
 2959W        W18090   3.107   9.716   1.736  0.2283  0.0011  0.5662
 2960W        W18091  15.967  16.312  12.359 -0.1254  0.1081 -0.0035
 2961W        W18092  10.444  14.442  11.457  0.0171 -0.2848 -0.1082
 2962W        W18093   8.941  13.824  16.267 -0.2682 -0.2795  0.1765
 2963W        W18094   5.748  12.031   1.638  0.0336 -0.0407 -0.2215
 2964W        W18095  13.368   0.757   0.721 -0.2049  0.2753  0.0795
 2965W        W18096  16.668  11.779   0.352  0.2634  0.0662  0.2968
 2966W        W18097   1.443   1.955  15.601  0.2581 -0.0191  0.2235
 2967W        W18098   8.813   9.266   5.207  0.1910  0.2007  0.2339
 2968W        W18099   6.516   7.809  16.925 -0.0035 -0.2209 -0.0784
 2969W        W18100  10.376  10.992  11.916  0.2358 -0.0256 -0.2585
 2970W        W18101   0.412  11.768   2.197 -0.0419 -0.0278 -0.0764
 2971W        W18102   7.251   6.690  14.753  0.3442 -0.0754 -0.0787
 2972W        W18103   6.671  16.838   3.807 -0.2830 -0.1753 -0.1589
 2973W        W18104   1.296   4.124  15.695  0.2204  0.2366  0.0124
 2974W        W18105   5.027  13.161   5.344  0.1367 -0.0212 -0.1188
 2975W        W18106  17.566  15.164  16.250 -0.3113  0.0099  0.0464
 2976W        W18107  16.232  15.589  13.806 -0.0832 -0.0331 -0.0547
 2977W        W18108   6.497  12.852   5.672 -0.0357 -0.0144 -0.0531
 2978W        W18109  12.425  10.785  16.454  0.0817  0.1741 -0.2039
 2979W        W18110  12.680   2.962   5.267 -0.0441  0.0662 -0.0174
 2980W        W18111   6.329   4.099   0.543  0.0552 -0.0890 -0.2678
 2981W        W18112   2.372  13.992  15.675  0.1408  0.1933  0.0516
 2982W        W18113   4.253   1.014  14.095 -0.1709 -0.1235  0.1733
 2983W        W18114  10.979   8.088  11.733  0.1491 -0.0291 -0.0795
 2984W        W18115  11.933   0.462  13.382 -0.1150 -0.1768 -0.0520
 2985W        W18116   6.687  10.896  13.730 -0.1740  0.0411  0.3112
 2986W        W18117   5.089   6.087   4.999 -0.0748 -0.0053 -0.1185
 2987W        W18118  16.037   1.801   0.453  0.0969 -0.4519 -0.0746
 2988W        W18119  15.170   2.688   4.520  0.3815 -0.0481 -0.1513
 2989W        W18120   6.258   8.477  16.245  0.0119  0.0403  0.2551
 2990W        W18121   0.016  14.224   0.309 -0.2679  0.2686  0.3274
 2991W        W18122  13.336   2.095   2.771 -0.2464  0.0261  0.3744
 2992W        W18123   5.518   6.053   3.765  0.0055 -0.1440  0.1273
 2993W        W18124  11.156   1.471  13.652  0.0655 -0.1306  0.3121
 2994W        W18125  14.479   7.782   4.496 -0.0897 -0.0639 -0.0118
 2995W        W18126   5.369   4.449   3.917 -0.3374 -0.2292  0.0687
 2996W        W18127   3.091   0.523  13.840 -0.0865  0.0530 -0.0242
 2997W        W18128   7.184  14.257  13.503 -0.2111 -0.0638  0.0362
 2998W        W18129   8.058   9.763   4.216  0.0402 -0.0366 -0.1648
 2999W        W18130  10.266   9.010   3.197 -0.0202 -0.3486  0.1333
 3000W        W18131   2.518  10.842   2.951 -0.0819  0.3195 -0.4027
 3001W        W18132   5.355  14.919  15.554 -0.0369  0.1910  0.2074
 3002W        W18133   6.760  12.602  11.420 -0.0423 -0.1109  0.0854
 3003W        W18134   1.628  11.893   5.206  0.0256  0.3432  0.3160
 3004W        W18135   3.539  15.132   4.769 -0.0191  0.1527 -0.1265
 3005W        W18136   1.713   9.267  12.551 -0.2047  0.3360  0.0782
 3006W        W18137   4.051  17.089   4.377  0.3976 -0.2404 -0.3827
 3007W        W18138   2.789   3.565   4.785  0.0896  0.0146  0.1653
 3008W        W18139   5.940  17.344   6.384 -0.2862 -0.0181  0.1002
 3009W        W18140  15.531   1.283  13.929 -0.1551 -0.2877  0.1010
 3010W        W18141  16.889  17.442   2.214  0.2411  0.2446 -0.2297
 3011W        W18142   3.996   5.708  12.495  0.0726  0.1821 -0.3003
 3012W        W18143   0.616   4.521   0.267 -0.1763 -0.0182  0.1545
 3013W        W18144  10.522  16.356  16.344 -0.2760  0.0849  0.0455
 3014W        W18145   2.394  14.224   6.418  0.2027 -0.0760  0.2794
 3015W        W18146  14.872   5.111   2.485  0.0124 -0.0475 -0.2684
 3016W        W18147   4.277  15.082  12.314  0.1222  0.1328  0.0200
 3017W        W18148   7.333  14.586  16.565  0.2109  0.2747 -0.0434
 3018W        W18149  16.622   7.327  12.433 -0.2654  0.0871  0.1928
 3019W        W18150  11.068  13.026  13.128  0.1472  0.2617 -0.0926
 3020W        W18151   1.317  16.271   4.155  0.1691 -0.0409 -0.1396
 3021W        W18152  15.427   7.235  16.293 -0.1637  0.1711 -0.1936
 3022W        W18153   3.473   7.573   5.380  0.1314 -0.0959  0.1429
 3023W        W18154   4.615   0.874  15.000 -0.0975  0.1733 -0.1295
 3024W        W18155   4.740   3.231   4.877 -0.0713 -0.1161 -0.0928
 3025W        W18156   4.581  11.466   0.026 -0.1785  0.1792 -0.3074
 3026W        W18157   4.536   0.078  12.137  0.5059 -0.1534 -0.0869
 3027W        W18158   3.365   9.851   1.238 -0.1633  0.1122 -0.0750
 3028W        W18159  10.566   9.981  13.397 -0.0501  0.0368  0.0897
 3029W        W18160  12.987   3.722   1.221 -0.1990  0.0114  0.0009
 3030W        W18161   5.159  15.244  12.385 -0.2993 -0.1344  0.0021
 3031W        W18162   5.514   2.953  11.689 -0.3539  0.0030 -0.0737
 3032W        W18163   6.767   3.863  14.223 -0.1452  0.0933  0.1909
 3033W        W18164   4.543   1.732   4.603 -0.1570 -0.0571  0.1544
 3034W        W18165  11.040   8.577   3.268 -0.2198 -0.1675 -0.2962
 3035W        W18166   8.194   0.298  12.815 -0.0389  0.0901  0.4025
 3036W        W18167   9.485   5.887  15.219 -0.0003  0.1682 -0.0194
 3037W        W18168   2.756  13.903  13.748 -0.1841  0.2180  0.1835
 3038W        W18169  10.822   3.908  11.998  0.0102 -0.2475 -0.5283
 3039W        W18170  12.065   5.200  11.044  0.2705 -0.0622  0.0840
 3040W        W18171   2.366   7.271   3.213  0.1228 -0.0662  0.1323
 3041W        W18172  17.703  12.681   5.730 -0.0014  0.1650  0.0046
 3042W        W18173   0.469   5.024   4.515  0.2049  0.1356  0.0594
 3043W        W18174  17.199  17.168   1.027  0.5015 -0.1610  0.1830
 3044W        W18175   1.440   5.155   1.755  0.3246 -0.3323 -0.4331
 3045W        W18176   7.559  13.475  16.910 -0.0777 -0.0933  0.3066
 3046W        W18177  15.763   8.054  13.901  0.3425  0.0466 -0.0776
 3047W        W18178   3.716   8.137  15.960 -0.0806  0.0541  0.2468
 3048W        W18179  14.529  16.919  12.903  0.0189  0.3379 -0.1317
 3049W        W18180   2.801   0.360  11.900 -0.1368 -0.1768  0.2876
 3050W        W18181   1.095   9.670   3.178 -0.0365  0.2651 -0.3570
 3051W        W18182   6.720  15.680   2.143 -0.0042  0.0871 -0.0295
 3052W        W18183   2.420  14.762   2.241  0.0433 -0.3443  0.2655
 3053W        W18184   9.420   6.686  11.356 -0.1147  0.0608  0.2330
 3054W        W18185  15.903   9.107   1.461  0.3080 -0.2790  0.0149
 3055W        W18186   8.618   2.634   4.686  0.1914 -0.0411  0.0865
 3056W        W18187   8.969  14.440   1.873 -0.1001 -0.0909 -0.1182
 3057W        W18188  17.236   8.292  13.184 -0.2834 -0.1730  0.1573
 3058W        W18189   0.123  16.921   0.620  0.0778  0.2438  0.0284
 3059W        W18190   9.457  17.529   4.625 -0.0261 -0.0539 -0.2267
 3060W        W18191  15.335  10.234   0.713 -0.3330 -0.0795  0.0234
 3061W        W18192   5.583   0.180  12.558  0.3144  0.3957  0.0645
 3062W        W18193  15.127  11.041   2.739 -0.0778 -0.2463  0.0088
 3063W        W18194   8.048  10.630   4.758  0.0469 -0.0014 -0.0913
 3064W        W18195   3.460  17.032   3.940  0.0802  0.0872  0.0744
 3065W        W18196  17.185   2.429   2.727  0.0269 -0.0537 -0.3355
 3066W        W18197   6.769  10.432   2.541 -0.2388 -0.1462 -0.0299
 3067W        W18198   5.294  13.833  11.330  0.0755 -0.2749  0.2523
 3068W        W18199  17.492  17.174  11.042 -0.0205 -0.0419 -0.0370
 3069W        W18200   0.498   1.736   3.154  0.3639  0.3806  0.1948
 3070W        W18201   3.004  13.140   4.252 -0.2964  0.2795 -0.0881
 3071W        W18202  17.330   6.300  16.669 -0.1012  0.0044  0.0871
 3072W        W18203  14.198   3.624   3.617  0.0794 -0.1783 -0.1575
 3073W        W18204   2.804  13.003   3.216  0.1949  0.1009 -0.2485
 3074W        W18205   3.941   6.615   0.178  0.0936 -0.0244 -0.1058
 3075W        W18206   1.429  15.811  15.925 -0.0487 -0.4151  0.2303
 3076W        W18207   9.010   1.345   1.834  0.1083 -0.1189 -0.2014
 3077W        W18208   3.383   3.386  13.994  0.0558 -0.1217  0.0583
 3078W        W18209   6.279   6.341   0.096 -0.0528  0.0225 -0.1479
 3079W        W18210   6.244  15.895   2.711 -0.0081  0.0930 -0.2004
 3080W        W18211   1.245   5.230  13.561 -0.0855  0.3599 -0.0490
 3081W        W18212   9.039  15.785   2.545 -0.2611 -0.1870 -0.0747
 3082W        W18213   1.416  16.139   1.746  0.0498 -0.1716  0.1170
 3083W        W18214  13.773   8.593  10.781  0.1264 -0.1394 -0.0817
 3084W        W18215   1.216  17.601  15.715 -0.3448  0.4562  0.0835
 3085W        W18216   9.346  12.224  16.810  0.0209  0.1104  0.0014
 3086W        W18217   9.617   8.546  12.735 -0.3057  0.0445 -0.2120
 3087W        W18218  11.735   9.779   4.930  0.0642  0.0708  0.0976
 3088W        W18219   8.251  11.464   0.374 -0.3911  0.0129  0.0256
 3089W        W18220   6.980  14.602   3.864 -0.0248 -0.0919  0.0249
 3090W        W18221   7.400  15.628   0.849  0.2125 -0.3381  0.1776
 3091W        W18222   5.063   9.278   5.388  0.1074 -0.0344 -0.2473
 3092W        W18223   1.858   9.465  14.619  0.0084 -0.2208  0.2037
 3093W        W18224   2.399  13.841  11.885 -0.0354 -0.0178 -0.4651
 3094W        W18225   9.875   6.531  13.026  0.3020  0.0611 -0.0624
 3095W        W18226  15.094   8.768  12.523 -0.2801 -0.3115  0.0692
 3096W        W18227   1.986  17.237  15.429  0.0020  0.0693 -0.0782
 3097W        W18228  11.601  14.030   4.572  0.1529  0.4350  0.1386
 3098W        W18229   1.224   7.187   2.167 -0.1586 -0.2218  0.0262
 3099W        W18230  16.598   2.752   1.071  0.3280  0.1721  0.0670
 3100W        W18231  17.147   9.964  16.483 -0.0224  0.1597  0.2982
 3101W        W18232   9.402   7.466   2.555  0.1395  0.2744 -0.2334
 3102W        W18233   7.899   6.802   1.102 -0.3190  0.4088  0.3653
 3103W        W18234  13.445   2.471   4.914  0.0119  0.1575  0.1871
 3104W        W18235  11.601  14.868  12.948  0.1021 -0.1621  0.0116
 3105W        W18236  16.455   8.593  13.276 -0.1662  0.2786  0.0161
 3106W        W18237   2.119   7.539   6.022  0.1962 -0.2296  0.1196
 3107W        W18238   5.235   9.071  16.221 -0.1683 -0.0078  0.1855
 3108W        W18239   3.358   6.729  13.614 -0.0323  0.0736 -0.3095
 3109W        W18240  16.215  15.115   3.089  0.0374 -0.0992  0.0066
 3110W        W18241   6.176   3.774  15.329  0.0650  0.1050  0.0884
 3111W        W18242   2.787   6.095  15.138 -0.1234  0.3774 -0.3469
 3112W        W18243   9.900   6.558   1.156  0.1662  0.0284  0.2148
 3113W        W18244  14.428   2.169  12.789  0.1971  0.1687 -0.0518
 3114W        W18245   1.710   0.756  13.418 -0.0377 -0.1487 -0.2290
 3115W        W18246  17.129  15.983   3.091  0.3388 -0.4432 -0.2453
 3116W        W18247  11.760   0.367  14.900  0.1348  0.0315 -0.2308
 3117W        W18248   3.940  16.350   5.022 -0.2239  0.0867 -0.1516
 3118W        W18249   7.710  12.971   4.103  0.0672 -0.1879 -0.1736
 3119W        W18250  15.467   4.836   0.497  0.2027 -0.1258  0.0709
 3120W        W18251   5.876   5.363   3.619  0.1697  0.0564  0.2180
 3121W        W18252  11.198  12.404   5.852  0.1510 -0.3530 -0.0309
 3122W        W18253  10.700   7.045  15.689  0.3364 -0.1525  0.1907
 3123W        W18254  12.848  10.843   5.475 -0.1289 -0.0260 -0.2203
 3124W        W18255   9.655   4.520   1.626  0.3232 -0.0623 -0.0238
 3125W        W18256  13.132   1.852  12.159  0.1539 -0.1104 -0.1123
 3126W        W18257   8.702  14.057  16.704 -0.1786 -0.1501  0.2251
 3127W        W18258  17.389  13.068  16.581 -0.1612 -0.0655 -0.0166
 3128W        W18259   8.811   0.305   1.823 -0.2161 -0.2485  0.2308
 3129W        W18260  13.187   2.894   5.182  0.0055  0.1974  0.0322
 3130W        W18261   2.033   6.523  16.750  0.1514 -0.1549  0.0138
 3131W        W18262   2.323  11.177  13.375 -0.0030  0.3380 -0.1062
 3132W        W18263  13.439  11.868   3.437 -0.2210  0.0498 -0.2926
 3133W        W18264  12.828   6.945  11.115 -0.0217  0.2847  0.1009
 3134W        W18265  12.485  13.219   4.896  0.0394 -0.0796 -0.5288
 3135W        W18266   8.741  10.543  12.324 -0.0926  0.2110 -0.0953
 3136W        W18267  10.024  15.933   4.548 -0.1784 -0.0960  0.1205
 3137W        W18268   8.957   0.711  15.261 -0.1127 -0.1337  0.3212
 3138W        W18269  13.428   1.192   4.458 -0.0572 -0.2998 -0.0386
 3139W        W18270  10.017  14.731  15.980  0.0981 -0.0701  0.1423
 3140W        W18271  12.068   1.749  13.318  0.0435  0.3263  0.0370
 3141W        W18272   7.518  13.826  14.403 -0.0660  0.0449 -0.3342
 3142W        W18273   6.342  13.871  12.229  0.1028  0.1675  0.1677
 3143W        W18274   2.787   8.139  15.505  0.0554  0.0297  0.1992
 3144W        W18275   7.418   3.585   1.337 -0.2065 -0.1398 -0.1985
 3145W        W18276   2.044   9.109   2.530  0.0441 -0.1179  0.1616
 3146W        W18277   3.385   8.851  15.798  0.3550 -0.2209 -0.2522
 3147W        W18278  10.106  14.044  13.129  0.0731  0.1792  0.1351
 3148W        W18279  17.673   6.055  11.139  0.0464 -0.0116 -0.0250
 3149W        W18280   4.982  10.740  16.687 -0.1887  0.0624 -0.1007
 3150W        W18281   0.855   4.111   2.057  0.1861 -0.3549 -0.1119
 3151W        W18282  16.032   7.776   4.956 -0.0756  0.1061 -0.0242
 3152W        W18283   5.351  13.421   0.504  0.0500  0.1990 -0.2265
 3153W        W18284  12.544  13.405   1.534  0.0138 -0.0348 -0.4056
 3154W        W18285   1.760  10.853  15.529  0.0657 -0.0220 -0.2460
 3155W        W18286   7.858   6.694  12.754 -0.0113  0.0566  0.0366
 3156W        W18287   7.957  14.961   6.541 -0.0419 -0.2252  0.1364
 3157W        W18288   7.571  13.665  14.950 -0.1144  0.3206  0.0388
 3158W        W18289   3.715   2.377   6.208  0.0384 -0.0834 -0.0047
 3159W        W18290   6.888  14.474   5.402  0.1730  0.1717  0.0212
 3160W        W18291   1.626   0.471   6.076  0.0945 -0.1612 -0.0147
 3161W        W18292   9.963   4.289  15.849  0.0461 -0.0995  0.3155
 3162W        W18293   9.518   7.383  16.747 -0.1240 -0.3011  0.0499
 3163W        W18294  11.229  11.073  13.932 -0.3802  0.1707  0.0152
 3164W        W18295   6.564  16.100  16.855 -0.0429 -0.0160 -0.0440
 3165W        W18296  12.574  12.928   2.547  0.1406 -0.1751 -0.0025
 3166W        W18297  12.855  10.708   4.981 -0.2407  0.3136 -0.3066
 3167W        W18298  13.782  15.883   3.328 -0.1323 -0.1628 -0.0880
 3168W        W18299   2.986   5.650   3.605 -0.0834 -0.1843  0.1683
 3169W        W18300  12.345   8.439  12.480  0.0348  0.0166  0.0331
 3170W        W18301   5.416   5.907  16.771  0.1717 -0.1146  0.3373
 3171W        W18302   2.920   7.539  12.474  0.2093  0.0685 -0.1670
 3172W        W18303   1.542   3.399  11.064  0.2330  0.0544  0.1022
 3173W        W18304   6.467  13.644  15.420  0.2277  0.2532 -0.1798
 3174W        W18305  14.235   2.417  16.304 -0.2057 -0.2032  0.0959
 3175W        W18306   4.212  17.099   5.823 -0.2815  0.2006 -0.1552
 3176W        W18307   7.670  11.681   3.379 -0.0640  0.0996  0.0172
 3177W        W18308  17.038   9.423  14.907  0.0207 -0.1575 -0.0007
 3178W        W18309   4.460   2.042   4.226  0.0574 -0.1262  0.1311
 3179W        W18310   7.382   1.656   3.299  0.0964 -0.1560  0.0718
 3180W        W18311   5.712   2.634  12.803 -0.0688 -0.1148 -0.0860
 3181W        W18312  13.498  16.212  13.965  0.1419 -0.1317 -0.0187
 3182W        W18313   5.754  13.131  15.680 -0.0849  0.0720 -0.1978
 3183W        W18314  15.474  15.460   0.608 -0.0306 -0.3705 -0.4438
 3184W        W18315   0.010  12.504   5.190 -0.0415 -0.1162  0.1119
 3185W        W18316  14.495   3.650  14.606  0.1791 -0.2511 -0.0894
 3186W        W18317   5.949  13.759  12.538  0.0125 -0.0922 -0.2176
 3187W        W18318   3.773   8.035   6.246 -0.1578  0.2756 -0.0274
 3188W        W18319   7.425   3.777   3.944 -0.0948 -0.2403 -0.0319
 3189W        W18320  11.019   9.979   2.718  0.1175 -0.0325 -0.2680
 3190W        W18321  13.440   5.989  15.414 -0.1381  0.0601  0.0051
 3191W        W18322   5.259   0.042   3.920  0.0898  0.0934 -0.0885
 3192W        W18323   8.609   5.340  10.941  0.3252 -0.1140 -0.1264
 3193W        W18324   3.334   0.907  15.129  0.0803  0.0178  0.0458
 3194W        W18325   8.251  14.549  13.336  0.1109 -0.0633 -0.0209
 3195W        W18326   5.990  10.110   5.078 -0.1609 -0.1068 -0.1141
 3196W        W18327   2.224   5.825   0.564 -0.0718  0.0527  0.2823
 3197W        W18328   8.574   4.423  16.919 -0.0673  0.0286 -0.0362
 3198W        W18329   4.165   2.368  14.396  0.1744 -0.1153 -0.2599
 3199W        W18330   2.850   4.785   5.060  0.0846  0.0942  0.0711
 3200W        W18331  10.600  10.967   1.547 -0.2037  0.1076 -0.1591
 3201W        W18332  11.372   9.010   3.204  0.1229  0.1257  0.2139
 3202W        W18333  10.713  17.708   0.902  0.1305  0.0408 -0.0333
 3203W        W18334   3.397   5.224   0.996  0.0501  0.2266 -0.3608
 3204W        W18335   6.727  12.084  11.100 -0.2527 -0.1537 -0.1668
 3205W        W18336   0.736   7.625  13.188 -0.0625 -0.2619  0.2056
 3206W        W18337  12.800   6.733   1.176 -0.1610  0.2294  0.0584
 3207W        W18338   4.561  12.509   0.371 -0.0819 -0.0098  0.2001
 3208W        W18339   7.268  11.504   4.283  0.1838 -0.0993 -0.0434
 3209W        W18340  17.672   4.467   3.827  0.0753  0.2410 -0.1442
 3210W        W18341   4.401  14.953  12.780 -0.1769  0.1207  0.2333
 3211W        W18342  16.692   2.403  11.770  0.1273 -0.1067  0.1581
 3212W        W18343  11.160   5.044  13.360 -0.1452  0.1058  0.2081
 3213W        W18344   2.767  16.029   2.486  0.1171 -0.0747  0.0250
 3214W        W18345  13.610  13.063   4.184  0.2812  0.2180  0.1520
 3215W        W18346   5.919   2.663   5.745 -0.3667 -0.2959  0.0636
 3216W        W18347  14.176   6.795   3.634 -0.1483  0.0682  0.0008
 3217W        W18348  11.215  14.523  12.832  0.0088  0.0028 -0.0994
 3218W        W18349  13.999  13.373  11.867 -0.2206  0.2246  0.2045
 3219W        W18350   6.671  16.330  13.134 -0.0506  0.0706 -0.0674
 3220W        W18351   4.864   7.197   5.167  0.0841  0.2576  0.1116
 3221W        W18352  11.779   8.172   0.126  0.3076 -0.1470 -0.4367
 3222W        W18353  12.493   3.249   0.984  0.2625  0.1067  0.4071
 3223W        W18354  13.434  17.138   5.252  0.0508 -0.2232 -0.0750
 3224W        W18355   3.851   8.735  15.979  0.1546 -0.1040 -0.3413
 3225W        W18356   9.291  13.752   3.436  0.1058  0.1103  0.0009
 3226W        W18357   2.540  14.995   4.840 -0.2157 -0.1387 -0.2031
 3227W        W18358   3.999   2.304  13.291 -0.0053  0.2021  0.0067
 3228W        W18359   3.496  11.169   0.914  0.0317 -0.2711 -0.0308
 3229W        W18360  10.357   7.488  16.741 -0.1305  0.1748  0.0234
 3230W        W18361   4.429  10.413   4.248  0.1842  0.0895  0.1531
 3231W        W18362  10.683   6.964   0.659 -0.0619 -0.3124  0.1579
 3232W        W18363  16.978  15.391   2.218 -0.2241  0.0952 -0.1183
 3233W        W18364  16.816   7.029  12.770  0.0815  0.0800 -0.0549
 3234W        W18365   3.839  13.990  15.640  0.1039 -0.0273 -0.0297
 3235W        W18366   2.007   6.027  13.996  0.4105  0.2405 -0.0590
 3236W        W18367   9.151  11.355  12.931  0.1693  0.0902  0.2409
 3237W        W18368  11.283  13.596  12.233 -0.1811 -0.0059 -0.0309
 3238W        W18369  11.465   0.822   5.095  0.1251 -0.0524  0.0095
 3239W        W18370   4.577   1.369   6.340  0.0097  0.0582 -0.3356
 3240W        W18371   6.909  13.023   0.184  0.0611  0.2165  0.0415
 3241W        W18372   0.741  13.356  13.705  0.0400 -0.1541 -0.1796
 3242W        W18373  11.912  14.288   3.089  0.1484 -0.1348 -0.0618
 3243W        W18374  13.279  17.040  12.546 -0.2860  0.0675  0.2950
 3244W        W18375  15.518  15.558  14.529 -0.1868  0.1922  0.1764
 3245W        W18376  15.060   6.783  12.521  0.1589 -0.0255 -0.1209
 3246W        W18377   3.870   8.175  11.506  0.1051 -0.2453 -0.2357
 3247W        W18378  12.301   1.327  16.898  0.1189 -0.0449  0.2240
 3248W        W18379   0.063   3.749  15.330 -0.0411 -0.1997 -0.0647
 3249W        W18380  16.684  10.780  15.637 -0.0660  0.0787  0.1196
 3250W        W18381  15.329  13.463   2.878 -0.0865 -0.2339 -0.0590
 3251W        W18382  14.222   1.931  16.525  0.0907  0.0434 -0.0113
 3252W        W18383   2.881   3.323  11.561  0.0738 -0.1993  0.0356
 3253W        W18384  12.165   5.725   3.444 -0.1226  0.2217 -0.0273
 3254W        W18385   9.537  11.009  12.006  0.2338 -0.0759 -0.0272
 3255W        W18386  13.327   8.557   2.537 -0.1704  0.0655  0.0986
 3256W        W18387   2.893   6.320   1.193 -0.0536 -0.0662 -0.1076
 3257W        W18388   9.621  12.764   5.002  0.1042 -0.1525  0.0002
 3258W        W18389   4.926   4.436  12.529  0.1009 -0.1026  0.0022
 3259W        W18390  10.515   5.708   2.367 -0.0980  0.1145  0.1793
 3260W        W18391   6.279  13.440   2.820  0.0713 -0.3827 -0.1291
 3261W        W18392  14.220  11.030   3.413 -0.1698 -0.1243 -0.2103
 3262W        W18393  13.623  16.157   4.687  0.0743 -0.0480 -0.1267
 3263W        W18394  16.355   6.003   2.406  0.2166  0.0282 -0.1761
 3264W        W18395  15.712   9.673  13.761  0.3240 -0.0043 -0.1955
 3265W        W18396   7.845   6.467  11.900 -0.1887  0.2511  0.1693
 3266W        W18397   0.625   8.371  14.166 -0.0392  0.2605  0.2303
 3267W        W18398   9.875   5.715  16.625 -0.0768 -0.1928  0.0119
 3268W        W18399  12.356  16.140   5.508  0.0138  0.0262 -0.2237
 3269W        W18400   7.213   7.988   5.607 -0.2911 -0.0462 -0.0581
 3270W        W18401  14.306   8.120   3.743 -0.0266  0.1080  0.0142
 3271W        W18402   3.136  16.572  12.650 -0.0916 -0.1238  0.0654
 3272W        W18403   4.420   2.924  11.832 -0.2442 -0.3199  0.1751
 3273W        W18404  13.435   2.106  10.611 -0.2017 -0.1488  0.2420
 3274W        W18405   5.050   9.584   4.537 -0.0733  0.0352  0.0323
 3275W        W18406  17.652   1.278   1.564  0.2344  0.0315 -0.3114
 3276W        W18407  12.004   2.082  15.074 -0.1654 -0.1424 -0.5512
 3277W        W18408   9.398   1.428   4.340 -0.2344  0.3197  0.1827
 3278W        W18409   6.596  11.370  13.801  0.1782 -0.0991 -0.1422
 3279W        W18410  10.970   0.670   2.782  0.1937  0.1660 -0.1698
 3280W        W18411  10.380   0.238   6.284  0.1957  0.1810 -0.0761
 3281W        W18412  14.200   5.785  11.444 -0.0954  0.0586 -0.1804
 3282W        W18413   5.000   6.001   1.915 -0.2186 -0.0888 -0.3334
 3283W        W18414   8.449  10.506   6.141 -0.2489  0.1659 -0.0086
 3284W        W18415   9.913  10.347   6.581 -0.1020 -0.0380  0.0923
 3285W        W18416  14.729  12.278   5.364 -0.0572  0.0928  0.0369
 3286W        W18417  14.856  16.080  14.314 -0.0714 -0.0146 -0.1201
 3287W        W18418   6.386   7.509   4.304 -0.2352  0.1555 -0.2196
 3288W        W18419   7.398   6.832  15.229  0.2934 -0.1069 -0.2584
 3289W        W18420   1.518   7.069   1.741 -0.1054  0.0624  0.0701
 3290W        W18421   8.302   8.176   2.293  0.1187  0.0799 -0.2675
 3291W        W18422  16.676   5.993   4.375  0.0537  0.0152 -0.2250
 3292W        W18423   6.234   8.387  12.081 -0.1271 -0.0619 -0.5306
 3293W        W18424   8.891   8.916   0.108  0.0020  0.1076  0.1726
 3294W        W18425   2.075   6.444   3.370  0.0636 -0.1000  0.0104
 3295W        W18426   3.952  16.343   4.506  0.1916 -0.0111  0.3198
 3296W        W18427   8.165  10.039  16.514 -0.1564  0.1696 -0.0335
 3297W        W18428   4.704   4.511   4.725  0.1544  0.2231  0.1193
 3298W        W18429   6.243   6.686  15.230  0.3811 -0.1029  0.2039
 3299W        W18430  15.130   1.846   3.774 -0.4635  0.2169  0.1360
 3300W        W18431   4.449   5.935   0.439 -0.0420 -0.1582  0.0069
 3301W        W18432  15.303  13.598   4.348  0.1395 -0.0362 -0.2389
 3302W        W18433   7.182  15.013   3.172  0.0384 -0.3611  0.0554
 3303W        W18434  11.428   0.671  16.381  0.3049  0.0157  0.2209
 3304W        W18435   9.432   6.592   0.363 -0.0225  0.1341  0.0447
 3305W        W18436  11.679  17.565  11.156 -0.2061 -0.0610  0.1029
 3306W        W18437   0.996   8.103  15.838 -0.1158  0.0519  0.0373
 3307W        W18438  12.775  12.866   4.166  0.2255  0.0701 -0.3667
 3308W        W18439   9.494  11.865  15.889  0.2649 -0.1189 -0.2347
 3309W        W18440  13.993   7.337   5.118  0.0211 -0.0015 -0.2063
 3310W        W18441   9.274  15.400  15.949  0.1201 -0.2817  0.2023
 3311W        W18442  12.463  10.224  14.056  0.1822 -0.1074 -0.1027
 3312W        W18443  12.342  16.189   6.024  0.0207  0.3837 -0.0393
 3313W        W18444   5.935  11.182  12.523 -0.0081  0.0794  0.1106
 3314W        W18445  17.364  14.481   0.940 -0.0303 -0.1704  0.1508
 3315W        W18446  16.492  13.165   2.713 -0.1378  0.0324  0.0205
 3316W        W18447   4.355  16.698   4.195 -0.0383 -0.2242 -0.4264
 3317W        W18448  17.464   4.299  13.977 -0.0482  0.3591 -0.1045
 3318W        W18449  12.193   6.258   2.673 -0.1168 -0.0257  0.2109
 3319W        W18450   4.602   5.842  11.696  0.1674 -0.0567 -0.1721
 3320W        W18451  14.218   6.178  13.574 -0.0877  0.2255  0.1583
 3321W        W18452   4.455  17.058   4.904  0.0311 -0.0617  0.0229
 3322W        W18453   8.103  10.363   1.115 -0.3887 -0.0667  0.0993
 3323W        W18454  10.149   2.903   4.843 -0.2164 -0.0672  0.0890
 3324W        W18455  14.896   2.396   3.560  0.1173  0.1300 -0.1279
 3325W        W18456   4.477   1.757  11.668 -0.2378 -0.0259  0.2467
 3326W        W18457   5.613   5.290   3.191  0.1343 -0.3519 -0.0762
 3327W        W18458   4.357   7.666   0.774  0.1200 -0.0856  0.2690
 3328W        W18459  12.610   9.251   2.328 -0.0082  0.3066  0.2113
 3329W        W18460  10.974   3.475  13.620  0.2687  0.0527  0.0017
 3330W        W18461  10.594  15.950   1.360  0.1430 -0.1662  0.4649
 3331W        W18462   5.558  16.783   2.445  0.3302 -0.2343  0.2328
 3332W        W18463  17.523   4.133   2.209 -0.1577 -0.1842  0.0812
 3333W        W18464  11.702   0.003   2.212 -0.2277 -0.1772 -0.2792
 3334W        W18465  14.313  15.886   3.035  0.0498  0.1705  0.0181
 3335W        W18466  16.664  13.408   0.645 -0.3020  0.2022 -0.0068
 3336W        W18467   3.020  15.120   0.979  0.0566  0.0761 -0.0303
 3337W        W18468   3.513  12.796  13.878  0.1148 -0.1392 -0.0490
 3338W        W18469   5.752  10.130  15.682 -0.0154 -0.5827  0.2805
 3339W        W18470  10.353  13.631   3.870 -0.0738  0.1500 -0.1110
 3340W        W18471   3.693   0.584  12.189  0.1676 -0.0839 -0.1343
 3341W        W18472  10.390  15.569   4.616 -0.0106 -0.2987  0.1380
 3342W        W18473   6.663  13.668   1.967  0.0534 -0.1975 -0.2641
 3343W        W18474   9.525   6.721  12.117 -0.1604 -0.0277  0.2117
 3344W        W18475  14.193  13.068   2.289 -0.2919  0.2747  0.1605
 3345W        W18476  11.952   7.394   0.391  0.1821 -0.1755  0.0045
 3346W        W18477  14.630  16.112  11.677  0.2136  0.2379  0.1247
 3347W        W18478  16.381   3.045   3.609 -0.0892  0.0883  0.0387
 3348W        W18479   5.131   9.004  12.423 -0.1066 -0.0511 -0.2557
 3349W        W18480   8.107   8.490   0.363  0.5712 -0.1783  0.0780
 3350W        W18481  10.022   4.460  11.302 -0.2098  0.0647 -0.0588
 3351W        W18482  15.897   0.131   5.713  0.1523 -0.1015 -0.1847
 3352W        W18483   8.536   0.026  12.325 -0.3004 -0.0265  0.0406
 3353W        W18484   2.499   0.801   5.162 -0.0275  0.1412 -0.1132
 3354W        W18485   6.843   7.820   2.469  0.1446 -0.4325 -0.1152
 3355W        W18486  15.931  17.330   2.769  0.2365 -0.1227 -0.0844
 3356W        W18487   9.737   0.044  15.326  0.2403 -0.2223  0.1960
 3357W        W18488   3.348  15.351  15.401  0.2143  0.2889  0.1351
 3358W        W18489   2.001  13.938  14.723 -0.4379  0.0242 -0.1447
 3359W        W18490   9.018   6.319   3.961 -0.0835  0.1348 -0.1592
 3360W        W18491  15.710  13.340   3.183  0.0705  0.1966 -0.2558
 3361W        W18492   4.160   3.822  16.254  0.1098  0.1060  0.0393
 3362W        W18493  16.284   4.502   5.020  0.1039 -0.0292  0.0107
 3363W        W18494  10.178   5.840  15.804  0.1347 -0.0591 -0.1920
 3364W        W18495   9.422   6.130   4.605  0.0547 -0.0155  0.1597
 3365W        W18496  17.057  14.513  12.415 -0.2312 -0.1051  0.2968
 3366W        W18497   6.093   5.355   1.836  0.0036 -0.2117  0.2492
 3367W        W18498   6.125   8.863  14.606 -0.0686  0.0426  0.1975
 3368W        W18499  10.780  10.419  13.115  0.3850  0.2906  0.2558
 3369W        W18500  13.742   0.811   4.474  0.0109 -0.2027  0.2296
 3370W        W18501   9.274  16.754   5.449  0.2881  0.0084  0.3390
 3371W        W18502   1.996   3.413   4.948  0.1629 -0.4641  0.0202
 3372W        W18503   9.249   8.336   6.010 -0.2991 -0.0043 -0.1288
 3373W        W18504  17.047   1.895   3.717  0.0017 -0.3268 -0.0988
 3374W        W18505   3.797   4.475  15.785  0.3511  0.3220 -0.2672
 3375W        W18506  17.284   3.939  16.621  0.0532  0.1973 -0.1696
 3376W        W18507   3.610   6.596  16.533 -0.0338  0.6741  0.1121
 3377W        W18508  14.722  12.197  13.924 -0.0643 -0.0207 -0.0654
 3378W        W18509  15.328  15.036   0.796  0.0486  0.2373 -0.1237
 3379W        W18510  17.346   8.902  13.016  0.3617  0.1083  0.1063
 3380W        W18511  13.497   0.182  11.146  0.2654  0.0991  0.0086
 3381W        W18512   4.004   4.983  11.135  0.0052  0.2325  0.0050
 3382W        W18513   9.415   5.676   4.863  0.0202 -0.1632 -0.0113
 3383W        W18514  11.716   8.820   0.796  0.2162  0.1234 -0.2090
 3384W        W18515   2.555  13.867  14.987  0.0736 -0.0589  0.2028
 3385W        W18516  11.544   1.409  12.066 -0.0535 -0.1034 -0.0628
 3386W        W18517   0.078  14.709  13.670  0.0019  0.1265 -0.1555
 3387W        W18518  10.979  14.536  11.706  0.0378  0.2073 -0.2479
 3388W        W18519  14.155   9.164   4.461 -0.1385 -0.0083 -0.1549
 3389W        W18520   6.885  11.919  16.181  0.0601 -0.1789 -0.1097
 3390W        W18521   5.203  13.676   1.793  0.1050  0.2706  0.4891
 3391W        W18522  14.991   5.990   2.311  0.4140 -0.1231  0.0703
 3392W        W18523  16.902   6.046   2.140  0.4134  0.1634  0.0958
 3393W        W18524   1.161   7.526   5.139 -0.0680  0.2971 -0.0661
 3394W        W18525   3.769   2.815  15.215 -0.0564  0.1396 -0.1114
 3395W        W18526   8.130   2.091   3.414 -0.2362 -0.1028  0.2192
 3396W        W18527   4.552   1.956  16.251  0.1128  0.3308 -0.1096
 3397W        W18528  15.169  14.726   6.206  0.1466 -0.1368  0.1672
 3398W        W18529   8.363  16.316  13.742 -0.0903  0.0157  0.2011
 3399W        W18530   5.377  12.474  11.672  0.0363 -0.1299  0.2329
 3400W        W18531   9.308   1.977   4.865 -0.0442  0.2149 -0.0084
 3401W        W18532   0.588   2.262  16.238  0.2716  0.0402 -0.3269
 3402W        W18533  10.573   1.111  15.298  0.0014 -0.0056  0.0806
 3403W        W18534  17.661   7.275   1.776 -0.0111 -0.0675  0.0045
 3404W        W18535   9.548  12.951  14.397  0.0206 -0.0706  0.1118
 3405W        W18536   6.308  15.096  15.284  0.2208 -0.0984 -0.0884
 3406W        W18537   4.567  12.974   2.943 -0.0927 -0.1763  0.0452
 3407W        W18538   7.106   3.497  14.111 -0.1138 -0.1436 -0.1185
 3408W        W18539   7.312  11.551  15.356 -0.3497  0.1674 -0.2834
 3409W        W18540   7.875   4.430   4.465  0.1658  0.0998  0.2247
 3410W        W18541   8.276  16.650   4.147  0.1898  0.0991 -0.0691
 3411W        W18542   7.867   0.338  11.752 -0.0484  0.0741 -0.0831
 3412W        W18543  14.234  13.977  13.018  0.0895  0.1379  0.0890
 3413W        W18544  15.231   3.751  15.383  0.1096  0.2154 -0.3323
 3414W        W18545   8.196  11.031   1.805 -0.1522  0.0163  0.1831
 3415W        W18546  16.862   7.469  12.966  0.0735  0.0305  0.0550
 3416W        W18547   6.330   9.539   5.739  0.2885  0.1971 -0.0557
 3417W        W18548  10.659  14.592   1.361 -0.1462  0.0299  0.2570
 3418W        W18549   1.183  10.140  14.463  0.0927 -0.0136  0.1181
 3419W        W18550   7.330  11.520   0.995 -0.1063  0.0138  0.1452
 3420W        W18551   7.215  16.423   4.731 -0.0801 -0.2825 -0.2832
 3421W        W18552  15.768   0.888  13.637  0.2318  0.3625  0.0288
 3422W        W18553   9.150   2.766  16.633  0.0546 -0.1423 -0.1051
 3423W        W18554   3.269  11.161  16.680 -0.1404 -0.1939  0.0350
 3424W        W18555  14.084   6.300  11.547 -0.2960  0.0350 -0.0648
 3425W        W18556   9.090  12.269   3.386  0.0030 -0.1912 -0.3277
 3426W        W18557  14.681   4.537  11.471  0.1959  0.0310  0.1463
 3427W        W18558  17.433   6.884   2.463  0.0332  0.1536  0.0623
 3428W        W18559   1.349  11.623   0.185  0.1210  0.1148 -0.0056
 3429W        W18560   1.793   0.746  15.211  0.1100 -0.1952  0.1207
 3430W        W18561   1.444   6.853  14.214  0.3663 -0.2618 -0.2314
 3431W        W18562   2.403  10.344  15.645  0.0925  0.2800  0.0989
 3432W        W18563  10.441  12.896  12.287  0.1674  0.0346 -0.0254
 3433W        W18564  15.037  15.419   0.963  0.1047 -0.0981 -0.2824
 3434W        W18565   9.454   6.478   5.492  0.2132  0.1374 -0.0139
 3435W        W18566  15.317   1.524  14.478  0.3178 -0.4069  0.1585
 3436W        W18567   8.469   0.979  14.604  0.4396  0.2082  0.0495
 3437W        W18568   0.063  10.550   1.112 -0.2879  0.3418  0.1032
 3438W        W18569   2.551  16.427  16.610  0.3630 -0.1160 -0.1194
 3439W        W18570   3.210  16.856   3.541 -0.0438  0.0645 -0.0981
 3440W        W18571   9.839  12.077  15.030 -0.1097  0.0780 -0.2033
 3441W        W18572  14.976  15.814  13.004  0.0228  0.0854  0.1270
 3442W        W18573  16.190  16.792  16.331 -0.0096  0.0876 -0.0570
 3443W        W18574   9.346   1.132  14.536 -0.1674  0.0665  0.1333
 3444W        W18575   7.174   7.834  13.489  0.0836  0.1964 -0.1247
 3445W        W18576   2.798   5.804   3.148 -0.0880  0.0628 -0.1472
 3446W        W18577   7.108   1.143   5.427 -0.0191  0.1254  0.2864
 3447W        W18578   1.869  16.321   3.772  0.0764  0.0805  0.0946
 3448W        W18579  14.298  13.694   5.766  0.2674 -0.1650  0.1331
 3449W        W18580  13.975   6.760  16.562  0.5283 -0.1072  0.0063
 3450W        W18581  17.127  12.201   0.935 -0.1944 -0.0936  0.0614
 3451W        W18582   1.848   5.600  14.328  0.1463 -0.1732 -0.2535
 3452W        W18583   6.891   6.967  13.845 -0.2819  0.2059  0.3685
 3453W        W18584   5.884  10.454  13.642  0.0865  0.0518 -0.3290
 3454W        W18585  12.709   8.345   2.829  0.0114 -0.2362  0.3827
 3455W        W18586  15.578   7.487   5.283  0.1931 -0.1647  0.1979
 3456W        W18587  10.436   1.537  14.438 -0.2805 -0.0702 -0.1022
 3457W        W18588  12.950   5.918  15.475 -0.3331  0.1708 -0.1595
 3458W        W18589  16.217  15.052  14.819  0.1696  0.1667 -0.2732
 3459W        W18590  16.366  14.946   4.869 -0.1818  0.2253  0.1849
 3460W        W18591   6.010  10.870   3.023 -0.0182  0.1123 -0.1345
 3461W        W18592  11.977  15.085  14.280  0.0729  0.1352 -0.0757
 3462W        W18593   6.993   1.582   5.106  0.1333  0.0444 -0.0346
 3463W        W18594   4.536  10.212  13.816  0.0756  0.2347  0.0103
 3464W        W18595  16.718  15.831  12.069 -0.0926 -0.1518  0.1158
 3465W        W18596   5.605  11.512  12.608  0.0848  0.0771 -0.1595
 3466W        W18597   8.790   3.057  15.568 -0.1469 -0.0781  0.0592
 3467W        W18598   1.381   6.289  14.915 -0.2191  0.0631  0.1444
 3468W        W18599   4.362   1.354  13.039  0.3514  0.0342  0.0234
 3469W        W18600   0.035  15.383  15.261 -0.1199  0.1992  0.3418
 3470W        W18601   9.861   6.529   5.197  0.0387 -0.0758 -0.1448
 3471W        W18602  17.652  10.474  13.072  0.0721 -0.0144  0.0813
 3472W        W18603   5.544   9.473   4.526  0.2541 -0.1349 -0.0129
 3473W        W18604  13.938   4.894  12.000  0.0268  0.1279 -0.1705
 3474W        W18605   7.186  10.322  15.749 -0.2544 -0.0373  0.0939
 3475W        W18606  13.884  11.738   3.307  0.0699  0.1555 -0.1267
 3476W        W18607   5.443  12.745   3.667 -0.2530 -0.3411 -0.2851
 3477W        W18608  14.097   0.803   5.369  0.0894  0.2029  0.2002
 3478W        W18609  11.518  16.152  14.546 -0.0545  0.0049  0.0185
 3479W        W18610  17.435   3.400   2.746  0.1105  0.0443 -0.0484
 3480W        W18611   2.264   2.607   4.399 -0.0092  0.1483  0.0350
 3481W        W18612  11.965   3.097  14.502  0.1477 -0.2288 -0.1267
 3482W        W18613  13.915  13.989   6.517  0.1840 -0.1682  0.1244
 3483W        W18614   9.650  12.899  13.461  0.0208  0.3820  0.0731
 3484W        W18615   9.745   6.298   3.341  0.0049 -0.0082  0.3172
 3485W        W18616   7.700   0.155  16.865 -0.0507 -0.0395  0.0034
 3486W        W18617  12.798   5.756   1.350  0.3113  0.2275 -0.1411
 3487W        W18618  17.320   2.731   3.754 -0.1468 -0.1514  0.4456
 3488W        W18619  15.031   4.623   5.562  0.1473  0.1985 -0.0667
 3489W        W18620   8.863   1.360   0.027  0.1443 -0.1589 -0.0829
 3490W        W18621  16.749  10.404   2.385  0.1957  0.1144  0.3062
 3491W        W18622  14.526  15.500  16.592  0.2220  0.1619  0.0953
 3492W        W18623   2.111  14.273  11.649  0.0787  0.0639  0.3868
 3493W        W18624  13.267   6.794  15.949  0.0173 -0.1657  0.0104
 3494W        W18625   6.368   5.011  13.659  0.1391 -0.2307 -0.0519
 3495W        W18626  13.628   7.365  15.112 -0.1140  0.0937 -0.1036
 3496W        W18627   4.951   2.366  15.448  0.0339  0.0504  0.2079
 3497W        W18628   6.787  11.326  16.273 -0.0565 -0.1918  0.0204
 3498W        W18629   7.052   7.360   2.346  0.2635 -0.2227  0.3526
 3499W        W18630   0.196  13.270  13.731 -0.0744 -0.0103  0.1070
 3500W        W18631   8.993   3.197  12.897 -0.1033 -0.0421 -0.0416
 3501W        W18632  15.570   4.886  10.379  0.0586 -0.1150  0.0855
 3502W        W18633  17.484  17.082  11.795  0.2478 -0.0698 -0.0349
 3503W        W18634   7.244   5.672   4.398 -0.0390 -0.1888  0.4165
 3504W        W18635  14.026   3.140  13.944 -0.0048 -0.2281 -0.1247
 3505W        W18636   3.928  11.179   2.233  0.0517 -0.0790  0.0882
 3506W        W18637   3.141   2.387   0.160 -0.0156 -0.0714 -0.1427
 3507W        W18638   8.025   9.060   5.158  0.0296 -0.2054  0.0467
 3508W        W18639  17.648   8.917   2.752 -0.0117  0.3279  0.1853
 3509W        W18640   2.722  17.657   1.132  0.1238 -0.1941 -0.0843
 3510W        W18641   2.225   5.864   2.281 -0.0019  0.0404  0.1781
 3511W        W18642   5.232  11.802  11.749  0.3368  0.0965 -0.0934
 3512W        W18643   6.502   0.176   1.776  0.2066 -0.2824  0.3129
 3513W        W18644  17.410   2.556  11.003 -0.1671  0.0062  0.0543
 3514W        W18645   1.571  16.789   0.834  0.0918  0.2055 -0.1376
 3515W        W18646  10.781  12.643  15.652  0.1734  0.1376 -0.0022
 3516W        W18647   2.049   3.669   3.345  0.0900 -0.0255 -0.0422
 3517W        W18648   6.025  14.909  16.695  0.1650  0.0998 -0.1472
 3518W        W18649   3.507   1.920  12.706  0.0899  0.0959 -0.0905
 3519W        W18650   5.927   1.419   0.605 -0.3217 -0.1286 -0.3744
 3520W        W18651  17.548   4.372  11.717  0.1465 -0.1096 -0.0160
 3521W        W18652   0.451   4.711  11.066  0.1766 -0.2814  0.0169
 3522W        W18653   5.154  17.387  16.345  0.0893 -0.2406 -0.2228
 3523W        W18654   1.255   9.866   0.991 -0.1394  0.3464 -0.3990
 3524W        W18655  13.365  12.096  14.200 -0.1559  0.1608 -0.3310
 3525W        W18656  15.472   5.780  13.268  0.2696  0.2025  0.0149
 3526W        W18657  12.117   5.511  15.154 -0.0965 -0.0678 -0.0199
 3527W        W18658  16.064  13.241   1.843 -0.2312  0.2551  0.3168
 3528W        W18659  13.256   5.683  13.411  0.1359 -0.2161  0.0335
 3529W        W18660   6.428   8.726   3.116 -0.2597  0.0508  0.3597
 3530W        W18661  13.551   1.881   4.028  0.0445 -0.3524  0.2029
 3531W        W18662   6.253  11.146   4.117 -0.2993 -0.1616 -0.1287
 3532W        W18663  14.639  12.514   4.159  0.0285 -0.2342  0.0042
 3533W        W18664  12.402   9.016   1.913  0.1219  0.3661  0.1709
 3534W        W18665  15.691  15.762  14.117 -0.0169 -0.2450  0.3575
 3535W        W18666  12.207  16.235  14.922  0.2587  0.0504 -0.1334
 3536W        W18667   5.203   4.399   1.365  0.2211  0.1017  0.0906
 3537W        W18668   3.472  17.233   4.924  0.2741 -0.1106  0.2614
 3538W        W18669   2.990  12.919  15.672  0.2999  0.1289  0.2987
 3539W        W18670   7.249  16.262   0.440  0.0766  0.0643  0.0427
 3540W        W18671   1.333   9.688  14.554  0.5416  0.2100  0.1497
 3541W        W18672   3.562  16.798  12.440  0.0974  0.1777 -0.0439
 3542W        W18673  14.826  12.004  16.050  0.0658  0.0134 -0.2755
 3543W        W18674  15.549   6.992  12.660 -0.0938  0.3085 -0.2632
 3544W        W18675  13.796  10.378   4.349  0.0385 -0.1926  0.0823
 3545W        W18676   0.696   3.354   6.133 -0.0175 -0.1667 -0.0388
 3546W        W18677   5.772   0.321   2.952  0.2542 -0.1081  0.2397
 3547W        W18678  12.885   9.316   4.544  0.0832  0.1907 -0.2211
 3548W        W18679  12.714   2.624  11.051 -0.0546 -0.0146  0.4083
 3549W        W18680  11.973  11.602   3.995  0.0660 -0.1608 -0.0170
 3550W        W18681   5.841   0.222  16.006 -0.1998 -0.0038  0.1485
 3551W        W18682   7.072  17.325   3.010  0.1616  0.1398 -0.2624
 3552W        W18683   6.608   0.232   2.392  0.1739 -0.0318  0.1294
 3553W        W18684   7.251  10.820  13.826 -0.1215 -0.1310 -0.1161
 3554W        W18685  15.741   3.794   0.659 -0.1745  0.1287  0.2378
 3555W        W18686   2.418  17.068   3.267 -0.0853 -0.0983  0.1200
 3556W        W18687   0.327  16.571  13.916  0.2437  0.0877 -0.0998
 3557W        W18688  12.310   7.669  16.511  0.2620  0.0896  0.1037
 3558W        W18689  10.951   6.011   5.580  0.1041  0.1554 -0.0843
 3559W        W18690   9.470  15.168  14.690 -0.1213 -0.0702 -0.1724
 3560W        W18691   3.588   5.881   4.720  0.1907 -0.1361 -0.0545
 3561W        W18692  11.409   0.208   5.671  0.3765  0.0504 -0.3312
 3562W        W18693   1.247   8.587  16.526 -0.0512 -0.2914  0.1807
 3563W        W18694  17.419  14.526   4.129  0.1489 -0.0077  0.3156
 3564W        W18695   9.916  14.745  13.733  0.1294 -0.1926 -0.4509
 3565W        W18696  14.739   3.906   4.888  0.2317  0.0808  0.1783
 3566W        W18697   5.679   1.233  15.044 -0.0179 -0.2630  0.0863
 3567W        W18698   0.102  17.581   3.814 -0.0227 -0.0402 -0.0368
 3568W        W18699   9.217   5.073   4.816  0.0362 -0.0627  0.2526
 3569W        W18700   0.933   8.495  14.657 -0.0814  0.0310  0.0294
 3570W        W18701   7.662   8.802   5.415 -0.1258 -0.2067 -0.0179
 3571W        W18702  16.013   2.782   3.450  0.0355  0.1024  0.1520
 3572W        W18703   4.934  12.688   1.328  0.0146 -0.0878  0.0795
 3573W        W18704   3.644   2.157   5.266 -0.0971  0.1252 -0.4776
 3574W        W18705   0.713  17.024  12.163  0.1635  0.2593  0.1494
 3575W        W18706  13.797   0.827  12.509  0.0756 -0.0516 -0.1827
 3576W        W18707  12.390  15.270  11.374 -0.0354  0.1872 -0.1462
 3577W        W18708   3.865   7.620   5.797 -0.1155  0.1477  0.0311
 3578W        W18709   0.009  10.707   3.030  0.0092  0.0321 -0.2109
 3579W        W18710   8.281   1.758   3.765  0.1622  0.0676  0.0917
 3580W        W18711  16.865  15.477  11.541  0.0267 -0.3124 -0.2212
 3581W        W18712   5.867  15.674   1.367  0.1705 -0.1958 -0.0702
 3582W        W18713  17.580   0.364   1.093  0.0031 -0.0792 -0.0975
 3583W        W18714  13.684   1.672  12.371  0.0390 -0.3058 -0.2715
 3584W        W18715  11.330  12.903   0.308 -0.1171 -0.0567 -0.0027
 3585W        W18716  12.624   7.103  11.669 -0.2407 -0.1152  0.2906
 3586W        W18717  11.966   3.284   6.225 -0.3085  0.0629 -0.2261
 3587W        W18718  15.046  14.380   3.748 -0.3007  0.0722  0.0436
 3588W        W18719  15.522   3.983   3.792 -0.0135 -0.0736  0.5265
 3589W        W18720  11.318   5.317   3.033 -0.2258 -0.2621 -0.3149
 3590W        W18721   0.960   8.030   1.733  0.1134 -0.1321  0.2896
 3591W        W18722   4.028   9.048   1.413 -0.5441  0.2077  0.3852
 3592W        W18723  15.137   2.435   3.047 -0.1912  0.0629 -0.2814
 3593W        W18724  12.927  11.236   2.391  0.4208  0.0937  0.3233
 3594W        W18725  10.495  16.941  14.506 -0.0639  0.0262 -0.1501
 3595W        W18726   8.814   1.658   2.196 -0.0871  0.2362  0.1869
 3596W        W18727  12.126  15.240  11.829  0.0005 -0.2752 -0.1041
 3597W        W18728  13.185   8.576  15.267  0.3154  0.2152  0.0812
 3598W        W18729   5.425   5.585  13.992  0.1215 -0.3580  0.3938
 3599W        W18730  16.779   2.871   3.917  0.0881 -0.0352  0.1104
 3600W        W18731   5.073   6.337  11.134  0.2108  0.1109  0.1714
 3601W        W18732  12.713   4.133  13.349 -0.1007  0.0410  0.0682
 3602W        W18733   1.486  11.941  13.355  0.0632 -0.0171  0.1263
 3603W        W18734   8.729   2.908   5.130 -0.2085  0.1003 -0.1017
 3604W        W18735   2.643   8.385  13.353  0.1326  0.0912  0.1895
 3605W        W18736   2.439  12.455   6.043  0.0283  0.1170  0.0550
 3606W        W18737  16.220   2.183  11.765  0.1161 -0.0627 -0.2357
 3607W        W18738   2.262  16.295   1.259 -0.2271 -0.0074  0.1868
 3608W        W18739   0.571   9.742   2.880  0.0805 -0.1791  0.1160
 3609W        W18740   0.210   0.975  12.698 -0.1493 -0.0435 -0.1243
 3610W        W18741   2.372   8.749   4.645 -0.1663 -0.0010  0.2476
 3611W        W18742  10.468  10.210  14.453 -0.0914  0.0763 -0.0268
 3612W        W18743  12.776   3.835  14.456 -0.0694  0.1377 -0.0959
 3613W        W18744   0.930   7.833   4.776 -0.1713 -0.0767  0.3079
 3614W        W18745  12.852  14.208   4.786 -0.0189  0.0126 -0.0971
 3615W        W18746  13.166  14.873  13.268  0.1399 -0.2517 -0.1784
 3616W        W18747  17.158   4.590   3.662 -0.0960  0.2899 -0.1390
 3617W        W18748  11.644  11.344  11.406 -0.2624 -0.0659  0.0217
 3618W        W18749   0.824  15.800  14.168  0.0276 -0.0589  0.0800
 3619W        W18750   8.845  17.374  13.682  0.1420 -0.1285 -0.1194
 3620W        W18751  17.628   2.809  15.673  0.0434 -0.3217  0.1192
 3621W        W18752  14.354   6.060   2.960 -0.0578  0.1538  0.1492
 3622W        W18753   1.133   0.403   1.399 -0.2554 -0.1142  0.1707
 3623W        W18754   1.370   2.408  14.298 -0.0556 -0.0392 -0.0018
 3624W        W18755   4.246  12.117  13.728  0.0064 -0.1326 -0.1065
 3625W        W18756   3.873   9.601  11.792 -0.2269 -0.0732 -0.1674
 3626W        W18757  15.567   6.664   2.579  0.0540  0.3232 -0.3436
 3627W        W18758   7.837   6.998   1.837 -0.0549 -0.1097 -0.0414
 3628W        W18759   4.765  17.157   5.932  0.0894  0.3046  0.1018
 3629W        W18760   6.993  17.336  13.212 -0.0712  0.0256 -0.1728
 3630W        W18761   9.271  12.774   0.074 -0.0502  0.0744 -0.1457
 3631W        W18762  12.660   8.536   0.128  0.0643 -0.0458 -0.1621
 3632W        W18763   0.773  12.306  16.904 -0.0962  0.3217  0.0106
 3633W        W18764  16.419  12.936   5.034 -0.1018  0.0927  0.1467
 3634W        W18765  10.087  15.788   0.066 -0.0157  0.0449 -0.3272
 3635W        W18766   7.699   0.349   4.397  0.2381 -0.2058  0.1083
 3636W        W18767  17.699   8.306  14.861 -0.0038  0.3236  0.1180
 3637W        W18768  13.524  10.297   5.458  0.1954  0.0752 -0.1154
 3638W        W18769   5.729  12.608  13.659  0.1310  0.1178 -0.1143
 3639W        W18770   7.826  14.314  13.450  0.0073  0.2636  0.0301
 3640W        W18771   5.613   7.884  13.637  0.2019 -0.0267 -0.3274
 3641W        W18772   8.257  11.415   2.663 -0.1567  0.0231 -0.1723
 3642W        W18773  14.922   0.027   4.670 -0.1371  0.2317  0.1075
 3643W        W18774  17.615  11.285  11.792  0.0784  0.1670 -0.1639
 3644W        W18775   8.965  16.766  14.669 -0.2022 -0.1518 -0.0554
 3645W        W18776  15.753  11.963  14.043  0.0193 -0.0144  0.0816
 3646W        W18777   4.176   3.601  16.730 -0.1708 -0.1013 -0.2458
 3647W        W18778  15.490   7.615  14.035 -0.0824  0.0650  0.4475
 3648W        W18779  12.642   3.400   0.475 -0.0670  0.0019  0.2182
 3649W        W18780   5.997  15.948  15.701 -0.1732 -0.1270 -0.1892
 3650W        W18781   3.174   5.128  12.606 -0.2576 -0.0654 -0.1158
 3651W        W18782   7.331  16.428  13.406  0.0080 -0.5363  0.4491
 3652W        W18783   9.695   6.585  14.733  0.0475 -0.1910 -0.0494
 3653W        W18784  16.357   5.055   6.064  0.0508  0.0034 -0.1424
 3654W        W18785   5.083  11.193   0.135 -0.2629  0.1301  0.3319
 3655W        W18786  13.900   6.152   1.159 -0.0532 -0.0389 -0.3460
 3656W        W18787   5.663   6.217  16.419 -0.3322  0.1015  0.2489
 3657W        W18788   3.534   2.667   5.297 -0.1613  0.1475 -0.0556
 3658W        W18789   7.592  13.099   0.954  0.0354  0.1685 -0.1278
 3659W        W18790   2.462   3.041  14.446 -0.1222  0.1146  0.2607
 3660W        W18791   0.896   8.256   0.514 -0.2323  0.0123  0.1355
 3661W        W18792   3.772   7.611   1.651 -0.1169 -0.0484  0.0713
 3662W        W18793   6.679   6.240  11.887 -0.2216 -0.2253  0.1724
 3663W        W18794   5.617   0.176  15.036 -0.1527 -0.0749  0.0141
 3664W        W18795   5.218   5.853  12.791 -0.0347 -0.3933  0.1006
 3665W        W18796  11.620  17.021  12.172  0.1677 -0.2231 -0.2376
 3666W        W18797   5.712   0.831  14.668  0.1030  0.1019 -0.2079
 3667W        W18798   8.199   7.868   2.906 -0.0299  0.0508 -0.1255
 3668W        W18799   4.209  16.709   4.708  0.1592 -0.0770  0.1395
 3669W        W18800   8.216   4.728  14.357  0.2989 -0.1251  0.1236
 3670W        W18801   3.263  14.498  14.766  0.0241 -0.1657  0.1062
 3671W        W18802   4.397   0.261  14.383  0.2329  0.0381  0.1041
 3672W        W18803   2.316   9.400   2.930 -0.2568 -0.1567 -0.0320
 3673W        W18804  12.347   7.988   5.663  0.1696 -0.1665 -0.2321
 3674W        W18805   6.757   6.636   2.749  0.0987  0.0034 -0.0605
 3675W        W18806   0.406   2.606   3.562  0.0256  0.2280  0.2173
 3676W        W18807   8.072  13.214   1.123  0.3798 -0.1628  0.2225
 3677W        W18808  10.454   9.421   5.533 -0.1276  0.0984  0.2804
 3678W        W18809  14.736   5.548   5.502 -0.0933 -0.2265  0.1276
 3679W        W18810  16.765   9.031  16.278  0.2350 -0.0686  0.1122
 3680W        W18811  17.206   8.151  16.083 -0.1102  0.0112 -0.3106
 3681W        W18812   7.907   3.052   0.400 -0.0923 -0.1855  0.1389
 3682W        W18813  14.428   1.956  10.654  0.0586  0.2662  0.1076
 3683W        W18814   3.997  13.313  14.447 -0.0075 -0.0971  0.1000
 3684W        W18815  16.447  11.280  13.933  0.0032  0.2289  0.1714
 3685W        W18816   9.449   4.272  11.701  0.3235  0.4003 -0.0339
 3686W        W18817   1.811   3.741  12.406  0.1920 -0.1660  0.3163
 3687W        W18818  10.908   7.941   5.299 -0.0275 -0.0375  0.0986
 3688W        W18819  12.261   0.985  11.894  0.0850  0.2672 -0.1282
 3689W        W18820   7.803   9.975   1.179 -0.4962  0.0990  0.1409
 3690W        W18821   4.341   7.462  13.727  0.0061  0.1387 -0.0059
 3691W        W18822   9.065   3.451   3.301 -0.0959  0.5140  0.2662
 3692W        W18823   1.773   8.575  16.447  0.0062  0.2323  0.0087
 3693W        W18824   5.081   0.987  11.416 -0.2500  0.1719  0.1806
 3694W        W18825  17.656  17.217  16.094  0.0030  0.1732 -0.0805
 3695W        W18826   4.606   7.655  16.433  0.0028  0.1888  0.0459
 3696W        W18827   1.779   1.410   3.087 -0.3671 -0.0582 -0.3003
 3697W        W18828  16.322   1.690   3.294  0.0311  0.2426 -0.0678
 3698W        W18829   8.167  11.810   3.372  0.2245  0.4108 -0.1283
 3699W        W18830   7.112  12.436  16.424  0.0034 -0.1657 -0.0453
 3700W        W18831  10.067   4.951   2.754 -0.2391  0.3053 -0.0460
 3701W        W18832   4.814   8.847  16.411 -0.0402  0.3093 -0.0441
 3702W        W18833  17.601  15.376   0.777  0.1637 -0.1536 -0.1176
 3703W        W18834  16.394   8.142  13.545  0.0969  0.0456 -0.0310
 3704W        W18835  11.833   1.713  14.686  0.1107  0.0368 -0.2456
 3705W        W18836   4.189  17.451   5.397  0.1207  0.0679 -0.0366
 3706W        W18837  14.522   9.578  14.611  0.0466 -0.1764 -0.1671
 3707W        W18838   4.722   4.124  14.365 -0.1856 -0.0140 -0.1448
 3708W        W18839  15.804   1.545   3.383  0.1076 -0.0479 -0.1886
 3709W        W18840  12.546  17.360   1.544  0.2245  0.1308  0.0865
 3710W        W18841   5.281  16.119   5.206  0.3442 -0.2412 -0.0464
 3711W        W18842   7.953   6.225   6.375  0.5105  0.0255  0.1221
 3712W        W18843  13.958   3.758  15.416  0.1298 -0.1263  0.0647
 3713W        W18844   8.756  10.560  14.263 -0.2354  0.1044 -0.2879
 3714W        W18845  10.275  16.560  12.057  0.2332  0.1559  0.2931
 3715W        W18846  15.706   7.289  14.355  0.1039 -0.4126 -0.0378
 3716W        W18847   0.864  16.201   0.561 -0.1286 -0.1395  0.0192
 3717W        W18848  16.531   3.263  11.367 -0.0555 -0.0577 -0.2614
 3718W        W18849  12.453  10.015  15.519  0.0121 -0.3948 -0.0158
 3719W        W18850  11.330  16.691  16.681  0.1655 -0.1818 -0.0450
 3720W        W18851   9.377   0.016   6.056  0.1410 -0.0230 -0.0829
 3721W        W18852  16.579  15.204  16.752 -0.1194 -0.1527 -0.0532
 3722W        W18853  14.966  11.998  15.525  0.0099 -0.0483 -0.0230
 3723W        W18854   2.721   4.596   2.602  0.1362  0.1619  0.1630
 3724W        W18855   6.419  12.276   0.365  0.2675 -0.3604 -0.2417
 3725W        W18856  11.867   9.236   3.508  0.1547 -0.1622  0.0535
 3726W        W18857   1.680   1.952  12.652  0.2326  0.1118 -0.0898
 3727W        W18858  10.860  11.509  16.667  0.0251 -0.2285  0.0781
 3728W        W18859   8.920  11.903   5.983 -0.2385 -0.1149 -0.0551
 3729W        W18860   7.670   0.839   0.339 -0.0563  0.1841 -0.0860
 3730W        W18861  12.800  14.749  14.219 -0.0671 -0.0034  0.3722
 3731W        W18862   8.719   6.818   1.015 -0.0395  0.1967  0.0852
 3732W        W18863   1.401  10.699   0.680 -0.1399  0.0771 -0.0185
 3733W        W18864  14.120   1.901  11.446 -0.1933  0.1318  0.1047
 3734W        W18865  10.279   0.497   4.447 -0.3035  0.3901  0.0606
 3735W        W18866  11.012   5.789   2.123  0.2942 -0.0485  0.0734
 3736W        W18867  14.166  11.142  11.814  0.0626  0.2833  0.0236
 3737W        W18868  15.574  11.146  16.303  0.1603 -0.2223 -0.0661
 3738W        W18869   9.559   6.100   1.285 -0.2746  0.4436 -0.0740
 3739W        W18870   2.845  10.277   0.525 -0.1154  0.0953  0.1943
 3740W        W18871  11.571   6.919  16.339 -0.1262 -0.2117 -0.0566
 3741W        W18872  10.042   8.671  12.976 -0.4465  0.3935 -0.2864
 3742W        W18873  17.119  11.937   0.468  0.0495  0.3533 -0.0149
 3743W        W18874  16.449   1.752  12.321 -0.0025  0.0820 -0.0676
 3744W        W18875  11.140  14.219   5.422 -0.0211  0.0461  0.0474
 3745W        W18876   7.508  15.997  16.825 -0.1416  0.1206 -0.1067
 3746W        W18877   7.400  12.121   1.208 -0.1455  0.0117 -0.0091
 3747W        W18878   9.928  15.004  12.021 -0.0056  0.0024 -0.1860
 3748W        W18879   0.042   1.278  15.561  0.2031  0.1138 -0.3405
 3749W        W18880  16.902  10.850  11.319  0.0116 -0.1510  0.2929
 3750W        W18881   5.567  14.618   1.663  0.1730  0.0451  0.2850
 3751W        W18882  14.270  10.336  15.081  0.0215 -0.2145  0.1655
 3752W        W18883   2.919   2.822   3.500 -0.0932 -0.3100  0.1591
 3753W        W18884   7.354  12.044   3.863  0.1721  0.0672 -0.3353
 3754W        W18885   8.682   1.276   2.979  0.1351 -0.3670 -0.2871
 3755W        W18886  13.125   8.862  15.636 -0.0693 -0.1059  0.0205
 3756W        W18887  17.461   4.345   4.358 -0.2665 -0.0285  0.3280
 3757W        W18888   7.443  10.377  13.937 -0.0891 -0.1318  0.0651
 3758W        W18889  17.645   4.996   0.150 -0.3251  0.3066  0.2188
 3759W        W18890  17.668  15.478   4.312 -0.2640  0.1864  0.1638
 3760W        W18891   7.964   0.328   3.456  0.0753  0.5419 -0.0331
 3761W        W18892   4.708  11.536  15.326 -0.3625 -0.1429  0.1205
 3762W        W18893  15.159  12.237  16.906 -0.1723 -0.1481  0.3653
 3763W        W18894  16.410   2.311   0.991  0.0321  0.2965 -0.0977
 3764W        W18895  12.517  13.268   5.463  0.0316  0.0607  0.3044
 3765W        W18896  13.388  12.370  14.948  0.1234  0.0397 -0.0857
 3766W        W18897   0.334   9.031  16.786 -0.0114 -0.1403  0.2662
 3767W        W18898   8.075   6.444   0.577 -0.1771 -0.1539 -0.1050
 3768W        W18899  17.616  13.521  13.396  0.1842  0.0318  0.2749
 3769W        W18900  16.317   3.970  16.355  0.1534 -0.1147 -0.0468
 3770W        W18901   3.698  15.267  15.009 -0.0735 -0.1738 -0.0173
 3771W        W18902   6.522  16.473   1.029  0.2556 -0.0558 -0.0614
 3772W        W18903   5.456   9.372  13.023 -0.3949 -0.1211  0.1409
 3773W        W18904   2.823  14.253  15.570  0.0830  0.1246  0.0642
 3774W        W18905   9.035   5.274  13.912  0.1092  0.1075  0.1292
 3775W        W18906   8.087   6.808   2.230  0.1587  0.0059 -0.1688
 3776W        W18907  13.225  13.803   5.629 -0.2987 -0.1432  0.0995
 3777W        W18908   5.900  15.012  13.725  0.0115  0.1007 -0.0502
 3778W        W18909   2.176   8.523  15.113  0.1013  0.0460  0.1585
 3779W        W18910   2.310  14.440  13.674  0.0381  0.2366  0.0199
 3780W        W18911   6.001  14.170   0.335 -0.1599  0.0457  0.0685
 3781W        W18912  13.855   7.721  16.484 -0.1716  0.0215  0.0662
 3782W        W18913  13.508  16.684   4.059 -0.0758 -0.3513  0.1068
 3783W        W18914   4.849  13.360   0.030  0.0198  0.2245 -0.1712
 3784W        W18915  13.016  16.576   2.626  0.0777 -0.0787  0.3106
 3785W        W18916   0.490   5.874  12.532 -0.1000  0.1577 -0.1376
 3786W        W18917  11.488  12.618  16.494  0.1489 -0.4081  0.1339
 3787W        W18918   8.659   6.768  14.648 -0.0672  0.1652  0.0095
 3788W        W18919  13.209   1.925   0.496 -0.0870  0.0012  0.2175
 3789W        W18920  11.018   8.483   6.554 -0.1768  0.2473 -0.0088
 3790W        W18921   3.997   2.439  14.941 -0.2331 -0.1860  0.0713
 3791W        W18922  11.631  15.447   3.979  0.0919  0.1340  0.0895
 3792W        W18923  13.500  17.174  13.061  0.0401  0.0731 -0.2559
 3793W        W18924  10.327   4.308   0.440  0.1970  0.0323 -0.0521
 3794W        W18925   2.761  10.679   0.101 -0.0139 -0.0603 -0.2343
 3795W        W18926  13.237  17.283   6.520 -0.0101  0.0149 -0.0650
 3796W        W18927   8.261  13.313  12.318  0.1640 -0.0295 -0.1762
 3797W        W18928  14.491   3.133  14.873 -0.2721  0.0793 -0.0206
 3798W        W18929  16.678   0.467   3.839 -0.3607  0.0149 -0.0287
 3799W        W18930   1.691   1.169   3.513  0.1681  0.2941 -0.0230
 3800W        W18931   5.367  11.380   4.101 -0.1789  0.3098  0.0505
 3801W        W18932   9.883  16.176  15.586  0.0961  0.3104  0.0519
 3802W        W18933  14.607   1.523   0.183 -0.1349 -0.2126 -0.2209
 3803W        W18934  14.628  15.283  13.013  0.2354 -0.3554 -0.4970
 3804W        W18935   3.032   4.968   2.556  0.1370  0.0306  0.0359
 3805W        W18936   1.891  16.734  12.289 -0.1158  0.1299  0.2041
 3806W        W18937  12.892  13.515  13.029  0.0215 -0.0991 -0.1395
 3807W        W18938   3.622  14.308   0.464  0.1766 -0.1737 -0.2102
 3808W        W18939  14.762   5.780   3.147 -0.1935  0.0763  0.0843
 3809W        W18940   0.714  10.887  13.225  0.1204 -0.3311 -0.1103
 3810W        W18941  10.842   7.996  15.690 -0.0551  0.1451  0.2467
 3811W        W18942   0.704  15.585  15.468 -0.2384 -0.0324 -0.1215
 3812W        W18943   1.818  10.458   0.760 -0.4570 -0.2555 -0.2522
 3813W        W18944  10.022   7.974   3.826 -0.0608  0.1270  0.2923
 3814W        W18945   3.843  10.762   2.569  0.2721  0.2421  0.0831
 3815W        W18946   8.420  15.183   4.093  0.1418  0.0618  0.3474
 3816W        W18947  14.236  15.925  16.858  0.2949 -0.0143  0.0218
 3817W        W18948  10.430   8.264  14.354  0.0455  0.1192 -0.1393
 3818W        W18949   2.531  16.186  12.681  0.1597 -0.2198 -0.1963
 3819W        W18950   6.946   1.473  14.929 -0.0023 -0.1733 -0.1436
 3820W        W18951  13.430  11.277   4.516  0.1239  0.0776  0.2642
 3821W        W18952  17.362  10.316  12.656 -0.0521 -0.2171  0.2078
 3822W        W18953  12.649   0.389  13.172 -0.3061 -0.1929 -0.3179
 3823W        W18954   6.320   5.607   3.560  0.0004 -0.2760  0.0176
 3824W        W18955  12.020  14.861  15.926  0.0086  0.1208 -0.0497
 3825W        W18956  16.304   6.362  12.577 -0.1284  0.3225 -0.1683
 3826W        W18957   8.779  15.200   1.272  0.0186 -0.0258 -0.0961
 3827W        W18958  12.190   1.642  12.765  0.0361 -0.0591 -0.0569
 3828W        W18959   8.269   8.936   3.908 -0.0965  0.1818  0.1798
 3829W        W18960  10.839   4.881  14.078  0.0468 -0.0291  0.3766
 3830W        W18961  14.841  16.789   4.856  0.3152  0.0533 -0.1018
 3831W        W18962   5.038   6.338  13.131 -0.1201 -0.0659  0.1874
 3832W        W18963   5.267   3.753  13.716  0.0663 -0.0306  0.3019
 3833W        W18964   6.547  14.438  11.464 -0.1346  0.2017 -0.2996
 3834W        W18965   3.535  10.777   3.348 -0.0297  0.0055  0.0486
 3835W        W18966   1.612   0.602   2.941  0.0734  0.0415 -0.2119
 3836W        W18967   5.602   5.673  16.335 -0.3864  0.0200  0.3783
 3837W        W18968   6.886  17.504  16.521  0.0895 -0.1715  0.0828
 3838W        W18969  13.969  10.619  15.891 -0.0823 -0.3419  0.2336
 3839W        W18970  10.627   9.509  13.665 -0.1227  0.4171  0.4245
 3840W        W18971   0.120   0.361  12.782 -0.0049  0.0302 -0.1929
 3841W        W18972  14.065   1.671  10.982  0.0927 -0.3602  0.1950
 3842W        W18973  15.479  16.902  11.336  0.0515 -0.2289  0.4690
 3843W        W18974  11.214  14.351  15.766 -0.1341  0.1075 -0.2551
 3844W        W18975   0.768  11.408   2.158  0.1010 -0.3930  0.1480
 3845W        W18976  12.533   4.325   4.185 -0.0188 -0.0449  0.1737
 3846W        W18977   3.629  16.453  11.453  0.2361  0.1148  0.0141
 3847W        W18978  16.503   8.252   3.054  0.3543  0.2060 -0.2273
 3848W        W18979  13.022   3.719   2.668  0.1863  0.0477  0.0292
 3849W        W18980  11.237   6.314  14.412 -0.0285 -0.3801  0.2638
 3850W        W18981  14.650   9.392  16.413 -0.2574 -0.1623 -0.1618
 3851W        W18982   2.846   3.209  14.090 -0.1580 -0.3119 -0.2399
 3852W        W18983  16.012   7.148   4.353  0.2138  0.0905 -0.2030
 3853W        W18984  13.200  15.080  15.407  0.0634 -0.2042  0.2468
 3854W        W18985  11.997  16.250   3.931 -0.0052 -0.2521 -0.1689
 3855W        W18986  12.958  11.279  11.750 -0.0316  0.0774 -0.1287
 3856W        W18987   1.902  16.820  16.732  0.0497 -0.0384 -0.0350
 3857W        W18988   8.866  14.739   1.478 -0.1508 -0.0115  0.0738
 3858W        W18989   3.793   9.640   2.995 -0.0824  0.0515 -0.2198
 3859W        W18990   3.416   1.144   2.967  0.0201 -0.1933 -0.1730
 3860W        W18991  11.509  11.953  13.831  0.1339  0.0602  0.0041
 3861W        W18992   6.970  15.832   4.088  0.1045 -0.1730  0.1358
 3862W        W18993  16.560   4.100  13.536  0.0326 -0.1671  0.0172
 3863W        W18994   5.690  13.671   3.639 -0.0889  0.0488  0.0723
 3864W        W18995   9.995  16.168  12.271  0.0302  0.2861  0.0044
 3865W        W18996   2.262   6.893  15.923 -0.0553 -0.1942  0.0700
 3866W        W18997   4.237   7.156   5.041 -0.1195  0.0070 -0.0929
 3867W        W18998   1.572  16.663  14.745 -0.1461 -0.3543  0.1914
 3868W        W18999   7.504   2.417  15.519  0.1207  0.0449  0.2215
 3869W        W19000   2.495  13.717   6.374  0.0392 -0.1327 -0.0497
 3870W        W19001  14.330   2.732  14.007  0.1554  0.2773  0.1602
 3871W        W19002   3.617  13.269  11.767 -0.2117 -0.0740  0.3572
 3872W        W19003   1.881  17.498  11.302 -0.0512 -0.0511 -0.5085
 3873W        W19004   7.449   9.599  12.864  0.1283  0.4531 -0.1424
 3874W        W19005  13.843   6.017   3.761 -0.0469  0.1231  0.0027
 3875W        W19006   9.907  15.332   1.417 -0.2631  0.0163  0.0090
 3876W        W19007  12.085   7.690   1.296 -0.0859 -0.0675  0.3315
 3877W        W19008   7.414  15.666   5.353 -0.1445 -0.1246 -0.0864
 3878W        W19009  14.919   2.125  12.549 -0.2687  0.0732  0.0671
 3879W        W19010   5.904   3.578  11.142  0.0283 -0.0603 -0.0664
 3880W        W19011   7.042   4.185  14.000 -0.0519  0.0044  0.2319
 3881W        W19012  12.022  10.139   2.137 -0.0680  0.1557 -0.1831
 3882W        W19013  11.076   7.298   0.498  0.1031  0.3074 -0.2196
 3883W        W19014   6.356   4.383  14.902 -0.1708  0.2246  0.0103
 3884W        W19015   6.159  11.194   0.381 -0.1214 -0.0116 -0.1447
 3885W        W19016   6.471   6.301  16.018  0.0362 -0.1283  0.0503
 3886W        W19017   1.700   2.548   3.522  0.0276 -0.1339  0.2712
 3887W        W19018   1.457   1.420   2.222 -0.1599 -0.2657 -0.2623
 3888W        W19019  16.569  16.534  16.660  0.3130 -0.3764 -0.0022
 3889W        W19020   8.649  12.209   3.688  0.0042 -0.0237  0.0012
 3890W        W19021  12.898   6.291  16.000  0.4069  0.0319  0.0209
 3891W        W19022   9.314   6.257  16.916  0.0633 -0.2824  0.0112
 3892W        W19023   9.312   7.698   3.428 -0.3513  0.1046 -0.0579
 3893W        W19024   6.745   1.319  16.335 -0.1477 -0.0191 -0.0033
 3894W        W19025   1.606   0.264   3.572 -0.0442 -0.1710  0.0328
 3895W        W19026  12.181   1.276  13.352  0.0762  0.1141 -0.1611
 3896W        W19027   9.566  11.826  11.213 -0.1120 -0.1833 -0.2252
 3897W        W19028   0.502  14.316  12.108  0.0418  0.0994  0.0526
 3898W        W19029  14.773   7.919   0.456  0.3580 -0.1461 -0.3304
 3899W        W19030   2.287  17.200  14.867 -0.2421  0.0793  0.0845
 3900W        W19031  16.734   8.564   5.579 -0.0353  0.0779 -0.0782
 3901W        W19032   1.192   9.314  12.598 -0.0838  0.1888 -0.0208
 3902W        W19033   4.476  15.022   2.881  0.2514 -0.1790  0.2454
 3903W        W19034  14.523   0.182  13.978  0.1598 -0.1016 -0.0760
 3904W        W19035   7.643  10.956   4.579 -0.0258  0.0973 -0.1880
 3905W        W19036  12.975   4.803   3.080  0.1570 -0.1190  0.0737
 3906W        W19037   9.259   1.885   0.912  0.0182 -0.2795 -0.1306
 3907W        W19038   6.867  11.068  14.171  0.1171  0.3205 -0.0518
 3908W        W19039  10.650   5.136  12.195 -0.2811  0.1506  0.0293
 3909W        W19040  11.181   5.219   1.243 -0.1286 -0.0988  0.1170
 3910W        W19041  10.697   8.802  14.463  0.1675  0.1832 -0.3314
 3911W        W19042   7.838  13.253   2.540 -0.1236 -0.1166 -0.1089
 3912W        W19043   0.241  15.596   2.810 -0.0496  0.3731 -0.0385
 3913W        W19044   0.185   2.856   4.937 -0.0017  0.0526  0.1109
 3914W        W19045  14.133   5.338  15.552 -0.1868  0.2278  0.0926
 3915W        W19046   2.648   2.189  15.023 -0.0634 -0.1337 -0.1080
 3916W        W19047   5.759   8.732  16.219 -0.0162 -0.1522 -0.0316
 3917W        W19048  10.427   8.209   5.361  0.0107 -0.1004 -0.1197
 3918W        W19049   3.942  12.963  14.111  0.2735 -0.0722 -0.0142
 3919W        W19050  17.098  10.676  15.387  0.3021 -0.0846 -0.0368
 3920W        W19051   9.346  11.483   3.000 -0.1476  0.0662  0.0980
 3921W        W19052  14.161  13.813   4.116  0.1632  0.2282  0.1026
 3922W        W19053   9.727   8.952   4.925 -0.4230 -0.3810 -0.3001
 3923W        W19054   7.328   4.556  13.776 -0.0951 -0.0506 -0.0027
 3924W        W19055  12.887  10.097  15.354 -0.0886 -0.1829 -0.0508
 3925W        W19056   1.136   1.099  15.396  0.2327 -0.0098 -0.0537
 3926W        W19057  16.053   4.236  13.484 -0.1200  0.1716 -0.0416
 3927W        W19058  17.025  17.693  13.831  0.0211 -0.0203 -0.0271
 3928W        W19059   7.315  17.493  14.698  0.0218 -0.1209  0.2297
 3929W        W19060   7.487   3.521   4.336  0.1242 -0.0155 -0.1625
 3930W        W19061   0.648  16.927  13.120 -0.1293  0.0247 -0.2139
 3931W        W19062   2.296  12.890  11.726 -0.3207 -0.1052 -0.1151
 3932W        W19063   7.855  13.044  16.664 -0.0985 -0.1901 -0.3465
 3933W        W19064  10.692   5.607  15.164 -0.0037  0.3060 -0.2762
 3934W        W19065  10.176   7.851  12.924 -0.0912 -0.2942 -0.1517
 3935W        W19066  12.951   6.418  15.121 -0.0503  0.2253 -0.2201
 3936W        W19067   1.609   7.750  16.225  0.0732  0.0544  0.3381
 3937W        W19068  10.898  14.504   0.591 -0.1838 -0.1170  0.1319
 3938W        W19069  10.096  15.140  16.319 -0.1439 -0.0645 -0.0285
 3939W        W19070   7.109   8.547   2.520 -0.3396  0.0621 -0.1118
 3940W        W19071   4.578   7.371   0.008 -0.0331  0.0274  0.0103
 3941W        W19072   7.176  12.021  13.176  0.2902  0.0974 -0.1005
 3942W        W19073   6.286  16.768   2.822 -0.0838 -0.1343  0.0959
 3943W        W19074  15.172  17.285  13.153  0.2035  0.0376 -0.1887
 3944W        W19075  10.571   4.411   4.799  0.0063 -0.2754 -0.1476
 3945W        W19076   6.789  10.539   3.398 -0.0645  0.1593 -0.1874
 3946W        W19077   2.052  15.411   0.546 -0.0612 -0.2240  0.0354
 3947W        W19078  14.083  12.303  11.337 -0.2560  0.0809 -0.2277
 3948W        W19079   5.760   7.413  16.010 -0.4094  0.0270  0.0828
 3949W        W19080   6.913  11.425  14.577 -0.0487 -0.0827 -0.0663
 3950W        W19081  12.553   8.979   4.690  0.0619  0.0773 -0.0357
 3951W        W19082   9.052   2.938   3.537 -0.1967  0.0627 -0.0348
 3952W        W19083   0.699  16.847   5.898  0.2217 -0.0179 -0.1385
 3953W        W19084  17.328  10.179   1.763 -0.0268 -0.0925 -0.1685
 3954W        W19085   2.036   0.421   1.443 -0.0906 -0.0094 -0.0368
 3955W        W19086   0.569   8.883   2.739 -0.0848  0.5001 -0.0839
 3956W        W19087  15.968   3.329   3.427  0.3604  0.3073  0.0134
 3957W        W19088   3.196   0.011   0.898  0.0998 -0.0277 -0.2306
 3958W        W19089  16.362  17.508  16.396  0.0454  0.1479  0.2503
 3959W        W19090   6.612  13.650  15.895 -0.1759 -0.3115 -0.2919
 3960W        W19091  17.010  17.565   2.737  0.0098  0.1240  0.0663
 3961W        W19092   6.186  15.548   2.141 -0.0080 -0.3879  0.2504
 3962W        W19093  17.110   8.178   5.707  0.0851  0.0268 -0.1086
 3963W        W19094   6.633   2.468   1.581 -0.2892  0.0020  0.0040
 3964W        W19095   9.806  11.589   5.711 -0.1238 -0.2717  0.3004
 3965W        W19096   0.730   7.000   5.752  0.1901  0.0872 -0.0829
 3966W        W19097  11.144   9.722   0.377 -0.1955 -0.1666 -0.0942
 3967W        W19098   5.444   7.710  16.234 -0.2510 -0.0344 -0.1783
 3968W        W19099  10.340   7.407  13.152 -0.0352 -0.2072 -0.0252
 3969W        W19100  17.161  11.386   2.463 -0.0651 -0.0081 -0.2045
 3970W        W19101  14.318   1.187  12.678 -0.0326 -0.1213 -0.1081
 3971W        W19102  12.753  14.413  11.792 -0.1751  0.2739  0.3989
 3972W        W19103  12.594   3.507  16.013  0.0805 -0.3575  0.0208
 3973W        W19104  17.132   3.005  16.345 -0.2001 -0.1540  0.3004
 3974W        W19105  12.158   2.916  12.814 -0.0332  0.0646  0.1520
 3975W        W19106   2.020   1.377   3.917  0.1790  0.1775  0.1653
 3976W        W19107   6.102  13.634   6.612  0.1366 -0.0508 -0.2198
 3977W        W19108   3.483   5.111   5.261 -0.3895 -0.2976 -0.0912
 3978W        W19109   4.402   6.891   0.181  0.1080  0.0170  0.1595
 3979W        W19110   0.063  15.202  14.763 -0.0547 -0.0465  0.0874
 3980W        W19111   1.030   5.011  15.407  0.2266  0.0096 -0.2955
 3981W        W19112   3.363  15.280   3.737 -0.1654  0.0299 -0.2456
 3982W        W19113  12.373  15.210  14.654  0.0841 -0.0659  0.0236
 3983W        W19114  17.701   7.639   5.746 -0.1197  0.2189  0.3503
 3984W        W19115   6.892   7.797  12.011  0.3075 -0.1036 -0.2839
 3985W        W19116   6.817  10.792   6.010  0.3858 -0.2269  0.0458
 3986W        W19117  15.922  14.313   1.338  0.1387  0.1146 -0.2739
 3987W        W19118  11.657   6.561  14.670  0.1134  0.1718  0.0824
 3988W        W19119   4.433  10.854   1.209  0.2028 -0.0809  0.1865
 3989W        W19120  14.038   6.727   4.111  0.0824  0.1134 -0.2243
 3990W        W19121   2.723   5.857   2.157  0.2622 -0.1422 -0.2135
 3991W        W19122   6.201   9.562   5.177  0.0556 -0.1571  0.1281
 3992W        W19123  16.194  14.318  14.203 -0.1801  0.3315 -0.1890
 3993W        W19124  12.009   1.494  11.954  0.0762  0.2016  0.0079
 3994W        W19125   5.738  16.806  12.181  0.1044 -0.0596  0.1366
 3995W        W19126   9.572   1.779  14.648 -0.2615  0.3397  0.0872
 3996W        W19127   1.829  14.014  15.598 -0.0528 -0.0228  0.2156
 3997W        W19128  14.100  12.692  14.433  0.0696  0.4569 -0.0761
 3998W        W19129   2.886  11.608  13.590 -0.0668  0.0681 -0.3046
 3999W        W19130  15.019  11.992  12.901  0.2441 -0.1811 -0.1983
 4000W        W19131   0.580  13.306  11.359  0.1072  0.1272 -0.2461
 4001W        W19132   4.892  10.932   5.795  0.0027 -0.0516 -0.2092
 4002W        W19133   6.197  13.049  14.721 -0.1323  0.1619  0.1540
 4003W        W19134  11.271   8.182   2.036  0.3404 -0.0533 -0.0487
 4004W        W19135  13.443  11.255   0.543  0.1078  0.1189 -0.1151
 4005W        W19136   4.620   6.569   2.794  0.0972  0.2337  0.0043
 4006W        W19137  12.862   0.901   3.362  0.0816  0.1963 -0.3701
 4007W        W19138  14.007   8.660   5.708  0.1372  0.0557  0.0272
 4008W        W19139   0.782   6.749  12.176 -0.2409 -0.0302 -0.0620
 4009W        W19140   9.019  12.971   1.394  0.1892 -0.1454 -0.2274
 4010W        W19141  15.089   8.070   2.691  0.2307  0.1243  0.3671
 4011W        W19142   8.172  11.510   4.803  0.2479  0.3683 -0.0436
 4012W        W19143  15.584  10.062  12.732  0.0250 -0.0818  0.2533
 4013W        W19144  14.878  13.240   0.183  0.0347 -0.0343  0.1641
 4014W        W19145  16.685   0.829   4.836  0.0626 -0.0612  0.2279
 4015W        W19146   1.271   3.373   1.394  0.1766  0.0506  0.0782
 4016W        W19147   0.981   1.093   2.664 -0.1302  0.1320  0.1608
 4017W        W19148   1.378   4.454  13.068  0.1966  0.2752 -0.1533
 4018W        W19149  15.137   9.646  13.112  0.1218 -0.0166 -0.0852
 4019W        W19150   8.673  12.428  12.183  0.0026  0.0207 -0.2853
 4020W        W19151   2.864   6.928   5.176  0.0206 -0.2665  0.0443
 4021W        W19152   7.448  12.748  12.486  0.1573  0.2159 -0.1298
 4022W        W19153  11.068   3.665   2.623  0.3176 -0.0079  0.2189
 4023W        W19154   5.983   0.109   5.877 -0.0860  0.0606 -0.2210
 4024W        W19155   0.859  13.805  12.780 -0.0246 -0.1492 -0.2277
 4025W        W19156   6.726  11.861   1.789 -0.0859 -0.3069  0.3548
 4026W        W19157  11.272  15.852  13.364  0.4227  0.1128  0.1054
 4027W        W19158   2.564  10.638  13.101 -0.0560  0.1158 -0.1616
 4028W        W19159   3.305   9.353  16.211 -0.0353 -0.2920 -0.1595
 4029W        W19160   8.504   2.124  13.181 -0.0659 -0.1765 -0.1992
 4030W        W19161   2.229  13.082  12.172 -0.1012 -0.2233  0.0812
 4031W        W19162  11.707   5.738  15.375  0.2354  0.0568  0.0311
 4032W        W19163  12.464  10.680  14.311 -0.0179  0.0202 -0.1873
 4033W        W19164   8.010   6.031   1.965 -0.0043 -0.1907 -0.1651
 4034W        W19165   1.645  10.876   1.080  0.1925 -0.1796  0.0889
 4035W        W19166   9.377   2.948  13.977 -0.2961 -0.0724  0.1391
 4036W        W19167  10.290  15.095   4.048 -0.1088  0.0336 -0.1079
 4037W        W19168   6.718   2.962  13.423 -0.3337  0.0216 -0.2757
 4038W        W19169   2.319  16.500  15.167 -0.2199 -0.2756  0.1006
 4039W        W19170  13.469   7.099   5.164 -0.1471  0.3240  0.2047
 4040W        W19171   5.941   2.711  16.027  0.2463 -0.0091 -0.0864
 4041W        W19172   1.890  12.283   4.949 -0.1461 -0.0762  0.1598
 4042W        W19173   4.692   7.902  11.096  0.0967 -0.2867 -0.1638
 4043W        W19174  15.753   1.678   1.603 -0.0836  0.1324 -0.1753
 4044W        W19175   7.178  16.139   1.503 -0.1625 -0.3550 -0.2145
 4045W        W19176   4.017   5.118  12.417 -0.1630  0.1676  0.1108
 4046W        W19177  15.270   3.459  11.850 -0.0677 -0.0221  0.0908
 4047W        W19178   7.021   2.915  11.007  0.0345 -0.0208 -0.0305
 4048W        W19179   9.192  11.294  14.567  0.1393  0.1583 -0.3360
 4049W        W19180   2.918   8.589  15.834  0.0378  0.4740  0.1636
 4050W        W19181   8.791   2.398   5.314 -0.2420  0.1418 -0.1234
 4051W        W19182   8.020   9.303  15.140  0.1192 -0.1699  0.0633
 4052W        W19183  15.698  13.747   0.216  0.1221 -0.1407  0.2636
 4053W        W19184  16.238   6.440   1.132  0.0081 -0.1563 -0.0120
 4054W        W19185  11.237  10.506   5.475 -0.2713  0.0687 -0.1133
 4055W        W19186   9.713   3.907  13.542 -0.2396  0.0162 -0.1714
 4056W        W19187   2.538  11.407   0.300  0.2568  0.0845 -0.0776
 4057W        W19188   9.752   5.961   2.918  0.4040 -0.2657  0.0139
 4058W        W19189  16.586  16.407   1.408 -0.1284 -0.2585  0.0966
 4059W        W19190   8.195   9.350  16.822 -0.0678 -0.0080  0.1075
 4060W        W19191   8.544   0.242   3.985 -0.3010 -0.0917 -0.1020
 4061W        W19192   4.506   5.044  14.812  0.2625  0.0307  0.1820
 4062W        W19193  14.358   5.424  16.724  0.2308 -0.3729 -0.1502
 4063W        W19194  12.654   7.582   1.547  0.1945  0.0547 -0.6143
 4064W        W19195   0.079   9.683  13.687  0.1695 -0.2226  0.2873
 4065W        W19196   2.611   5.714   3.937  0.0376  0.0847  0.0704
 4066W        W19197  14.687   3.026   4.109  0.0215  0.0741  0.0096
 4067W        W19198   3.225  16.398   3.165  0.0753  0.0180 -0.0124
 4068W        W19199   9.306   1.810  13.763 -0.0673  0.1334 -0.1160
 4069W        W19200  14.707   2.692   3.177  0.3077  0.1217 -0.0053
 4070W        W19201  14.583   3.109  13.244 -0.2085  0.0599 -0.1328
 4071W        W19202   6.241   4.450  12.923 -0.1191  0.4024  0.3652
 4072W        W19203  16.494   1.904  14.802  0.1476  0.2035 -0.2669
 4073W        W19204  15.121   5.385   1.648 -0.3303 -0.1626 -0.0369
 4074W        W19205   7.068   9.952  11.619  0.0791  0.0232  0.1955
 4075W        W19206  10.877   4.160   4.358  0.3528  0.3218 -0.0237
 4076W        W19207  15.037   4.253   3.585 -0.2006 -0.1231 -0.2675
 4077W        W19208  14.863   0.303  15.339 -0.0611 -0.2552 -0.0782
 4078W        W19209   5.334  12.539  14.923 -0.1445 -0.0844  0.1633
 4079W        W19210  13.234   6.423  15.570  0.2026 -0.0514 -0.0221
 4080W        W19211  15.765   4.576  11.457  0.2660  0.2621 -0.1116
 4081W        W19212  17.371   1.368  12.403  0.1842 -0.0195  0.1566
 4082W        W19213   8.200  14.483   2.989 -0.0540  0.0552  0.1926
 4083W        W19214   3.156  11.757   4.462  0.1094 -0.1802  0.1656
 4084W        W19215   1.482   8.743   4.619  0.1811 -0.0985 -0.2729
 4085W        W19216   1.056   1.647  11.498  0.1199  0.0675 -0.1515
 4086W        W19217   1.083   9.476  16.614  0.2389 -0.4994  0.1079
 4087W        W19218  10.667   8.922   3.500 -0.0960 -0.0405  0.0313
 4088W        W19219  14.406  13.021   3.114  0.1016  0.0869  0.4537
 4089W        W19220  17.379   4.883  14.155 -0.1506 -0.1144 -0.0346
 4090W        W19221   7.831   3.452  12.176 -0.1284  0.2128 -0.0464
 4091W        W19222   6.567  17.646   5.852  0.2258  0.3966  0.1993
 4092W        W19223   5.771   8.235  11.160  0.1135  0.0877 -0.2482
 4093W        W19224   4.106   6.837  15.287  0.0421 -0.0417 -0.2285
 4094W        W19225  12.076   4.200  11.453  0.0859 -0.1198 -0.1450
 4095W        W19226   6.429   2.798   0.060  0.0556 -0.2417  0.2101
 4096W        W19227  14.016  14.495  14.323 -0.0936 -0.1040  0.0768
 4097W        W19228  12.043   5.851  12.003 -0.2010  0.0486 -0.3288
 4098W        W19229   7.611  14.583   0.910 -0.1156  0.0989  0.2402
 4099W        W19230  16.399  10.773  11.096 -0.3071  0.0198 -0.1161
 4100W        W19231  13.897  16.127   0.257  0.2754  0.0843 -0.0567
 4101W        W19232  17.175   6.371  14.325  0.0532  0.0335 -0.1518
 4102W        W19233  16.955  13.279  10.935 -0.2472  0.2084 -0.2440
 4103W        W19234   8.704   6.589   4.955  0.3424  0.0317  0.0939
 4104W        W19235  10.259   0.098   4.010 -0.0487 -0.1781 -0.0299
 4105W        W19236   1.679  15.755  15.482  0.1656 -0.2296 -0.1351
 4106W        W19237   8.090   2.792   2.153  0.0365  0.2076 -0.3275
 4107W        W19238   0.486   9.446  13.529 -0.1813  0.6139 -0.2841
 4108W        W19239  17.314  11.661   2.922 -0.3190  0.0700  0.1177
 4109W        W19240   4.418  10.514   3.737 -0.2214  0.2312 -0.1086
 4110W        W19241   1.035   8.676   6.149  0.0760  0.1268 -0.1175
 4111W        W19242  16.662  16.652   1.959  0.2601 -0.0143  0.0585
 4112W        W19243   5.197   0.275   5.186  0.1735  0.1189 -0.0939
 4113W        W19244  16.341  11.255   0.264 -0.0653 -0.0480  0.5057
 4114W        W19245   8.826   8.689  11.914 -0.2963  0.1751 -0.1735
 4115W        W19246   9.838  13.631   3.750  0.2180 -0.0214 -0.0908
 4116W        W19247   0.101  11.473  12.311  0.0138 -0.0745 -0.3390
 4117W        W19248  16.957   5.089  14.281 -0.4055  0.0155 -0.1010
 4118W        W19249   9.956  11.629   3.604  0.2243  0.0528  0.2696
 4119W        W19250   0.261   9.965  10.898 -0.2281 -0.0541  0.1656
 4120W        W19251  10.705  16.259   3.172 -0.0533 -0.0211 -0.0636
 4121W        W19252   3.154  12.919  16.739 -0.1028 -0.0661 -0.3176
 4122W        W19253   2.324   4.516  13.435 -0.2727 -0.4792  0.2273
 4123W        W19254   0.894   3.183  14.304 -0.3349 -0.0552  0.3350
 4124W        W19255  17.064   4.056  15.660 -0.2007  0.0786  0.0294
 4125W        W19256   0.642  10.578   4.293  0.3521  0.1149  0.0633
 4126W        W19257  13.810   6.753  14.218 -0.0084  0.1001 -0.0569
 4127W        W19258  14.338   1.322  15.805  0.3853 -0.0111  0.1911
 4128W        W19259   0.062  10.278  14.795 -0.2781  0.2855 -0.2522
 4129W        W19260  16.689   8.398   0.851  0.0466 -0.2516  0.0407
 4130W        W19261  11.530   4.957   2.562 -0.1226  0.2197 -0.2717
 4131W        W19262  17.252   8.979  16.040  0.0443 -0.1709  0.0757
 4132W        W19263  12.262  16.107  11.879  0.3010 -0.1728 -0.3197
 4133W        W19264  12.843  17.436  11.871  0.2226  0.0795  0.1729
 4134W        W19265   2.450  11.650  14.571  0.1287 -0.3344 -0.3602
 4135W        W19266  15.120  16.204  13.268 -0.0041  0.1636 -0.0703
 4136W        W19267  11.553   0.559  13.839 -0.0105  0.0400 -0.1965
 4137W        W19268  14.034  15.743  12.010 -0.1277  0.0599 -0.0868
 4138W        W19269   0.968  10.878  13.929 -0.4211  0.0482  0.0754
 4139W        W19270   7.766   6.538  15.559  0.0963  0.1718 -0.1621
 4140W        W19271  14.122   4.668   1.203 -0.0098 -0.3138  0.2601
 4141W        W19272  13.285  16.460  16.775 -0.1981 -0.1565 -0.1299
 4142W        W19273   1.015  15.042  16.686  0.0977 -0.2990  0.0952
 4143W        W19274  13.370  11.781  12.874 -0.1132 -0.0033  0.1918
 4144W        W19275  14.428   1.948  13.717  0.0041 -0.2153 -0.1594
 4145W        W19276  17.242  12.735  14.746  0.0044  0.1187  0.1782
 4146W        W19277   9.264  15.374   4.350  0.0162 -0.0221  0.0181
 4147W        W19278  15.536   9.369   1.735 -0.3894  0.1929 -0.1989
 4148W        W19279  11.464   3.139  15.497 -0.1954  0.1609  0.3542
 4149W        W19280   0.899  12.135   4.717  0.2127  0.1804  0.0255
 4150W        W19281  10.406   9.670  14.054 -0.1359 -0.0250 -0.1655
 4151W        W19282   3.819  13.260   5.357  0.2423  0.0285 -0.1042
 4152W        W19283  17.311   5.707   2.979 -0.4745  0.0796 -0.0087
 4153W        W19284  13.723  11.454   0.953  0.1496 -0.0221 -0.0521
 4154W        W19285   9.219  10.636   0.256  0.0861  0.1949  0.1142
 4155W        W19286   9.358  10.546   2.804 -0.1684  0.0632  0.4392
 4156W        W19287   8.963  15.476  13.649  0.0509  0.5065  0.0786
 4157W        W19288   9.824  15.369  14.380  0.0437  0.1287 -0.0031
 4158W        W19289  12.660  15.723   5.832 -0.1009 -0.2724 -0.2618
 4159W        W19290   6.240   3.732   4.639  0.1054 -0.0157 -0.2196
 4160W        W19291  15.415   8.725  14.713 -0.0413  0.3357 -0.0006
 4161W        W19292  15.698   1.774   2.473 -0.1542  0.1325 -0.0497
 4162W        W19293   9.955  12.010  15.504 -0.4860 -0.1536  0.1251
 4163W        W19294   8.263   5.820   2.481  0.0260 -0.1150 -0.0872
 4164W        W19295   6.318  13.127  13.271 -0.0508 -0.1552 -0.4029
 4165W        W19296   2.344  12.375   4.196 -0.1914 -0.1633  0.0868
 4166W        W19297   4.277   7.946   1.761 -0.0469 -0.2317 -0.0649
 4167W        W19298  15.161  11.561   3.610 -0.1072 -0.2142  0.0572
 4168W        W19299  12.279  16.590   4.162 -0.1323  0.1570  0.1749
 4169W        W19300   3.327   4.833  11.862 -0.0199 -0.4493  0.2443
 4170W        W19301   4.375   1.401   0.657  0.0704  0.0916 -0.1314
 4171W        W19302  12.108  17.333  15.049  0.0108 -0.0622 -0.0405
 4172W        W19303  13.967   0.329  11.329  0.1924 -0.2392  0.2363
 4173W        W19304  15.265   8.591   2.687  0.2484  0.0175 -0.1038
 4174W        W19305   7.216   6.449   2.153 -0.1769  0.0527  0.1349
 4175W        W19306   3.758   1.149   2.554 -0.1535  0.1013 -0.2171
 4176W        W19307   1.052   5.370   5.024 -0.1690  0.0592  0.1531
 4177W        W19308  15.536  14.478  11.864  0.1155 -0.1371 -0.0057
 4178W        W19309  16.289  15.845   6.310 -0.0678  0.0443 -0.0949
 4179W        W19310  13.790   2.614   3.070 -0.0716  0.0473 -0.2203
 4180W        W19311   0.033  16.427  11.282  0.0776  0.1203 -0.0566
 4181W        W19312   9.491  15.141  15.256 -0.1894  0.1818  0.0684
 4182W        W19313   7.305   0.203   1.098  0.3230 -0.1954 -0.1858
 4183W        W19314   3.327   0.181   3.546  0.1099  0.1820  0.0610
 4184W        W19315   5.383  12.876   1.260 -0.0917 -0.0340 -0.2029
 4185W        W19316   6.093   0.959  13.883  0.1464  0.0188  0.1088
 4186W        W19317  15.318   4.146   4.246 -0.0866  0.1699  0.2696
 4187W        W19318   0.231   7.726  16.500  0.0052 -0.1922  0.1950
 4188W        W19319   9.697  10.351  12.709  0.1675  0.3792 -0.0192
 4189W        W19320  15.818   9.233  13.527 -0.2166 -0.2012 -0.2334
 4190W        W19321   2.402   1.769  13.656  0.0841 -0.0740 -0.0654
 4191W        W19322   3.641  12.677  13.333  0.4227  0.2024  0.3332
 4192W        W19323   5.411  16.945   2.921 -0.1046 -0.0058  0.1309
 4193W        W19324   2.426   8.367  15.888  0.1703 -0.3729 -0.2195
 4194W        W19325   5.776  16.324  15.242 -0.1921 -0.0469 -0.0173
 4195W        W19326   4.442  11.503   5.090  0.1095  0.3384 -0.0564
 4196W        W19327  13.417  16.721  13.738  0.2383 -0.0806  0.2505
 4197W        W19328   1.845  13.887   4.291 -0.1754 -0.1310  0.0329
 4198W        W19329   6.477  14.912   6.256  0.1349 -0.0956  0.3327
 4199W        W19330  11.787  10.200  12.069 -0.1889 -0.2098 -0.0616
 4200W        W19331   3.836  17.210  12.612  0.1449  0.1069 -0.1658
 4201W        W19332   9.489  17.318  16.930  0.4619 -0.1953  0.3047
 4202W        W19333   3.174   8.612   4.252 -0.1824 -0.0459  0.0618
 4203W        W19334  12.104  11.322  16.704  0.0146 -0.2736  0.0087
 4204W        W19335   6.080  16.415   2.466  0.0786  0.3005  0.2176
 4205W        W19336   1.090  11.770  14.770 -0.4031  0.0312 -0.1374
 4206W        W19337   9.745  15.093  12.490  0.0350 -0.1445  0.1222
 4207W        W19338   1.797   1.941   0.257  0.0793 -0.0354 -0.2451
 4208W        W19339   2.564  15.045   5.371  0.0865  0.2174  0.3812
 4209W        W19340   1.161  14.212   4.292 -0.0189  0.0161 -0.4401
 4210W        W19341   6.630   1.064  14.891 -0.0253 -0.0575 -0.0319
 4211W        W19342   5.139  13.522  15.904  0.0587  0.2512  0.2129
 4212W        W19343   0.334  17.031  12.742 -0.2056  0.1747  0.1764
 4213W        W19344   0.494   2.470   4.933  0.3136  0.0290 -0.1600
 4214W        W19345   9.876  17.230   2.607  0.0790  0.1101 -0.2358
 4215W        W19346  15.850  10.764  10.978 -0.3087  0.0770 -0.1518
 4216W        W19347  12.845   8.756   2.582  0.3117  0.0868 -0.1381
 4217W        W19348  17.414   7.229   4.616  0.0976 -0.1236 -0.0036
 4218W        W19349  16.911   7.725  14.719  0.1855 -0.2706 -0.1016
 4219W        W19350  16.248  13.437  13.194 -0.4938  0.0994 -0.2156
 4220W        W19351  17.180   6.630  12.607  0.0936 -0.2571  0.2600
 4221W        W19352  11.131   7.262  16.300 -0.1073 -0.0071  0.1526
 4222W        W19353  10.002  11.809   0.835  0.1056 -0.0102  0.0675
 4223W        W19354  15.556  13.145   1.857 -0.0996  0.1573 -0.0962
 4224W        W19355  13.633   8.181   1.615 -0.5030  0.0570  0.0528
 4225W        W19356   9.914   2.203   6.135 -0.0256  0.3400 -0.0951
 4226W        W19357   6.938  12.829   5.376 -0.0656  0.0720 -0.0083
 4227W        W19358   7.568  12.278  15.609  0.0309 -0.0004 -0.1923
 4228W        W19359  17.668  17.360   0.763  0.1814  0.1864 -0.2066
 4229W        W19360   2.085  11.071   5.458 -0.0701 -0.0716 -0.2563
 4230W        W19361   8.152   5.450  11.179 -0.0350 -0.2131 -0.2106
 4231W        W19362   5.479  13.710  12.862  0.1136  0.0133  0.0703
 4232W        W19363  14.386   6.950   1.517 -0.1281 -0.0243  0.0693
 4233W        W19364   2.424  11.726   2.155 -0.2420  0.0233 -0.0847
 4234W        W19365   5.110   0.841   3.219  0.0647 -0.0768 -0.1271
 4235W        W19366  15.389  14.693   4.593 -0.1003 -0.2695  0.1888
 4236W        W19367  10.783   5.950   0.796  0.0574 -0.0592 -0.1649
 4237W        W19368   6.662   4.660  14.544  0.0557  0.1017 -0.0456
 4238W        W19369  13.155  11.219   5.680 -0.0068 -0.0386 -0.0441
 4239W        W19370   6.447  12.998  16.926 -0.0603 -0.0912 -0.4804
 4240W        W19371   2.779  10.597  13.888  0.0894  0.0211  0.3528
 4241W        W19372   8.578   2.124   4.568 -0.0291  0.1574 -0.0600
 4242W        W19373  13.223   3.665  14.913 -0.1819 -0.0457 -0.1702
 4243W        W19374   4.239   8.809   3.318 -0.0723 -0.2127 -0.0211
 4244W        W19375  14.106   9.111   3.281 -0.0596  0.0493 -0.0055
 4245W        W19376   3.187   2.146  16.578  0.1164  0.0644 -0.0671
 4246W        W19377   3.026   5.003  11.539  0.0481 -0.1866  0.1051
 4247W        W19378  16.975  10.721  12.622  0.0128 -0.0735  0.2320
 4248W        W19379   0.140   0.173  13.889 -0.1655 -0.1143  0.2430
 4249W        W19380   5.130   7.316   2.485 -0.0370 -0.2265 -0.2466
 4250W        W19381   0.094  11.033  13.367 -0.1184 -0.1336 -0.0718
 4251W        W19382   4.169   1.291  11.275  0.0013  0.0208 -0.0986
 4252W        W19383  12.869  10.638  16.144 -0.1587 -0.1358 -0.1026
 4253W        W19384   6.376   3.916  12.793  0.0776  0.0620 -0.0067
 4254W        W19385   1.922   0.210  14.584 -0.1441 -0.0037 -0.0450
 4255W        W19386   9.469   3.640  15.533 -0.1889  0.2020  0.2036
 4256W        W19387  15.111  16.927  16.516  0.0063 -0.0663 -0.1133
 4257W        W19388   5.877  13.123   2.568  0.0102 -0.0803  0.0550
 4258W        W19389   9.899   3.217   0.610  0.0385 -0.0882 -0.1817
 4259W        W19390   4.070  11.564   3.420 -0.1865 -0.1426  0.1334
 4260W        W19391   7.659  17.245   4.050 -0.0549 -0.2455 -0.1371
 4261W        W19392  16.125   4.938  16.643 -0.2154  0.0087  0.0085
 4262W        W19393   5.098   7.862   1.697 -0.0281 -0.0858 -0.3974
 4263W        W19394  10.772   1.753  10.723 -0.0743 -0.1064  0.2475
 4264W        W19395   5.988   7.910  14.110 -0.1161  0.0956  0.3396
 4265W        W19396   8.865   7.536  12.822  0.2410  0.0410  0.0924
 4266W        W19397   1.460  10.535   5.154 -0.0069 -0.1566  0.2460
 4267W        W19398   4.782  12.195  12.905 -0.0042 -0.2313 -0.1272
 4268W        W19399   6.280   2.681  15.209 -0.1955 -0.0137  0.0833
 4269W        W19400   3.218   5.861  11.155 -0.1070 -0.5570  0.3592
 4270W        W19401   6.916  14.682   3.396 -0.0453  0.1101  0.0052
 4271W        W19402  13.686   4.353   5.422 -0.0252 -0.1160 -0.1465
 4272W        W19403  14.074   0.666   1.774 -0.2294 -0.0160 -0.0921
 4273W        W19404  10.996  11.477  13.649 -0.1790  0.2364  0.0149
 4274W        W19405   4.001  14.148   0.187  0.0654 -0.0533  0.1003
 4275W        W19406   9.200   3.391   0.473 -0.0706  0.0721 -0.3600
 4276W        W19407  12.367  12.464  14.907  0.1709  0.0248 -0.1761
 4277W        W19408  11.198  14.797   1.335  0.3457 -0.1649 -0.0720
 4278W        W19409  12.213  16.706   5.974 -0.2106  0.0588 -0.0801
 4279W        W19410   7.446  10.676   1.861 -0.1063 -0.1724  0.2581
 4280W        W19411  15.019  12.946  12.631  0.3220  0.1175  0.1521
 4281W        W19412  15.288   8.060   1.341 -0.2880 -0.1282 -0.2233
 4282W        W19413  14.170  16.103  13.360  0.1127  0.1620  0.2505
 4283W        W19414  13.848   2.386   1.321 -0.0048  0.1449  0.1623
 4284W        W19415   2.625  14.553  12.455 -0.1382  0.1235 -0.5157
 4285W        W19416   5.043  13.984   5.739 -0.0757  0.0735  0.2349
 4286W        W19417   9.546  15.732  14.560  0.3559 -0.0113  0.3076
 4287W        W19418   8.433   5.764   1.728  0.1686  0.1989 -0.2235
 4288W        W19419  15.537   5.173   3.261 -0.1207  0.1082 -0.0531
 4289W        W19420   7.957   0.601   0.766  0.1956  0.2390  0.1821
 4290W        W19421   5.858  13.987   2.677 -0.0516 -0.0256  0.0865
 4291W        W19422   2.775  17.508  11.348 -0.1755  0.1344  0.0918
 4292W        W19423  16.802   0.697   0.366 -0.1766 -0.1358 -0.0172
 4293W        W19424  15.018   7.604   4.610  0.0571  0.2082 -0.0616
 4294W        W19425  10.569   3.049  11.720 -0.1724  0.0284  0.6163
 4295W        W19426  14.545  16.544  14.208 -0.1797  0.0200  0.1531
 4296W        W19427   9.716   8.360   5.080 -0.1609  0.0385  0.4163
 4297W        W19428  12.480   2.278   1.192 -0.0599  0.3866 -0.5047
 4298W        W19429   0.600   9.624  14.992  0.1355  0.3639 -0.2005
 4299W        W19430  12.880  17.313   4.054  0.0571 -0.1893 -0.1029
 4300W        W19431   7.526   5.334  15.922  0.1860 -0.1251 -0.2009
 4301W        W19432  17.425  13.477  11.719  0.0319  0.0835 -0.0081
 4302W        W19433   0.735   6.821  16.930 -0.1925 -0.1235  0.0625
 4303W        W19434   3.604  10.002   2.217  0.0684 -0.2796 -0.0464
 4304W        W19435   6.468  17.458  15.131  0.3976  0.1886 -0.2103
 4305W        W19436   8.571  17.040   2.788 -0.1336 -0.0604 -0.1877
 4306W        W19437   7.583   8.692  11.312  0.0387  0.3225  0.0947
 4307W        W19438  16.544  10.810   1.546  0.2735 -0.0740 -0.0983
 4308W        W19439  10.576   5.869  14.706  0.2675 -0.1741 -0.1849
 4309W        W19440  16.634   0.295  14.241  0.2701  0.1209  0.1741
 4310W        W19441   6.975  13.440   4.075 -0.1287 -0.1787  0.0922
 4311W        W19442   6.698   8.376   2.760 -0.3016 -0.1166  0.0540
 4312W        W19443   0.944  14.811   1.875  0.1455 -0.2572  0.0111
 4313W        W19444  11.561   0.516   0.843  0.1865  0.2794  0.3103
 4314W        W19445  13.865  14.808  16.218  0.4323  0.3081 -0.0903
 4315W        W19446  10.765   4.467  16.421  0.0185  0.1357 -0.0348
 4316W        W19447   9.299  16.024  12.922  0.0179  0.0292  0.1157
 4317W        W19448  14.458  15.540   5.578 -0.0551  0.0885  0.1855
 4318W        W19449   7.084  15.364   2.128 -0.1733 -0.0865 -0.0460
 4319W        W19450  15.817   2.201  15.717 -0.0209  0.0390 -0.1007
 4320W        W19451   4.129   6.254  12.494  0.1869 -0.0678  0.0611
 4321W        W19452   7.018   1.498   3.016  0.1095 -0.0075  0.2257
 4322W        W19453  13.714   8.216  11.305  0.2474 -0.1018  0.1692
 4323W        W19454  11.130  13.440  13.992  0.0588  0.0509  0.0762
 4324W        W19455   6.703  14.630  10.910  0.0648 -0.2779  0.2737
 4325W        W19456   5.668   6.664   2.091 -0.1294 -0.0601  0.2982
 4326W        W19457   1.392   8.498  12.605  0.2234 -0.2689  0.3386
 4327W        W19458   5.705   6.151  12.168  0.1070  0.1170  0.2391
 4328W        W19459   2.603  16.143   2.975 -0.1722  0.1897  0.0061
 4329W        W19460   6.976   9.734   4.988  0.2539  0.1130  0.3074
 4330W        W19461  13.173   5.819  15.977 -0.0618 -0.1937 -0.1249
 4331W        W19462   3.509   6.066   0.539  0.0113 -0.1458 -0.2134
 4332W        W19463   8.884   5.913   3.154 -0.1210  0.1307  0.0288
 4333W        W19464   5.817  16.719  12.846 -0.2935 -0.1158 -0.0758
 4334W        W19465  14.928  17.419  16.547 -0.1582  0.1142 -0.0603
 4335W        W19466  12.170   4.888   3.009  0.1253 -0.3558 -0.0144
 4336W        W19467  12.636   1.606  14.037 -0.0106  0.1490  0.1199
 4337W        W19468  16.407   8.887  14.784  0.3294  0.1288 -0.0676
 4338W        W19469  16.276   5.102  10.768  0.0276  0.1634  0.0672
 4339W        W19470  16.626  11.471  12.531 -0.1212  0.0401  0.1592
 4340W        W19471  11.393   2.786   5.848  0.0122 -0.0970 -0.2455
 4341W        W19472   9.873   1.088   5.085  0.2544 -0.0635  0.1943
 4342W        W19473   7.792  12.649   5.802 -0.1749  0.3162 -0.0108
 4343W        W19474  13.445  12.524  12.070 -0.3140  0.1720 -0.1034
 4344W        W19475   6.956   1.997   2.978 -0.2324  0.0612  0.1312
 4345W        W19476  13.722   1.818   2.374  0.0260 -0.0985 -0.0827
 4346W        W19477  10.164   8.828   6.180 -0.1205 -0.1727 -0.1561
 4347W        W19478   2.900   1.896  12.136  0.0447 -0.1062  0.0326
 4348W        W19479  10.685   9.896   0.530 -0.2214  0.2071  0.0139
 4349W        W19480   5.106  16.911   4.585  0.2322  0.0622  0.2390
 4350W        W19481   4.623   8.880  10.385  0.1857  0.2176  0.1080
 4351W        W19482   4.139   9.307  11.016  0.0040 -0.0647 -0.0444
 4352W        W19483  16.281  12.698  14.874 -0.0498  0.2638  0.0602
 4353W        W19484  17.465   7.646   3.523  0.1043 -0.3107  0.0924
 4354W        W19485   9.481  17.028   2.930 -0.1827 -0.3098  0.0284
 4355W        W19486   3.047   4.112   4.678  0.0245  0.3975  0.2142
 4356W        W19487   4.475  10.871  14.556  0.1730 -0.0534  0.2381
 4357W        W19488  10.812   8.070  14.062 -0.1044  0.0797  0.0470
 4358W        W19489   3.821  12.054  11.414  0.0505 -0.1858  0.0124
 4359W        W19490  10.816   0.188  14.115 -0.0614 -0.1217 -0.0176
 4360W        W19491   7.699   3.876   0.577 -0.2257  0.2408  0.0128
 4361W        W19492   8.876   5.269  14.934 -0.0665 -0.0310  0.1779
 4362W        W19493   9.391  12.076  14.700 -0.0685  0.0165  0.0499
 4363W        W19494   4.990  11.477   3.764  0.3630  0.0533 -0.2259
 4364W        W19495  13.594   5.012  14.253 -0.1804 -0.1824 -0.0689
 4365W        W19496   7.397   4.457  10.232  0.1504  0.2718 -0.0655
 4366W        W19497  10.589   9.156  11.352  0.0705 -0.0788 -0.0212
 4367W        W19498  13.915   3.878  12.087 -0.1463  0.0494 -0.0688
 4368W        W19499   7.869  10.971  11.758  0.1179 -0.0681 -0.1549
 4369W        W19500  12.358   5.441  14.331 -0.3712  0.3066 -0.1349
 4370W        W19501  13.876   1.542  13.120  0.0172 -0.0355 -0.0284
 4371W        W19502  11.276   2.643  10.877  0.1182 -0.2081 -0.0130
 4372W        W19503   4.265  10.697   3.338 -0.0246  0.0000  0.1425
 4373W        W19504   0.396   6.529  16.158  0.0373  0.1053  0.0729
 4374W        W19505  13.523  16.840   0.452  0.0015  0.1686 -0.1060
 4375W        W19506   4.907  11.097   2.340 -0.0811  0.1597 -0.4216
 4376W        W19507  14.829   9.270   2.746 -0.0707  0.0483 -0.1361
 4377W        W19508   3.159   2.150  11.820 -0.2612 -0.0498  0.0558
 4378W        W19509  16.106   9.184   0.249  0.1710 -0.0828  0.1007
 4379W        W19510   6.513  15.938  13.404 -0.1776 -0.0464 -0.0581
 4380W        W19511  15.718  10.610   3.450 -0.0916  0.1336  0.0772
 4381W        W19512  12.842   4.334  14.360 -0.1779  0.0160  0.2007
 4382W        W19513   8.932   2.009  11.500  0.5147 -0.0812 -0.1903
 4383W        W19514   1.042  12.133   6.054 -0.0354 -0.3164 -0.0904
 4384W        W19515   1.471   7.947   0.745  0.5319 -0.0667 -0.1223
 4385W        W19516   4.232   8.903   5.357  0.0752  0.1220  0.0366
 4386W        W19517  16.303   3.377   4.091 -0.1418  0.1439  0.0528
 4387W        W19518  16.037   3.965   3.404 -0.0211  0.2469  0.0233
 4388W        W19519  14.148  15.104   5.853  0.2934 -0.1309 -0.1312
 4389W        W19520  11.596  12.445  11.479  0.0803 -0.0040 -0.1276
 4390W        W19521   6.996   8.363   5.335 -0.3626  0.0737  0.2109
 4391W        W19522  11.946  14.458   3.552  0.0146 -0.2645 -0.2956
 4392W        W19523   1.859   4.923  14.884 -0.0037 -0.0791  0.0703
 4393W        W19524   1.974   8.110   1.471 -0.2160 -0.0151  0.0489
 4394W        W19525  12.691   6.676  11.964 -0.1071  0.0791  0.3080
 4395W        W19526  16.583   3.991  15.553 -0.3404 -0.0041 -0.0473
 4396W        W19527  14.649  13.653  12.419 -0.1907  0.1867  0.0217
 4397W        W19528   5.772   0.242  13.428 -0.1140 -0.1014 -0.0867
 4398W        W19529   0.435   9.612   4.311 -0.0069  0.1352 -0.0414
 4399W        W19530  17.501  14.769  14.483  0.2080  0.0998 -0.3328
 4400W        W19531  11.384   5.080  10.836 -0.0292 -0.1191 -0.0584
 4401W        W19532   3.242   0.417  14.875 -0.0174  0.2301  0.1335
 4402W        W19533  16.803   3.324   0.044  0.0097 -0.1120 -0.1032
 4403W        W19534   5.467  13.979  10.924 -0.1616 -0.0884 -0.1074
 4404W        W19535   4.147  15.938   6.379  0.0454 -0.1149  0.2455
 4405W        W19536  13.606   9.965  12.023  0.1517 -0.2654  0.2477
 4406W        W19537  14.100   6.392  14.057 -0.1027  0.2016 -0.0341
 4407W        W19538   6.338   6.546   5.093 -0.3186  0.2991 -0.0286
 4408W        W19539   6.996   8.319   4.071  0.2222  0.0592  0.0970
 4409W        W19540   2.355   1.955  15.977 -0.2199  0.1422 -0.1178
 4410W        W19541   9.400  10.743   3.486 -0.1156  0.0957  0.0985
 4411W        W19542  15.789  13.605   2.776  0.0968  0.0953  0.0537
 4412W        W19543   0.554   9.197  11.791  0.2489 -0.0737 -0.3553
 4413W        W19544   8.122  10.893   2.764 -0.0579  0.1455 -0.0964
 4414W        W19545   9.252  11.694   4.267 -0.0890  0.0035 -0.1827
 4415W        W19546   7.319   9.115  13.568  0.1355 -0.1578 -0.0436
 4416W        W19547   2.914   9.037  14.617  0.0573 -0.0011 -0.2287
 4417W        W19548  13.143   0.936  16.487  0.1065 -0.3227 -0.1053
 4418W        W19549   9.621   8.721  15.927 -0.0099  0.1469  0.0643
 4419W        W19550   6.415  13.149  15.222  0.2545 -0.0405 -0.0730
 4420W        W19551  14.223  15.968   1.354  0.0224  0.2280 -0.2343
 4421W        W19552   7.138   3.502  16.785  0.0438  0.4950 -0.2979
 4422W        W19553   5.651  14.058   0.670  0.2791 -0.0640  0.2694
 4423W        W19554  15.924  17.089  12.835  0.0910 -0.1635 -0.1908
 4424W        W19555   4.387  16.351   1.824 -0.2476  0.0029  0.6282
 4425W        W19556  12.942  11.417   0.621  0.0579 -0.0948  0.2888
 4426W        W19557  11.742   1.982   1.535 -0.2061 -0.0359  0.0859
 4427W        W19558   4.704   4.975  15.649  0.1450 -0.1781  0.0614
 4428W        W19559   0.534  12.573  16.559  0.5296 -0.0903  0.0124
 4429W        W19560  15.669  14.644   6.289 -0.0962 -0.1065  0.0360
 4430W        W19561  14.054   5.189   4.231  0.1176  0.0433 -0.0948
 4431W        W19562   2.012   3.576   2.715 -0.0610  0.0346 -0.1122
 4432W        W19563   5.242  16.878  14.178  0.2922  0.1482  0.0123
 4433W        W19564  17.682   2.473   0.928  0.0933 -0.2892  0.1187
 4434W        W19565   3.365   2.700  12.054 -0.2072  0.2319 -0.1773
 4435W        W19566  16.758   8.316  11.089  0.0025  0.0602  0.1890
 4436W        W19567   5.704   9.089   3.772 -0.1922  0.0062 -0.0459
 4437W        W19568   5.002   1.135  12.864  0.1516 -0.3087 -0.1452
 4438W        W19569   8.828   8.863   2.006 -0.1508 -0.0973  0.3218
 4439W        W19570   1.429   4.763   4.441  0.1301  0.0596  0.1004
 4440W        W19571   0.972  10.460  16.711  0.0706  0.2740 -0.0166
 4441W        W19572  10.571  17.491   6.028  0.1564  0.2099 -0.0749
 4442W        W19573  12.209   7.737  15.552  0.0683 -0.0809  0.0062
 4443W        W19574  17.306   4.951   5.760  0.2278 -0.0066  0.0896
 4444W        W19575  17.300   4.094   3.627  0.1526 -0.1729  0.0941
 4445W        W19576   2.386   9.030  13.791  0.0541 -0.0550 -0.3198
 4446W        W19577   7.727   9.230  16.604  0.2844 -0.2178 -0.0266
 4447W        W19578  16.890   5.864  16.005 -0.2609 -0.3877  0.0629
 4448W        W19579  16.617  12.999   4.054 -0.0269  0.0305  0.0479
 4449W        W19580   8.666   3.454  16.623 -0.3183  0.2859  0.0232
 4450W        W19581   9.817   6.330  13.543  0.0377 -0.0128 -0.0518
 4451W        W19582   1.906  11.489   3.682  0.0098  0.1307  0.3906
 4452W        W19583   3.240  14.458   2.475 -0.0993 -0.1902 -0.2100
 4453W        W19584   0.286  14.775  14.707 -0.2945  0.0521 -0.3367
 4454W        W19585   2.978   0.360   3.871  0.0579 -0.3298  0.0039
 4455W        W19586  11.460  12.169  12.287  0.1468 -0.1832 -0.0036
 4456W        W19587  10.235   5.611   1.478 -0.0029 -0.0152  0.1152
 4457W        W19588   6.416   2.001   1.777 -0.1489 -0.2125 -0.1578
 4458W        W19589   0.557   7.416   3.934  0.1545  0.2830  0.1051
 4459W        W19590   1.447   0.527   4.361  0.2051  0.1267  0.2330
 4460W        W19591  10.410   8.695  13.537  0.2122 -0.1462 -0.0009
 4461W        W19592   2.815  14.973   2.474 -0.2486  0.2836 -0.0532
 4462W        W19593   1.163  16.370  14.811  0.1017 -0.1388  0.0487
 4463W        W19594   8.188   5.282   4.693  0.0146 -0.0413 -0.2768
 4464W        W19595  10.371  13.598   1.449 -0.1496  0.0542 -0.2385
 4465W        W19596   9.589   6.039  12.888  0.0083  0.3603 -0.0922
 4466W        W19597   4.409  11.251   2.416  0.1570 -0.1232 -0.2430
 4467W        W19598   8.972  15.960   0.661 -0.0863  0.1127 -0.4042
 4468W        W19599  16.745  16.800  16.263  0.0990 -0.2513 -0.2825
 4469W        W19600  10.209   0.710  12.885 -0.1112  0.1185  0.0414
 4470W        W19601  17.660  15.561   4.811  0.0734 -0.1984 -0.2884
 4471W        W19602   9.233  13.699   4.656 -0.2027  0.0586 -0.1513
 4472W        W19603  13.208   4.434   5.761 -0.3044 -0.0466 -0.2775
 4473W        W19604   6.145  15.322   3.155  0.0019 -0.0667  0.1140
 4474W        W19605   2.748   3.779   0.348  0.0234  0.3038  0.2274
 4475W        W19606  15.387  10.621   0.166 -0.0139  0.0948  0.1259
 4476W        W19607   2.618  10.341  14.372  0.2368  0.4216 -0.0484
 4477W        W19608   5.311  15.860  15.145  0.1783  0.0656  0.0785
 4478W        W19609   0.309  17.268  14.764 -0.0508 -0.0374 -0.2076
 4479W        W19610  14.902   0.653   0.608 -0.0795 -0.0977 -0.1036
 4480W        W19611   5.068  16.644   2.616  0.0121 -0.0267  0.0692
 4481W        W19612  13.477   5.463   0.259  0.0865  0.4179  0.1219
 4482W        W19613   2.774  16.421  13.518  0.2767  0.0006  0.0432
 4483W        W19614   3.361   3.627  12.188  0.0562 -0.2652 -0.1584
 4484W        W19615  10.132   9.839   2.269  0.1295 -0.0644  0.0925
 4485W        W19616  14.176  15.452   1.385 -0.1467 -0.1457  0.2402
 4486W        W19617   3.746  12.015   0.147  0.2868  0.2312  0.1724
 4487W        W19618  11.245  12.139  16.203  0.1754  0.1328  0.1502
 4488W        W19619   2.902   0.273  13.148  0.1896 -0.3049  0.3675
 4489W        W19620  16.865  12.095   2.000  0.0906 -0.2675  0.0809
 4490W        W19621  12.592  12.031   5.770  0.1619 -0.3958  0.0606
 4491W        W19622   3.119  13.537  15.149 -0.3238 -0.2487  0.0884
 4492W        W19623   7.752  16.951   1.227 -0.1294 -0.0165 -0.1433
 4493W        W19624  11.582  10.404  15.131  0.0661 -0.1094 -0.0552
 4494W        W19625   0.762   6.035  12.922  0.0274  0.0144  0.3441
 4495W        W19626   1.270   5.385   0.525  0.1703  0.0664 -0.0016
 4496W        W19627   0.067   7.117  15.647 -0.0964 -0.2347 -0.2852
 4497W        W19628   3.742   2.578   1.128  0.1598 -0.1652  0.2274
 4498W        W19629   4.521  16.130  16.145  0.0065 -0.2972  0.1441
 4499W        W19630   5.925  11.185  13.357  0.0197  0.2235 -0.0685
 4500W        W19631   0.864   6.045  11.268  0.1301 -0.0109  0.0004
 4501W        W19632   2.723  16.441   1.966 -0.0200  0.0949  0.1221
 4502W        W19633  16.381   5.479  15.966 -0.2266 -0.0023  0.0480
 4503W        W19634  10.176   4.788   0.748 -0.2044 -0.0954  0.0658
 4504W        W19635  10.548   5.630   5.970  0.2952  0.1985  0.4269
 4505W        W19636  11.217  15.843   4.459 -0.1537  0.0530 -0.4158
 4506W        W19637  17.526  10.557   0.201  0.1419  0.0134 -0.0466
 4507W        W19638   4.709   7.698   1.429 -0.1595  0.1395  0.1008
 4508W        W19639   7.538   8.393  12.760  0.0267 -0.2676 -0.0453
 4509W        W19640   3.602  14.396  15.813  0.1513 -0.2047 -0.0106
 4510W        W19641   9.442   0.584   4.413  0.2354 -0.1921  0.3209
 4511W        W19642   2.597  13.848  13.277 -0.4423  0.1940 -0.1336
 4512W        W19643  16.975  10.803   5.239  0.2250  0.0349 -0.2594
 4513W        W19644   9.725   4.962   0.887 -0.0397 -0.1593 -0.0929
 4514W        W19645  14.129   1.413  16.268 -0.2095 -0.2125 -0.2528
 4515W        W19646   2.487  14.287  11.287 -0.0788 -0.0332  0.0096
 4516W        W19647   3.120  13.475  16.784  0.0023 -0.2280  0.2916
 4517W        W19648   4.796   9.365  14.056  0.0664 -0.3452 -0.1372
 4518W        W19649   8.523   4.935  14.851 -0.5023  0.0497 -0.1318
 4519W        W19650   2.649   7.215  12.198  0.1264 -0.2212  0.1538
 4520W        W19651   0.571   6.142  15.025 -0.0544 -0.2917  0.0541
 4521W        W19652   5.399   7.280   4.307 -0.1059 -0.3774  0.0024
 4522W        W19653   0.140  13.951  12.451 -0.1614 -0.0492 -0.0822
 4523W        W19654  10.141   0.730   2.396  0.0805  0.1610 -0.0103
 4524W        W19655  13.916  13.509  14.191 -0.4142  0.2116  0.1246
 4525W        W19656  14.199   7.821  12.300 -0.0706 -0.0617  0.2894
 4526W        W19657   9.127   4.740   3.178 -0.1264  0.4236  0.1843
 4527W        W19658   9.261  14.715   4.731  0.0032 -0.2210  0.1573
 4528W        W19659   4.646   9.089  12.370 -0.0661  0.1500 -0.0673
 4529W        W19660  14.622   6.322   1.760  0.0273  0.0745  0.4290
 4530W        W19661  12.470   5.820  13.438  0.0726 -0.0171 -0.1518
 4531W        W19662  15.305  11.128   0.190  0.1902 -0.2172 -0.1432
 4532W        W19663   6.841   5.804  14.132  0.0670 -0.0627  0.1281
 4533W        W19664   0.635  11.247   5.661 -0.4188  0.0560  0.0743
 4534W        W19665  10.324   1.799  13.173 -0.0022  0.0211 -0.0664
 4535W        W19666   3.273  12.177  12.216  0.1110  0.1012  0.0519
 4536W        W19667   2.091   0.862   3.837  0.0200  0.1063 -0.0694
 4537W        W19668  11.475  11.270   5.419 -0.0016  0.1081  0.1126
 4538W        W19669   6.220  13.924  14.552  0.0713  0.1812  0.2975
 4539W        W19670   7.077  15.741   1.210  0.0191  0.0618 -0.3353
 4540W        W19671   4.010  14.654  12.361 -0.0838  0.0555  0.4135
 4541W        W19672   4.812   4.514   2.050  0.0315  0.0508  0.0651
 4542W        W19673   6.408  10.832   5.169  0.0040 -0.0262 -0.0946
 4543W        W19674   1.624   5.216  11.003  0.0404 -0.0809 -0.1804
 4544W        W19675   6.524   7.575   0.383  0.0749 -0.0113 -0.0944
 4545W        W19676  11.180  17.167   2.257  0.1001  0.0633 -0.0414
 4546W        W19677   8.729   7.208  12.356 -0.1310 -0.2615  0.2892
 4547W        W19678  10.214   8.358  12.166 -0.1028 -0.0780 -0.0261
 4548W        W19679  13.064  17.042  13.352 -0.1297  0.0613  0.1406
 4549W        W19680  11.304  11.872  15.114 -0.0081 -0.1519  0.1207
 4550W        W19681  10.948  14.274  13.492  0.1150  0.0334 -0.1291
 4551W        W19682   9.712   4.272   3.673  0.0586 -0.0427 -0.0322
 4552W        W19683  13.282  16.834  14.266  0.1033 -0.0657 -0.1693
 4553W        W19684  13.542   7.472  16.004 -0.0663  0.1660 -0.1154
 4554W        W19685   5.754  12.860  14.694 -0.0309 -0.0563  0.2488
 4555W        W19686  16.013   5.147  11.188  0.0152 -0.1087  0.1643
 4556W        W19687  17.579   8.095   0.983  0.2085  0.1893  0.1224
 4557W        W19688   7.990   4.616  13.088  0.0348  0.0800 -0.1320
 4558W        W19689  15.870   2.138   0.895  0.3783  0.1463 -0.1986
 4559W        W19690   4.631  17.543   5.643  0.2106 -0.0510  0.3623
 4560W        W19691   4.417   8.826  16.046  0.0887  0.2823  0.0126
 4561W        W19692   1.391  16.703   1.763  0.0402  0.2962  0.1676
 4562W        W19693   0.117  10.080  13.342 -0.0777 -0.1156 -0.3157
 4563W        W19694   7.934   9.832  12.578 -0.3278  0.3498  0.1326
 4564W        W19695  16.850   4.507   2.395  0.0905  0.0443 -0.0679
 4565W        W19696  10.045  13.122  15.533  0.1356 -0.1846 -0.0078
 4566W        W19697  15.761  17.068  12.361 -0.2311 -0.2001 -0.2013
 4567W        W19698   5.808   3.844   2.554  0.2618 -0.3280  0.0010
 4568W        W19699  12.651  14.962   5.348 -0.1686 -0.1630  0.1421
 4569W        W19700  12.281  11.029   1.233 -0.2554 -0.0436 -0.1357
 4570W        W19701   7.011   4.222   4.894 -0.2874  0.0045  0.1593
 4571W        W19702  17.040   2.422  11.362 -0.0155 -0.1449 -0.0662
 4572W        W19703  16.577   1.567  13.993  0.2283 -0.1163  0.0396
 4573W        W19704   0.431   7.690  14.535  0.2292 -0.2820  0.2058
 4574W        W19705  13.764   7.290  16.803 -0.0040  0.4163 -0.1630
 4575W        W19706   9.185  16.671  11.429 -0.0886  0.2647  0.0518
 4576W        W19707  16.513   4.883   0.171 -0.1591  0.0860 -0.0473
 4577W        W19708  12.450   4.069   4.642 -0.2207 -0.2141 -0.1126
 4578W        W19709   4.188  10.090   3.923  0.1747 -0.1653  0.0163
 4579W        W19710  11.698   8.903   2.467 -0.1219 -0.2638  0.0508
 4580W        W19711   2.039   9.961   0.067 -0.0303  0.1292  0.3022
 4581W        W19712   3.983   9.892   1.326  0.0043  0.0418  0.2451
 4582W        W19713  16.150   4.197  15.450  0.1933  0.1616 -0.3186
 4583W        W19714  13.251   9.980   5.783  0.0401  0.0140 -0.1815
 4584W        W19715   9.040   7.627   5.748  0.0151  0.0824 -0.1786
 4585W        W19716   5.106   0.588  14.192 -0.1375  0.2450 -0.1015
 4586W        W19717   2.576   2.792   2.392 -0.1512  0.0463  0.0162
 4587W        W19718   9.642   5.355   4.563 -0.0026 -0.1435  0.5545
 4588W        W19719  11.834   1.966  12.010  0.0128 -0.0797 -0.2863
 4589W        W19720   3.962   5.263  15.034  0.0092 -0.1792  0.0829
 4590W        W19721   8.287   7.444   0.654  0.2837  0.2044 -0.0327
 4591W        W19722   4.366  12.933   1.558 -0.1722  0.2172  0.1366
 4592W        W19723   9.776   8.439   3.726  0.1541 -0.0719  0.0638
 4593W        W19724  17.164  17.540   0.498  0.1436 -0.1533  0.0779
 4594W        W19725   1.525  12.422  12.011  0.0645  0.0595 -0.0358
 4595W        W19726  15.908   2.619  11.853  0.1277  0.0953 -0.1223
 4596W        W19727  15.324  11.281   1.173  0.2273  0.2885  0.2921
 4597W        W19728   1.598   9.499  13.043  0.0323 -0.2668  0.3562
 4598W        W19729  16.755  10.360   0.267 -0.3007 -0.0621  0.1281
 4599W        W19730  12.096  15.074   0.661  0.2390 -0.1176  0.2650
 4600W        W19731  11.846   3.363   4.715 -0.1289 -0.1393 -0.0354
 4601W        W19732   2.189   9.496   5.438  0.1716 -0.0662  0.0326
 4602W        W19733   0.597  16.670  16.236 -0.2066  0.1702  0.0017
 4603W        W19734  14.898  15.925   4.872  0.2004 -0.2127 -0.0838
 4604W        W19735   3.728  13.507   2.935  0.0737 -0.0390  0.0031
 4605W        W19736  14.870   4.981   4.656  0.0467  0.2984  0.2841
 4606W        W19737  11.286  17.139   3.159 -0.1087 -0.0283  0.4128
 4607W        W19738  11.087  16.728  13.781  0.2480 -0.2940  0.0024
 4608W        W19739  12.708   9.798   1.019 -0.1527 -0.1233  0.0883
 4609W        W19740  17.620  11.615  13.637 -0.1403 -0.1832 -0.0392
 4610W        W19741  11.310  13.107  14.943  0.2338 -0.1549  0.1528
 4611W        W19742  16.749   3.348   3.932 -0.2197 -0.3222  0.0771
 4612W        W19743   7.779   8.426   4.429  0.0538  0.2282  0.0443
 4613W        W19744   7.994   9.064  11.521  0.1345  0.0941  0.0687
 4614W        W19745  16.841   0.341  13.613 -0.2788 -0.2967  0.0577
 4615W        W19746   8.948  16.190   3.953 -0.1904  0.3169 -0.2574
 4616W        W19747   5.025   7.355   0.453 -0.1017 -0.1658  0.1042
 4617W        W19748   6.400   3.473   2.820  0.1506 -0.0238  0.2049
 4618W        W19749   9.331  14.918   1.467 -0.1236  0.0492  0.0638
 4619W        W19750   5.614   4.112   4.542 -0.0930 -0.0241 -0.1593
 4620W        W19751   0.712   2.678  12.151  0.2719 -0.3983 -0.1315
 4621W        W19752   1.458  12.985   0.103  0.1543 -0.2072 -0.2364
 4622W        W19753   0.989  16.134   2.415  0.0789  0.0375 -0.1523
 4623W        W19754  14.600   1.505   1.791 -0.3398 -0.2400 -0.1786
 4624W        W19755   2.510  10.292   2.680 -0.0290 -0.2022 -0.0043
 4625W        W19756   6.825   3.122   4.196  0.0231 -0.2803 -0.2253
 4626W        W19757  11.347   0.653   1.280  0.0933 -0.0842  0.1203
 4627W        W19758   7.835  12.901  15.143 -0.0232 -0.0345 -0.3664
 4628W        W19759   4.152   3.113  16.792 -0.0780  0.2810  0.0230
 4629W        W19760   5.209  11.501   5.746  0.4102 -0.2886 -0.1497
 4630W        W19761   5.482  17.007  15.171 -0.0965  0.1676  0.1657
 4631W        W19762   2.529   9.440  12.174 -0.0297  0.0124 -0.2262
 4632W        W19763  13.325  17.658  13.065 -0.1074  0.0312 -0.1671
 4633W        W19764   3.414   6.761  16.084 -0.0504  0.2110  0.1594
 4634W        W19765  14.737   4.822  14.877 -0.1322  0.2374  0.2554
 4635W        W19766  12.804  12.040  11.120 -0.2200 -0.0463  0.0188
 4636W        W19767   8.685   0.938  13.439 -0.1013 -0.0265  0.1450
 4637W        W19768   3.286   1.643  11.748  0.0297  0.1001  0.0604
 4638W        W19769  17.438  13.572  12.511  0.2830 -0.0536  0.1301
 4639W        W19770  14.810   6.355   4.277 -0.3462 -0.1430 -0.2656
 4640W        W19771  11.923   0.024  16.695 -0.0586 -0.1407  0.1259
 4641W        W19772   0.048   0.460   1.820  0.0085 -0.0824 -0.2979
 4642W        W19773  11.433   1.913  13.811  0.0650 -0.4713  0.0196
 4643W        W19774   5.453  16.625  16.043  0.0680  0.1063  0.1462
 4644W        W19775  15.390   7.163  13.090  0.0834  0.4777 -0.0003
 4645W        W19776  13.811   9.179   4.107 -0.0067 -0.0717 -0.2274
 4646W        W19777   2.881  15.350  12.845  0.0017  0.1835 -0.4085
 4647W        W19778   7.739   8.066  12.460 -0.1283  0.1018 -0.2133
 4648W        W19779   4.593   2.063   0.252  0.1063  0.0081 -0.0750
 4649W        W19780   8.082   2.334   6.103 -0.0470 -0.1682  0.1021
 4650W        W19781  14.934   2.591  11.646  0.0624  0.2267  0.2267
 4651W        W19782  12.089  11.225  13.546  0.1065 -0.3178  0.1711
 4652W        W19783   0.827   9.530  11.603 -0.0941  0.0640 -0.0511
 4653W        W19784  10.496  15.435   2.926  0.0536  0.0892  0.1486
 4654W        W19785   1.958   9.028  13.016  0.1877  0.1612 -0.1185
 4655W        W19786   2.926  11.263  12.412 -0.1310  0.0476 -0.1335
 4656W        W19787  10.602   8.120  12.641 -0.1592 -0.3310 -0.1322
 4657W        W19788   1.338  13.171   4.286  0.0174  0.4140 -0.0648
 4658W        W19789   2.348  10.741   1.390  0.0192 -0.0617 -0.0532
 4659W        W19790   6.635  12.060  15.308 -0.1269  0.0218 -0.1285
 4660W        W19791  12.586   8.085  16.749 -0.0624  0.0823  0.0055
 4661W        W19792  15.341  13.816  15.803  0.0783 -0.1089  0.0779
 4662W        W19793   1.734  11.861  15.002 -0.1678  0.2738 -0.0441
 4663W        W19794  13.079  12.101   4.935 -0.0513  0.0144  0.1985
 4664W        W19795  16.538   1.516  15.170  0.1502 -0.2611 -0.0362
 4665W        W19796  14.875  10.151   6.692 -0.2313  0.1547  0.1318
 4666W        W19797  16.534   3.123  14.418  0.1182  0.0107 -0.1926
 4667W        W19798   6.253   8.832   0.206 -0.0305  0.1766 -0.1924
 4668W        W19799  17.644  17.309  12.181  0.1457 -0.0026 -0.2330
 4669W        W19800   6.278  10.216  14.285 -0.0107 -0.0902 -0.3550
 4670W        W19801  14.245  16.135  12.285 -0.1774  0.0056 -0.2693
 4671W        W19802   3.341   9.696   0.723  0.0242  0.0530 -0.0020
 4672W        W19803  10.169   8.661  14.012 -0.1932  0.0864  0.0308
 4673W        W19804   4.786   9.726   0.714  0.1450  0.1059 -0.4048
 4674W        W19805   2.897   6.427   5.051 -0.0851 -0.1313  0.1191
 4675W        W19806  12.531  12.074   0.989 -0.2693 -0.1246  0.4317
 4676W        W19807  14.654  13.000   4.135  0.1882  0.0595  0.1327
 4677W        W19808   2.671   4.927   2.184  0.1311 -0.0954  0.0752
 4678W        W19809  10.359  12.932   3.260 -0.2127  0.0479  0.1438
 4679W        W19810  12.429   5.667   4.033  0.0110 -0.0671  0.0651
 4680W        W19811  16.369   3.409  10.961 -0.3279 -0.1408 -0.2236
 4681W        W19812  10.571  15.537   3.433 -0.0628  0.2057 -0.1010
 4682W        W19813  15.226   0.575  14.506 -0.2798 -0.0474  0.1845
 4683W        W19814   4.195  12.940   4.272  0.0506 -0.0990 -0.1331
 4684W        W19815  14.847   5.241  12.840 -0.0319  0.0921  0.3047
 4685W        W19816   7.364   4.894  11.621  0.0250  0.4731 -0.1359
 4686W        W19817  14.106   9.969   0.857  0.0654  0.1011  0.1674
 4687W        W19818   3.298   9.325   1.490  0.0431 -0.3127  0.4084
 4688W        W19819   8.662  12.843   4.200  0.1486  0.2709  0.1369
 4689W        W19820  15.285   9.194  14.902 -0.0169  0.0023 -0.0246
 4690W        W19821   3.876   2.903  16.136 -0.0665 -0.0699 -0.0132
 4691W        W19822   5.098  15.088   1.818  0.1360  0.1557  0.0262
 4692W        W19823   4.892  10.028   5.666 -0.1268 -0.1994 -0.1815
 4693W        W19824   6.978   4.254  14.480 -0.0271  0.0086 -0.0980
 4694W        W19825   4.550   6.740  12.767 -0.0538  0.0744  0.2533
 4695W        W19826   3.236   2.279  13.390 -0.2304  0.2197 -0.1475
 4696W        W19827  11.743   6.268   5.136  0.1640  0.2653 -0.3023
 4697W        W19828   2.387  13.021  16.264 -0.2652  0.0136  0.0878
 4698W        W19829   8.149   7.828   4.406  0.4030  0.0293  0.0554
 4699W        W19830   4.927   4.024  12.199  0.0671 -0.0088  0.1673
 4700W        W19831  11.111   5.971  12.421 -0.4515 -0.1009  0.0856
 4701W        W19832  16.391  12.202   5.701 -0.3498  0.1453 -0.1156
 4702W        W19833  16.075  10.403  15.119  0.0713 -0.1765  0.4206
 4703W        W19834   4.213  11.759  15.507 -0.0932 -0.0862  0.1543
 4704W        W19835   0.478   9.115   3.692  0.2197 -0.1449 -0.0980
 4705W        W19836   8.540  13.307  15.365 -0.1960  0.0323  0.0476
 4706W        W19837   2.123  11.473   4.652  0.3261  0.1157  0.0906
 4707W        W19838  17.227   8.327   1.394  0.0095  0.0343 -0.0716
 4708W        W19839  12.422  10.424   4.969 -0.2266 -0.5130  0.0431
 4709W        W19840   7.047  13.824   5.554 -0.0334  0.3417 -0.1327
 4710W        W19841   1.862  16.823   4.615 -0.0318 -0.0354  0.2474
 4711W        W19842  12.199  12.726  12.883  0.0605 -0.1282 -0.0767
 4712W        W19843   7.358  16.328   1.918 -0.0933 -0.1455  0.1825
 4713W        W19844  13.497  11.516   3.064  0.0304  0.1831  0.1095
 4714W        W19845   7.542  15.102  12.996  0.2840 -0.1490 -0.2071
 4715W        W19846   6.201  10.744   2.541  0.0303  0.0916  0.1178
 4716W        W19847  10.967  16.583   2.347  0.1654 -0.1044 -0.0422
 4717W        W19848  11.757   7.479  14.380 -0.1541  0.1598 -0.0841
 4718W        W19849  16.204   9.174   2.930 -0.2670 -0.1461  0.1825
 4719W        W19850  12.137  15.032  13.656 -0.4877  0.1850  0.0007
 4720W        W19851   7.424  15.093   1.731 -0.2903  0.0198 -0.0474
 4721W        W19852   0.511   3.266   4.167 -0.2981  0.0919 -0.0561
 4722W        W19853   8.894  16.270  13.872  0.4126 -0.0093  0.2556
 4723W        W19854  16.592  13.494   0.111 -0.4732  0.2265  0.1789
 4724W        W19855   1.963   9.558  16.744  0.2124  0.0022  0.0014
 4725W        W19856  11.254  11.882   0.111 -0.1104 -0.1758 -0.1587
 4726W        W19857   1.979  15.896  13.504  0.1255  0.1894  0.0493
 4727W        W19858   8.733   9.700   5.487 -0.2665  0.1399  0.1183
 4728W        W19859  12.766   3.245   5.860 -0.0683  0.0311  0.0058
 4729W        W19860   7.381  16.840  13.145 -0.1193 -0.0356 -0.4112
 4730W        W19861   0.461   4.706   3.652  0.2864  0.1783  0.0526
 4731W        W19862   2.306   8.587  10.425 -0.0772 -0.0125  0.0023
 4732W        W19863  10.727  16.449   5.587  0.3115 -0.0416  0.1617
 4733W        W19864   3.842   0.326  13.160  0.0398  0.1143 -0.0917
 4734W        W19865   2.229   4.647   0.804  0.1041 -0.1974 -0.2499
 4735W        W19866   5.039   6.505   5.257 -0.1711 -0.2042  0.0200
 4736W        W19867   8.900  16.283  14.549 -0.0866 -0.0926 -0.1087
 4737W        W19868   2.737  14.117   4.024  0.0288  0.2186  0.1119
 4738W        W19869   8.719  14.444  15.040 -0.2257  0.2370 -0.2107
 4739W        W19870   0.923   2.645  14.210  0.0715  0.1718 -0.1019
 4740W        W19871   8.156   8.598  13.040  0.3085 -0.0437 -0.1101
 4741W        W19872   7.212   2.573   0.642  0.1679  0.1293 -0.0222
 4742W        W19873   7.621   9.946   4.432 -0.1259 -0.0609 -0.0634
 4743W        W19874  10.852  15.085   2.170 -0.0302  0.0330 -0.0296
 4744W        W19875  13.796  11.646  13.673  0.1797 -0.0986 -0.1012
 4745W        W19876   7.449  11.049  13.415 -0.1873  0.1552  0.0331
 4746W        W19877  11.071  13.842   2.879  0.3175 -0.3759  0.3753
 4747W        W19878   4.007   8.396   5.303  0.1540 -0.0192  0.3397
 4748W        W19879  13.859   7.742   2.910  0.0919  0.0268  0.0729
 4749W        W19880  13.759  12.494  12.508 -0.0862 -0.0875  0.0075
 4750W        W19881  12.712  17.335   0.797  0.3875 -0.1278  0.0113
 4751W        W19882  16.904   5.015   0.473  0.1553  0.2314 -0.2187
 4752W        W19883   0.341  16.792   2.174 -0.0316  0.1187  0.2521
 4753W        W19884   5.987  11.309  16.074  0.2883 -0.1005  0.2678
 4754W        W19885   5.025   9.491  13.234 -0.1132 -0.1095 -0.0974
 4755W        W19886   9.702  10.935   1.052 -0.0043 -0.0001 -0.1245
 4756W        W19887   3.030  15.541  15.049  0.3935  0.1745  0.0906
 4757W        W19888   5.870  13.580   5.818 -0.1274 -0.0247 -0.2331
 4758W        W19889  10.290  10.827   5.993  0.3081  0.2505 -0.0990
 4759W        W19890  11.006  15.699   3.515 -0.0220 -0.2379  0.0221
 4760W        W19891  13.162   6.343  14.624  0.3432 -0.0826  0.1239
 4761W        W19892  17.293  13.494   3.735  0.1459 -0.1269 -0.0694
 4762W        W19893  17.441   4.423  14.460 -0.1423  0.0451  0.0518
 4763W        W19894   3.051  14.053  13.305 -0.3129  0.1624 -0.0041
 4764W        W19895  17.614   6.751  15.193 -0.1870 -0.2154  0.0033
 4765W        W19896  17.565   4.904  15.136  0.0771 -0.0657  0.0037
 4766W        W19897   0.652  15.665   1.745  0.0292  0.0256  0.1587
 4767W        W19898   0.924  13.634  11.452 -0.2215 -0.1772  0.0188
 4768W        W19899  11.116   7.946  12.807 -0.2920 -0.0171  0.0228
 4769W        W19900   7.443  10.821   0.391 -0.1799 -0.1161  0.0223
 4770W        W19901  12.735   1.051  13.205 -0.0775  0.3935  0.1102
 4771W        W19902  16.296  12.622   4.655 -0.0050  0.1310 -0.1195
 4772W        W19903  10.891  16.804  12.509  0.0281 -0.0077  0.1867
 4773W        W19904   5.872   3.383  15.414  0.0816 -0.1615  0.3933
 4774W        W19905   3.670   2.279  15.366  0.3238 -0.0165 -0.0643
 4775W        W19906   7.830  13.063  14.670 -0.1252 -0.1472  0.1979
 4776W        W19907  12.829   9.765  15.775  0.1452 -0.1909  0.2705
 4777W        W19908   1.377  11.181   1.439 -0.5230  0.0573  0.0580
 4778W        W19909   0.944   6.060   3.761  0.0756 -0.3555 -0.0730
 4779W        W19910   4.743  12.435   5.936 -0.1227  0.3247  0.1102
 4780W        W19911  16.794   0.638  16.335 -0.0822  0.1109  0.0866
 4781W        W19912  11.671  16.296   0.930 -0.2576  0.0450 -0.1113
 4782W        W19913  10.934   2.072  11.596 -0.1494 -0.0143  0.2500
 4783W        W19914   3.682  17.333  12.113  0.1055  0.0368  0.1035
 4784W        W19915   0.872  15.263   6.426 -0.1366 -0.0099 -0.1154
 4785W        W19916  13.274   2.781  13.813  0.0102  0.1726  0.2899
 4786W        W19917  17.661  14.975  14.084  0.3380 -0.0582  0.1475
 4787W        W19918   9.511   8.894  15.112  0.0714 -0.2031 -0.1172
 4788W        W19919   3.242   8.710   2.415 -0.2269  0.5682 -0.2115
 4789W        W19920   5.500   6.474  13.269  0.1128 -0.1765 -0.0024
 4790W        W19921  13.605   3.627   1.806 -0.2172 -0.0849 -0.0318
 4791W        W19922  10.647   2.769  15.427 -0.0280  0.2948 -0.2004
 4792W        W19923   7.662   3.740  16.775  0.0557 -0.1709  0.0105
 4793W        W19924   4.639   4.136   0.566 -0.1172  0.2151  0.0020
 4794W        W19925  13.516   7.312  11.195 -0.1200 -0.0334  0.0357
 4795W        W19926  10.084   7.691   1.861  0.1906  0.2711  0.0344
 4796W        W19927   1.504   7.959   1.635  0.2814 -0.3222 -0.0355
 4797W        W19928  10.239  16.224   0.881 -0.2798 -0.2752  0.0824
 4798W        W19929  16.507   6.003  15.532 -0.1448  0.0135  0.1221
 4799W        W19930   9.211  14.007  16.684 -0.2994 -0.0259 -0.1327
 4800W        W19931  12.580  14.989   5.821 -0.0193 -0.3548  0.1047
 4801W        W19932  17.133  17.114   4.836 -0.1985  0.1418  0.0894
 4802W        W19933   5.807   5.882  14.093 -0.3197 -0.3094  0.0450
 4803W        W19934   9.888  14.217  16.119 -0.0341  0.0132 -0.0086
 4804W        W19935  16.620   5.528   3.077  0.0012 -0.1401  0.0202
 4805W        W19936   3.428   1.814  14.927 -0.1188  0.2334  0.0613
 4806W        W19937   4.364   3.706  11.459  0.2479 -0.1515 -0.3591
 4807W        W19938  11.396   8.292   1.574 -0.2837 -0.0206 -0.1789
 4808W        W19939   4.048  12.567   0.296  0.1653  0.0442  0.0663
 4809W        W19940   0.750   6.155   3.152  0.1151  0.0810 -0.4221
 4810W        W19941   7.124  13.781  13.649  0.3111 -0.2886 -0.3220
 4811W        W19942  16.409  14.577   1.634 -0.4360  0.1314  0.0720
 4812W        W19943   0.461   8.310   3.823 -0.0210 -0.4214  0.1694
 4813W        W19944   5.897   4.094   0.927  0.0422  0.0884  0.2452
 4814W        W19945   1.990   3.279  16.283 -0.2502  0.3123  0.0057
 4815W        W19946  10.123   7.406   5.628 -0.0898  0.1975  0.1851
 4816W        W19947   1.589   2.971  16.343 -0.1540 -0.0345 -0.1058
 4817W        W19948  17.607   8.894   1.400 -0.0761  0.0285  0.0419
 4818W        W19949   6.219   3.148   1.884  0.0713  0.1188 -0.0547
 4819W        W19950   2.866  15.573  15.590  0.1752 -0.3661 -0.1770
 4820W        W19951  10.422   8.552   1.811 -0.1001  0.0473  0.4910
 4821W        W19952   2.559  16.945   2.808  0.0385 -0.1624  0.0047
 4822W        W19953   7.269  13.017  13.133  0.0830  0.2321 -0.1855
 4823W        W19954   3.129  12.274  14.805 -0.1117  0.0092  0.2177
 4824W        W19955  15.335  17.689   4.332  0.2782  0.3385 -0.0844
 4825W        W19956  15.544  16.290   4.996  0.1310  0.1189  0.0169
 4826W        W19957  11.000   6.489  12.435 -0.0049 -0.2198 -0.2186
 4827W        W19958   6.932  16.506   4.228  0.1508  0.1089  0.1415
 4828W        W19959  17.174  11.735  11.414 -0.0444  0.0897 -0.0649
 4829W        W19960   2.925   8.242  13.777 -0.2068 -0.0982  0.0796
 4830W        W19961   6.044   0.220  16.568  0.1446  0.1950  0.3578
 4831W        W19962   8.857   3.857  13.294  0.1353 -0.0078 -0.0222
 4832W        W19963   0.823   0.745   1.539 -0.0239 -0.2082  0.0642
 4833W        W19964   4.897  11.201  16.169  0.0565 -0.2430 -0.2961
 4834W        W19965   0.145   9.609   6.107  0.1983  0.1685 -0.3746
 4835W        W19966   1.259  11.068  14.809 -0.2399  0.1325  0.0452
 4836W        W19967   1.683   8.313   6.457  0.1964  0.0143 -0.0843
 4837W        W19968   4.640   7.185   9.958  0.1175 -0.0997 -0.1406
 4838W        W19969   0.330   7.911  11.190 -0.1058  0.3942  0.1529
 4839W        W19970   9.250  11.356   0.735 -0.0725  0.3541 -0.2829
 4840W        W19971  11.462   9.225  11.978 -0.0561  0.0418 -0.1025
 4841W        W19972  15.596   2.779   3.712 -0.0659 -0.3429 -0.1563
 4842W        W19973  15.188   0.884   1.872  0.0887  0.1968  0.1061
 4843W        W19974   1.888   9.903  15.110  0.2594 -0.2194  0.0255
 4844W        W19975   7.030   5.250  11.545 -0.0639 -0.2301  0.0441
 4845W        W19976   7.313  13.275  15.913 -0.0663 -0.1085 -0.2568
 4846W        W19977  11.643   1.347  11.521  0.0066 -0.2623  0.0090
 4847W        W19978   1.912   3.047  11.352 -0.2691  0.1414  0.0671
 4848W        W19979   8.608   2.664   2.921 -0.3021  0.0755 -0.0789
 4849W        W19980   5.850  12.373   0.081  0.2017  0.3535 -0.0487
 4850W        W19981   6.524   7.018  14.310  0.0298 -0.0195 -0.3009
 4851W        W19982  15.154  15.085   1.712  0.1691  0.4084 -0.0620
 4852W        W19983   4.793   7.576  13.974  0.3883 -0.0072  0.1096
 4853W        W19984  14.322   2.716  14.560  0.0309  0.1457 -0.0920
 4854W        W19985  11.091  11.945   3.845 -0.0026  0.2165 -0.1838
 4855W        W19986  13.144   0.906  11.435 -0.1121  0.2492  0.4392
 4856W        W19987  15.158   6.523  14.509  0.1308 -0.0193 -0.0481
 4857W        W19988   3.527  15.805   1.951 -0.0108 -0.2308 -0.1727
 4858W        W19989  11.986  11.526  12.183 -0.0707  0.5742  0.1324
 4859W        W19990  15.546   4.739  16.933  0.0240 -0.0004  0.0324
 4860W        W19991   6.032   8.935  10.524  0.0720  0.1040 -0.0184
 4861W        W19992   0.985  16.229  14.309 -0.1845  0.1058  0.1856
 4862W        W19993   7.087   7.512  15.906  0.2825 -0.1565  0.0547
 4863W        W19994   0.748  16.649   2.397  0.0517 -0.3298  0.1976
 4864W        W19995   4.043   5.438   3.517 -0.0102  0.0077  0.2868
 4865W        W19996   4.449  12.684  13.946  0.2757  0.0502 -0.0223
 4866W        W19997  10.949   6.168  12.871  0.3966 -0.0264  0.3251
 4867W        W19998  12.301   1.798  16.882 -0.0165 -0.1308  0.0691
 4868W        W19999   7.235   1.444  12.833  0.0279 -0.1617  0.1535
 4869W        W20000   3.029  13.349   0.290  0.0004 -0.2257  0.0828
 4870W        W20001  15.607   3.220  15.693  0.0143 -0.3040 -0.0855
 4871W        W20002   6.285   7.730   3.093 -0.1963 -0.0048  0.1758
 4872W        W20003  11.858   8.363   3.661 -0.0153 -0.2160  0.1571
 4873W        W20004  12.384  15.057  16.326  0.0221 -0.3398 -0.0066
 4874W        W20005  16.342   4.412   3.455 -0.2254 -0.0180 -0.0322
 4875W        W20006   8.668   8.522   1.328  0.0451 -0.1109  0.1695
 4876W        W20007  11.997  15.980  16.223 -0.0440  0.0397 -0.0101
 4877W        W20008   9.503   1.711   1.409 -0.0817  0.0348 -0.1136
 4878W        W20009  15.645   6.720  16.536  0.1359 -0.0204  0.5781
 4879W        W20010   4.872  10.636  13.494 -0.0721 -0.0845 -0.2319
 4880W        W20011   5.574  14.288   1.152  0.0931 -0.0014  0.0947
 4881W        W20012   9.410   0.222  12.766 -0.0614 -0.0416  0.0526
 4882W        W20013  10.536   8.560   3.069 -0.0273  0.2119  0.2110
 4883W        W20014  14.860  16.700   0.603  0.0306  0.0199  0.0719
 4884W        W20015  16.877  12.120   5.402  0.0072  0.0370 -0.5937
 4885W        W20016   7.928   0.500  13.634  0.0460  0.3900  0.2293
 4886W        W20017   0.744   0.340  14.776 -0.3139  0.0413 -0.1419
 4887W        W20018   2.874   9.453  16.453 -0.0336  0.2239  0.2468
 4888W        W20019   0.724  15.062  14.128 -0.2190 -0.0289  0.0165
 4889W        W20020   5.663   1.100  16.268 -0.1753 -0.0134  0.1228
 4890W        W20021   4.044   6.360  11.320  0.0558  0.1411  0.1231
 4891W        W20022   0.312  17.313   5.292 -0.2044 -0.3001 -0.0788
 4892W        W20023   7.979   4.210  12.687  0.0050 -0.0303 -0.1817
 4893W        W20024   3.340   4.995  16.436 -0.1744  0.1840 -0.0389
 4894W        W20025   8.288  15.918  15.627  0.1239 -0.0370  0.2690
 4895W        W20026   8.126   1.077   5.851 -0.0628 -0.2906 -0.0925
 4896W        W20027   2.263  14.347   0.478  0.0017 -0.0120 -0.0183
 4897W        W20028  16.943   6.808  14.636 -0.0480  0.0211  0.0048
 4898W        W20029  14.805   7.495   0.780 -0.2451 -0.1521 -0.0415
 4899W        W20030  10.594  12.811   4.645 -0.0761 -0.0758  0.0793
 4900W        W20031   9.465   0.093   4.150  0.0728 -0.2490 -0.0723
 4901W        W20032  10.929  17.331   5.070 -0.0195  0.3649  0.1757
 4902W        W20033  13.567  12.685   3.080 -0.1364 -0.1246 -0.1025
 4903W        W20034   0.617   0.714   2.919 -0.2268 -0.2512  0.1594
 4904W        W20035   5.153  16.702  13.729  0.3808 -0.0699  0.0443
 4905W        W20036   5.597   8.416  13.309  0.1111 -0.1476 -0.1581
 4906W        W20037   4.676  15.969   0.583  0.1903 -0.1628 -0.0544
 4907W        W20038   1.574  15.635   1.783 -0.0924 -0.1995  0.0339
 4908W        W20039  15.541   9.960   1.092 -0.2114 -0.2951 -0.0267
 4909W        W20040  13.843   4.543  12.930 -0.4384 -0.1193 -0.1683
 4910W        W20041  16.564  16.736   0.872 -0.1602 -0.2582  0.0391
 4911W        W20042  11.508   2.798  11.665 -0.1489  0.3645 -0.0914
 4912W        W20043  10.342  14.917   5.382 -0.0712 -0.1832 -0.2054
 4913W        W20044  15.611  14.167  14.939 -0.0889 -0.2277 -0.1214
 4914W        W20045  12.673  16.833   3.882  0.1331 -0.0105  0.3256
 4915W        W20046  15.019   9.252   4.154 -0.3133  0.1266 -0.1808
 4916W        W20047  13.927  12.973  16.464  0.1041  0.2617 -0.3139
 4917W        W20048  15.047   5.444  11.600 -0.1503  0.0253 -0.1126
 4918W        W20049  16.958   9.991   4.534 -0.0135  0.1336  0.2509
 4919W        W20050   9.635  10.789  12.484 -0.3006  0.1006 -0.4105
 4920W        W20051   5.349  15.334   2.342 -0.2108  0.0123  0.0411
 4921W        W20052  17.462  12.709  13.670  0.1706 -0.0993 -0.2200
 4922W        W20053  15.452  14.314   6.047  0.0983  0.2589 -0.1033
 4923W        W20054   3.232   4.431   0.352  0.2087 -0.0950 -0.1214
 4924W        W20055   8.001  15.246  12.250  0.1817  0.1443 -0.2944
 4925W        W20056   9.204   3.940   2.791 -0.2198 -0.1237  0.4050
 4926W        W20057   1.631  16.912  14.219 -0.0364  0.0627 -0.0906
 4927W        W20058   8.385  11.935   4.490 -0.0315  0.0834  0.0274
 4928W        W20059   9.267   8.228   2.267  0.2909  0.1109 -0.2795
 4929W        W20060  13.587   0.373  14.080  0.0266 -0.1740  0.0265
 4930W        W20061  12.421   1.027   4.041  0.1007 -0.2921  0.2826
 4931W        W20062   1.058   1.690   0.150  0.1236  0.0713 -0.1547
 4932W        W20063  13.029   1.362   1.260  0.2243  0.2045 -0.0054
 4933W        W20064   3.519   4.729  10.502  0.2292  0.2312 -0.0207
 4934W        W20065   3.199  13.899  16.458  0.4103 -0.0853 -0.0338
 4935W        W20066   7.503  12.788  16.310 -0.0990 -0.3157  0.1132
 4936W        W20067   1.505  12.695  16.558  0.0769  0.0452  0.1306
 4937W        W20068  14.482  12.767   0.825  0.1475 -0.0244 -0.1495
 4938W        W20069  17.446   2.214  15.763 -0.1938  0.0404 -0.1117
 4939W        W20070   7.142   0.461   5.093 -0.0055  0.3677 -0.0540
 4940W        W20071   4.708   8.718  12.816  0.1182 -0.3355 -0.0446
 4941W        W20072  12.156   5.243  14.729  0.1838  0.2268  0.2153
 4942W        W20073   1.056  14.409  11.783 -0.0683 -0.1686  0.1742
 4943W        W20074  10.830   7.544  11.817 -0.0631 -0.0749  0.1525
 4944W        W20075   2.560  14.346   1.214 -0.1296 -0.0318 -0.2197
 4945W        W20076  13.863   8.900   1.124  0.1783 -0.0332  0.2243
 4946W        W20077   6.390  12.602  14.960 -0.0292 -0.0942 -0.0779
 4947W        W20078   5.049   7.904   5.802 -0.1090  0.0372  0.1239
 4948W        W20079  14.455  10.251   4.894  0.2568  0.2648 -0.0001
 4949W        W20080   5.374   6.469   2.914  0.4488 -0.1236 -0.0982
 4950W        W20081   8.249   0.080  14.463 -0.0066  0.1685 -0.1264
 4951W        W20082   7.742   2.845  11.948  0.0214  0.3864 -0.0255
 4952W        W20083   0.118  12.504  11.579  0.0599  0.0577 -0.3843
 4953W        W20084   2.858  15.872  13.413  0.3565  0.0650 -0.2080
 4954W        W20085   2.909   6.417   1.744  0.0824  0.0465 -0.0433
 4955W        W20086  13.320  17.562  12.532  0.1757 -0.0445 -0.2487
 4956W        W20087  16.944  12.312   0.082 -0.1228  0.1136  0.2588
 4957W        W20088   2.545   0.111  15.972  0.1896  0.1876 -0.3088
 4958W        W20089   1.862   0.801   4.294 -0.1856 -0.2649  0.1772
 4959W        W20090   3.796  11.095   4.625  0.3833 -0.1844  0.0873
 4960W        W20091   6.819   7.532   4.042 -0.2954  0.0365  0.1894
 4961W        W20092  16.116   3.610  11.537 -0.1606  0.2797 -0.2075
 4962W        W20093  10.790   7.116  14.367 -0.1661  0.0324 -0.2130
 4963W        W20094  16.792  16.875   0.104  0.0544  0.0589 -0.1497
 4964W        W20095  14.912  13.121   0.646 -0.0724 -0.1255  0.1329
 4965W        W20096   4.285  14.285   4.626 -0.0729 -0.0917 -0.2984
 4966W        W20097   2.772  17.099   3.669 -0.3945  0.0708 -0.1332
 4967W        W20098   9.306   9.816  12.007  0.0938  0.4971 -0.0642
 4968W        W20099  10.530  13.278  14.512 -0.2132 -0.3465  0.1694
 4969W        W20100  11.483   9.151  16.837  0.0712  0.0652  0.1401
 4970W        W20101   9.180   5.748   0.832  0.0282  0.0868 -0.0820
 4971W        W20102   5.932   6.998  14.980 -0.4106  0.2382  0.0172
 4972W        W20103   5.876  10.721   4.322 -0.1706  0.2449 -0.2613
 4973W        W20104  11.915   3.002  16.297 -0.0625 -0.1678 -0.2288
 4974W        W20105  13.224   5.553   1.185  0.0000  0.4643  0.3881
 4975W        W20106   7.403  16.589   5.611  0.0961 -0.1848 -0.0704
 4976W        W20107   4.075   4.306   3.978  0.0564 -0.0295  0.0261
 4977W        W20108  10.510  13.419   3.406 -0.0000  0.0662 -0.0002
 4978W        W20109   5.518  14.042   0.165 -0.0701 -0.0916  0.0080
 4979W        W20110  13.482   2.654   1.112 -0.0860  0.2539  0.1766
 4980W        W20111   9.277   6.654   1.045 -0.0233  0.1279  0.2131
 4981W        W20112  11.435  15.361  11.588 -0.1029  0.1274 -0.1678
 4982W        W20113  10.429  10.942  13.050 -0.2061 -0.1432  0.0742
 4983W        W20114   7.104  13.493  13.289  0.0665 -0.1538 -0.0950
 4984W        W20115  11.329   3.181  12.060  0.0517 -0.1346 -0.2661
 4985W        W20116   8.371   5.352  15.773  0.0509  0.0020  0.0155
 4986W        W20117  13.866   3.208   3.022 -0.2453 -0.2619 -0.1337
 4987W        W20118  10.499   7.858  15.158 -0.0046  0.0829 -0.2016
 4988W        W20119  12.512   9.990   2.031  0.2415 -0.3906 -0.0850
 4989W        W20120   7.773   5.560  16.655 -0.1876  0.1353  0.2023
 4990W        W20121   7.067   7.356  12.131  0.0856 -0.2294  0.1547
 4991W        W20122   0.503  15.956  14.622 -0.1353  0.1441 -0.3420
 4992W        W20123  11.381   7.336   2.202 -0.2044 -0.1726 -0.2965
 4993W        W20124   8.430   2.426   0.305 -0.3425  0.4013 -0.1981
 4994W        W20125  12.135   8.450  14.420 -0.0671  0.0154  0.1193
 4995W        W20126  11.853   3.615   0.068  0.1642 -0.0856 -0.1670
 4996W        W20127   2.953   0.752  12.103 -0.0573  0.0888 -0.2890
 4997W        W20128   4.518   7.225  14.569  0.0577  0.0810  0.0828
 4998W        W20129   3.527  11.036  12.892  0.0785 -0.0196  0.0061
 4999W        W20130   2.036   2.741  14.489 -0.0244 -0.2107 -0.0164
 5000W        W20131   0.111   5.691  14.143 -0.2730 -0.0488 -0.0856
 5001W        W20132   0.110   4.024  14.889  0.1497 -0.2295  0.1838
 5002W        W20133  14.318   7.870   5.115  0.1752  0.0302 -0.0126
 5003W        W20134  13.580  14.634  15.275 -0.1061  0.1077  0.1944
 5004W        W20135   1.500   9.210   4.790  0.1738 -0.2270 -0.3059
 5005W        W20136   0.803  12.468   4.304 -0.2300 -0.0130  0.0239
 5006W        W20137  15.491   3.982  12.752 -0.0466  0.1251 -0.1527
 5007W        W20138  13.669   1.710   5.328  0.3010  0.0573  0.0875
 5008W        W20139   0.083   6.576  11.035  0.0474 -0.0698 -0.1349
 5009W        W20140   1.273   7.830   0.134 -0.0919 -0.1303  0.0237
 5010W        W20141   6.876  16.087  12.633 -0.0015  0.0502  0.1634
 5011W        W20142  12.997  15.270  11.354 -0.0024  0.3281 -0.0548
 5012W        W20143  12.473  13.012  13.213  0.1874 -0.2334  0.1156
 5013W        W20144   6.523  15.698  14.687  0.0928  0.2407 -0.0919
 5014W        W20145  14.445   2.018   0.335  0.1174 -0.2511 -0.1595
 5015W        W20146   8.202  16.512   1.579 -0.2028 -0.0682 -0.3512
 5016W        W20147   1.153   2.502  12.248 -0.3142  0.1891 -0.1593
 5017W        W20148  16.122   2.746  10.333 -0.1349 -0.1127  0.1212
 5018W        W20149   8.527   5.672   4.684  0.0459 -0.0399  0.0547
 5019W        W20150   0.870   5.793  12.227 -0.1166  0.2798  0.2308
 5020W        W20151  12.651   1.538   5.243  0.0755 -0.1342  0.0012
 5021W        W20152  10.134  12.948  13.365 -0.0163 -0.1075  0.1701
 5022W        W20153   1.885  14.821  11.855  0.1263  0.1516  0.0620
 5023W        W20154   2.783   3.363  12.332  0.2103  0.1738 -0.1593
 5024W        W20155  11.310  13.825   3.605  0.0902  0.1085  0.0641
 5025W        W20156   2.983   9.850   4.485  0.0242  0.2915  0.2995
 5026W        W20157   2.766   9.520  12.623 -0.2827  0.3091  0.0924
 5027W        W20158  14.958  16.537   3.137 -0.0039 -0.2361 -0.5476
 5028W        W20159  15.636   1.161   3.041 -0.0820  0.0203 -0.1290
 5029W        W20160   8.402   3.649  16.238  0.0504  0.0042 -0.1717
 5030W        W20161  15.182   1.770   1.578  0.0883  0.0593  0.2252
 5031W        W20162  11.033   2.771  14.715  0.0886 -0.2180  0.0088
 5032W        W20163   7.249   8.778  14.445  0.2130 -0.1163  0.0876
 5033W        W20164  17.334  15.583  15.028 -0.1774 -0.2260  0.3543
 5034W        W20165   6.933   0.754   4.431  0.2044 -0.1379 -0.0520
 5035W        W20166   1.696  11.052  12.241 -0.2095 -0.4285  0.0856
 5036W        W20167  12.005  15.579   4.501 -0.3247  0.1365 -0.2649
 5037W        W20168   1.037   6.623   0.810 -0.0307 -0.1024  0.0510
 5038W        W20169  11.593   2.808   0.062  0.0015  0.1581  0.0905
 5039W        W20170  14.637  16.970   4.438  0.1660  0.3063 -0.1096
 5040W        W20171   3.716   0.571  15.037  0.1159 -0.1048  0.0519
 5041W        W20172   0.171   6.198  12.241 -0.0067  0.0023 -0.0822
 5042W        W20173   5.991  16.494  15.755  0.1469  0.2340 -0.1025
 5043W        W20174   1.410  13.578   1.513  0.0077  0.0190 -0.0332
 5044W        W20175   4.969   8.142  11.566 -0.0348 -0.0554  0.2024
 5045W        W20176   6.892  10.389  11.314  0.0652  0.3322  0.0402
 5046W        W20177   5.652   2.535   0.321  0.0970  0.0369 -0.4038
 5047W        W20178   0.123   2.712   4.443 -0.1922 -0.2807  0.0144
 5048W        W20179  17.468  11.019   1.208 -0.0462  0.0919  0.1790
 5049W        W20180   3.865   3.787  13.968 -0.0914 -0.1385 -0.0464
 5050W        W20181  15.504   8.357  15.640 -0.1125 -0.0356 -0.0639
 5051W        W20182  10.196   6.042   2.562 -0.1494 -0.1905 -0.1724
 5052W        W20183  15.730   0.022  12.666 -0.1988 -0.2411  0.0665
 5053W        W20184  16.385  17.265   0.195  0.0318 -0.1792 -0.1214
 5054W        W20185   4.226  11.238  12.246 -0.0838  0.0200 -0.1046
 5055W        W20186   2.161  14.109  13.185 -0.0636  0.0694 -0.0482
 5056W        W20187   3.247   5.574   1.876  0.1661 -0.2436 -0.2118
 5057W        W20188   9.056   0.327   1.148  0.0719 -0.1653 -0.0388
 5058W        W20189  15.368   1.251   4.041  0.1895 -0.0324 -0.0982
 5059W        W20190   7.698   9.404   4.340 -0.0665 -0.0001  0.2748
 5060W        W20191  15.065   6.874  16.417  0.4796 -0.2278  0.3368
 5061W        W20192  17.520   9.498  15.272 -0.0978  0.0589 -0.1295
 5062W        W20193  11.139  12.883   2.564 -0.1331 -0.0324 -0.2355
 5063W        W20194   2.229  11.476  15.438 -0.2256  0.2167  0.0334
 5064W        W20195   9.902   0.385  16.749  0.2437  0.1662  0.0689
 5065W        W20196   2.110   5.480   2.602 -0.0095  0.0976 -0.2633
 5066W        W20197   0.714  11.424  12.081  0.1666 -0.2263  0.1008
 5067W        W20198  16.710  10.786  15.064  0.2479  0.0162  0.0754
 5068W        W20199  17.561   6.750   0.405 -0.0427  0.3367 -0.3246
 5069W        W20200   9.465   5.089   2.037  0.1019  0.1588  0.1103
 5070W        W20201  16.588   6.846  15.253 -0.1391 -0.2761  0.0462
 5071W        W20202  16.482   2.693  15.433  0.1985  0.1916  0.2553
 5072W        W20203   1.201   1.156   3.665  0.1670  0.1487  0.0654
 5073W        W20204  12.908  16.433   4.013 -0.0086  0.1824 -0.0562
 5074W        W20205  10.401  10.603  13.910  0.0305 -0.1511  0.0862
 5075W        W20206   7.519   5.443  13.441  0.2349 -0.1529  0.1084
 5076W        W20207  15.717   9.896   2.519 -0.1666 -0.0174 -0.2358
 5077W        W20208  15.453   6.993   1.310  0.1073  0.1157  0.1646
 5078W        W20209  12.509  14.423   2.090 -0.0838 -0.0801 -0.0217
 5079W        W20210   0.778  17.502  12.011  0.0259  0.0786  0.2574
 5080W        W20211  10.375  14.581  16.341  0.0837 -0.0016  0.2335
 5081W        W20212  13.671  17.099  16.487 -0.2642  0.0063 -0.4284
 5082W        W20213   1.706   4.603   3.112  0.0555  0.2189  0.2781
 5083W        W20214   6.594   7.065   5.700 -0.2738 -0.0411  0.0605
 5084W        W20215  11.120  15.373   2.624  0.1488 -0.1432  0.3047
 5085W        W20216  14.606   3.253   1.840  0.2734  0.1562 -0.0131
 5086W        W20217   9.993   7.476  12.199 -0.3969 -0.0163  0.3407
 5087W        W20218  10.842   4.892  11.675 -0.1091 -0.1461  0.1683
 5088W        W20219   1.273   7.664  11.419  0.0211  0.0364 -0.2109
 5089W        W20220  12.588  11.138  16.799  0.1374  0.0793  0.3909
 5090W        W20221   6.208  14.529   0.108  0.0391  0.0828  0.3606
 5091W        W20222  17.541   1.712  11.600 -0.0533 -0.0810  0.3184
 5092W        W20223   2.007   9.846   4.096 -0.2159 -0.1390 -0.2201
 5093W        W20224   9.003   7.871   2.645 -0.1949 -0.3691 -0.1924
 5094W        W20225   2.717  15.690  12.442  0.0325  0.0704 -0.2204
 5095W        W20226  15.961   6.862  13.611  0.0221 -0.0549 -0.0284
 5096W        W20227   2.294   6.673  11.568  0.4098  0.3097  0.0332
 5097W        W20228  13.360   7.929   3.598  0.0075 -0.0260  0.1686
 5098W        W20229   2.880  16.197  16.165 -0.1491 -0.2553 -0.0461
 5099W        W20230   2.894  13.872   0.085 -0.1393 -0.0540  0.1335
 5100W        W20231   1.510  17.659   1.868  0.0887  0.3843  0.1225
 5101W        W20232  15.280  13.388   0.487 -0.3132  0.2520  0.1674
 5102W        W20233   1.517   3.611  15.184  0.2778  0.2790  0.0283
 5103W        W20234   9.851   7.271  11.729  0.2074 -0.1758 -0.0299
 5104W        W20235   9.356   4.665  15.516  0.1115  0.4111 -0.0725
 5105W        W20236  11.465  12.404  14.154  0.1866  0.0926  0.1950
 5106W        W20237   5.385   3.737  12.134  0.4344  0.1335  0.0383
 5107W        W20238  11.808  13.227  11.915 -0.1086 -0.0217  0.0202
 5108W        W20239   4.490  14.978   6.411  0.2058  0.2961 -0.0734
 5109W        W20240  16.763   9.107  15.768  0.0734 -0.1999  0.0376
 5110W        W20241   2.814  17.448   3.293 -0.2189  0.3122 -0.1483
 5111W        W20242  12.661  17.086  11.598  0.0402 -0.0799 -0.0977
 5112W        W20243   8.614   8.146   2.792  0.0053  0.1436 -0.1068
 5113W        W20244   3.665   5.185  12.058 -0.0635  0.1300 -0.1255
 5114W        W20245  16.183  13.670  13.654  0.1235 -0.0899 -0.0683
 5115W        W20246  10.936   0.311   2.366  0.1022  0.1970  0.0018
 5116W        W20247   9.745   0.587  12.839 -0.0294 -0.2108 -0.0625
 5117W        W20248  10.738   3.634  15.710  0.1659 -0.1089  0.0861
 5118W        W20249   1.394   6.432  10.533 -0.3118 -0.2272  0.0215
 5119W        W20250   0.995   9.346   4.534 -0.0895 -0.1482 -0.0040
 5120W        W20251   2.634  11.119  15.423  0.0846  0.0320 -0.0746
 5121W        W20252   1.376  13.055  14.221 -0.0215 -0.0219  0.3713
 5122W        W20253   3.380   2.338   4.282  0.0666  0.3829  0.3198
 5123W        W20254  10.426   6.140  13.603  0.0239  0.2273 -0.0426
 5124W        W20255   4.017  14.732  14.017 -0.1652  0.1653 -0.0497
 5125W        W20256  13.219  11.405   3.486 -0.0799  0.1389 -0.0030
 5126W        W20257  16.137   2.403  16.870  0.0650  0.0526 -0.1928
 5127W        W20258   9.750  10.455   3.693 -0.3009 -0.0659  0.0347
 5128W        W20259  14.049  11.854   2.768 -0.0859  0.0857 -0.0422
 5129W        W20260   7.268  13.583   1.129  0.1203 -0.3900 -0.1071
 5130W        W20261  17.054   2.293  16.183  0.1562  0.4007 -0.0748
 5131W        W20262  10.531   3.825  14.791  0.1064 -0.1884  0.0422
 5132W        W20263   8.998   4.235  16.056 -0.0955  0.0975  0.1863
 5133W        W20264  14.800   6.915  14.818 -0.1860  0.0659 -0.1575
 5134W        W20265  17.035   6.317  12.182  0.3895  0.1743 -0.0980
 5135W        W20266   5.373   2.878   3.468  0.1478  0.1628  0.1267
 5136W        W20267  12.801   9.433  13.640 -0.0999 -0.0574  0.1748
 5137W        W20268  17.644   0.537  14.784 -0.0065  0.0615  0.1318
 5138W        W20269  10.854  10.860   1.968 -0.0907  0.0442 -0.1414
 5139W        W20270   4.772   2.943  12.221  0.2755  0.0873 -0.0366
 5140W        W20271   7.231   7.954   3.224  0.2548 -0.1116 -0.2058
 5141W        W20272   9.929   7.519  16.513  0.3602 -0.0524 -0.1489
 5142W        W20273   4.855  11.737  12.664  0.2102 -0.0488  0.2285
 5143W        W20274   2.246  17.461  12.178 -0.1905  0.2285 -0.3268
 5144W        W20275   9.195  12.470   0.981 -0.0719  0.2395 -0.0782
 5145W        W20276  13.077  16.938   1.546  0.0549 -0.2014 -0.0940
 5146W        W20277   9.740  14.416   1.565  0.1866  0.1119 -0.1743
 5147W        W20278  10.562  13.548  12.951 -0.1521 -0.3375 -0.3593
 5148W        W20279   9.298   7.878  12.891 -0.1019  0.1916 -0.1941
 5149W        W20280  17.446  10.271  13.640 -0.3413 -0.2784  0.4744
 5150W        W20281  12.183   6.752  11.688 -0.1684 -0.2357  0.0357
 5151W        W20282   0.279  17.344  15.290 -0.1145 -0.3085 -0.2514
 5152W        W20283  11.617  14.954   3.531  0.3040 -0.0565 -0.1875
 5153W        W20284   3.128   4.605   2.230 -0.0994  0.0145 -0.1665
 5154W        W20285  16.174  13.680   4.470  0.2278 -0.2813  0.1355
 5155W        W20286   4.605   3.723  16.461 -0.0765 -0.2023  0.1957
 5156W        W20287  12.784  16.049   4.376  0.0319 -0.2683  0.3320
 5157W        W20288  10.571   5.915  15.511 -0.2712  0.0280  0.0727
 5158W        W20289   2.500  14.886  13.542  0.0849 -0.3248 -0.0043
 5159W        W20290  10.618  10.577  11.057  0.0187  0.0330 -0.0980
 5160W        W20291   1.415   3.595  12.733 -0.2284  0.0083  0.0170
 5161W        W20292  17.366  15.172   4.769 -0.2819  0.2356  0.1301
 5162W        W20293  12.809  17.123   1.932 -0.0935 -0.2725  0.0171
 5163W        W20294   6.430   8.566   1.929  0.0525 -0.1096 -0.0771
 5164W        W20295   9.916   9.952  10.599 -0.0193 -0.0101 -0.2209
 5165W        W20296   1.543  11.576  14.650  0.1310  0.0960  0.1410
 5166W        W20297  14.037   2.756  11.617  0.2457 -0.0429  0.0605
 5167W        W20298  14.823   9.331   5.094 -0.1386 -0.1964  0.1195
 5168W        W20299   3.488  12.934  14.873  0.0172 -0.1068 -0.2273
 5169W        W20300   1.522   9.318  13.794  0.3600  0.1137 -0.3062
 5170W        W20301   3.765   1.200  11.560  0.0326 -0.0823  0.2642
 5171W        W20302  14.936   9.539  14.256 -0.0954 -0.0335 -0.0017
 5172W        W20303  10.394  10.518  16.570  0.0481 -0.1565  0.0298
 5173W        W20304   9.762  15.990   3.830  0.0012 -0.1634 -0.0028
 5174W        W20305   5.853   1.532  15.891  0.1275 -0.0803  0.0289
 5175W        W20306  11.511  10.098  15.529 -0.2931  0.0907  0.0887
 5176W        W20307   5.921  11.841  13.311 -0.2307 -0.0077  0.1706
 5177W        W20308  17.057  10.515   4.326 -0.2197 -0.2299 -0.1955
 5178W        W20309   9.109  10.539  11.405  0.4488 -0.0047  0.3233
 5179W        W20310   6.474  10.887   0.131 -0.0942  0.0314  0.0983
 5180W        W20311   6.254   4.260   4.413 -0.0102 -0.0177  0.1577
 5181W        W20312  14.834   5.429   4.481 -0.0915 -0.3427  0.0091
 5182W        W20313   6.829   4.408   2.354 -0.0699  0.2647 -0.1361
 5183W        W20314   5.727   6.685  15.398 -0.0957  0.0494 -0.1636
 5184W        W20315  16.153  12.074  14.299 -0.3153  0.0734  0.0900
 5185W        W20316   7.573   7.746  11.095 -0.1040 -0.1906  0.1430
 5186W        W20317   1.033   3.593  14.037  0.0595  0.1292 -0.0853
 5187W        W20318   5.984  12.243   2.923 -0.2463  0.0722  0.0053
 5188W        W20319  15.950   8.315  14.329 -0.2904 -0.0992 -0.3683
 5189W        W20320   6.113   8.452   4.489 -0.1303  0.0348 -0.1130
 5190W        W20321  14.657  16.056   4.467 -0.2119  0.0559  0.0509
 5191W        W20322   8.954   8.415   3.931  0.1592  0.0953 -0.2755
 5192W        W20323   6.214  13.295  11.102  0.0637  0.0170 -0.0300
 5193W        W20324   4.983  14.095  16.221  0.0147 -0.0519  0.0687
 5194W        W20325  16.187   7.775   2.331 -0.0173 -0.1945 -0.1688
 5195W        W20326  15.905   9.864   2.009  0.2298 -0.4108 -0.0220
 5196W        W20327   7.076   8.735  12.041 -0.2085 -0.0307 -0.3156
 5197W        W20328   7.331   3.833   0.213  0.0642 -0.2644  0.0925
 5198W        W20329  15.207   8.050  16.494 -0.3083  0.0608  0.1680
 5199W        W20330  12.405  15.913   2.879  0.2926 -0.1506  0.3470
 5200W        W20331  15.116  12.233  11.808  0.1055  0.1256  0.1433
 5201W        W20332  15.206   1.198   0.123 -0.1373  0.0716 -0.1203
 5202W        W20333  11.679  15.743  14.873 -0.2361  0.0165 -0.0641
 5203W        W20334   7.033   0.089   3.155  0.1554  0.0933  0.3914
 5204W        W20335  17.432  10.112   3.659  0.1178 -0.3861 -0.0287
 5205W        W20336  10.190   7.293  15.603 -0.0413  0.3606  0.2256
 5206W        W20337   1.997  16.276   3.011  0.0793 -0.2449  0.1785
 5207W        W20338  11.648  14.829   1.148 -0.1982  0.0283  0.1386
 5208W        W20339  11.891   7.030   0.772  0.0997  0.4185 -0.0067
 5209W        W20340  15.019   7.084   4.784 -0.2907  0.0826 -0.0711
 5210W        W20341   2.658   7.514  14.319  0.0713  0.0715  0.0467
 5211W        W20342  13.944   3.332  11.577 -0.0833 -0.1123  0.5267
 5212W        W20343   6.367   0.367   5.650  0.0765 -0.1950  0.0166
 5213W        W20344  15.438   0.173  16.865 -0.0069 -0.1750 -0.1019
 5214W        W20345  15.404  10.279  13.186  0.0022  0.2809 -0.1531
 5215W        W20346  15.140   7.747   3.454 -0.1189 -0.1569 -0.2144
 5216W        W20347  10.382  14.241  15.992 -0.0956 -0.1205 -0.0958
 5217W        W20348   4.557   5.156  14.344  0.0892  0.1175  0.2918
 5218W        W20349  13.800   4.614  13.493  0.0715  0.4317 -0.1157
 5219W        W20350   0.111   8.966  13.165  0.2067 -0.2470 -0.2431
 5220W        W20351   1.510   4.243   2.851  0.1376  0.1197  0.0800
 5221W        W20352  16.093  15.162   3.696 -0.1142 -0.0137 -0.0598
 5222W        W20353  12.977   1.987  14.547  0.3894 -0.2189 -0.1192
 5223W        W20354   9.606   9.643   1.381 -0.0551 -0.1931  0.1331
 5224W        W20355   6.727  13.783   4.877 -0.1391 -0.1972  0.0962
 5225W        W20356   6.223  14.382   4.429 -0.2612  0.2471  0.0481
 5226W        W20357  15.358  14.609  14.699 -0.2658  0.0621 -0.1192
 5227W        W20358   3.115   6.325  14.397 -0.0073  0.0442 -0.3205
 5228W        W20359  16.287   1.420  14.768 -0.1950  0.0055 -0.0042
 5229W        W20360  12.268   3.917   5.596  0.2516 -0.0523  0.0626
 5230W        W20361   8.082   4.816  13.666 -0.3582  0.1311 -0.1165
 5231W        W20362  17.626   4.558  11.259  0.1092 -0.2313 -0.0211
 5232W        W20363   9.445  13.169   4.589 -0.1563  0.1678 -0.3977
 5233W        W20364   8.311  10.057   5.373  0.3326  0.0430 -0.0140
 5234W        W20365   8.633  17.426  14.475  0.0224  0.1147 -0.0024
 5235W        W20366  12.427   6.815   0.305  0.1047 -0.0461 -0.1782
 5236W        W20367   5.990   7.345   1.633  0.0232  0.2394 -0.1050
 5237W        W20368   9.068  10.449  11.924 -0.0149 -0.0704  0.0902
 5238W        W20369   5.150  16.149  15.983  0.1201  0.1950 -0.2164
 5239W        W20370   9.479  16.710  13.663 -0.0309  0.1100 -0.0150
 5240W        W20371   6.546   8.756  11.696 -0.1070  0.0371 -0.1446
 5241W        W20372   1.736  14.075   1.770 -0.3195  0.1802  0.0085
 5242W        W20373   4.901  12.548  11.500  0.1581 -0.3204 -0.3066
 5243W        W20374   6.361   7.891   2.134  0.0506 -0.0923 -0.2723
 5244W        W20375   7.808  16.396  13.588 -0.0264 -0.3433  0.1108
 5245W        W20376  10.970   7.612  13.170 -0.3764  0.0226 -0.3518
 5246W        W20377  16.503   0.109  15.193 -0.3053 -0.0348  0.1072
 5247W        W20378   8.037  12.907   2.064  0.0530 -0.1810 -0.2532
 5248W        W20379   4.533   5.109   0.228  0.1743  0.5127 -0.2353
 5249W        W20380   1.183   3.232   3.248 -0.2488 -0.1859  0.1119
 5250W        W20381  16.625   0.762   5.378  0.0346 -0.0566  0.0899
 5251W        W20382  17.287   7.881  15.683 -0.0264 -0.0187  0.1371
 5252W        W20383   1.097   0.681   2.899  0.0844  0.0610 -0.1030
 5253W        W20384  13.455   9.479   4.362 -0.1625 -0.3533 -0.2438
 5254W        W20385   9.993  17.014   5.547  0.1283  0.1137  0.2477
 5255W        W20386   5.944   0.198   0.131 -0.0526  0.0223  0.0282
 5256W        W20387   9.118   0.622  12.791 -0.2080 -0.3212 -0.1443
 5257W        W20388   4.733   1.211   4.481 -0.0477  0.0298  0.0643
 5258W        W20389   0.884  13.145  15.074  0.1060 -0.0346  0.1670
 5259W        W20390  14.889  14.937   2.120 -0.1178  0.0387 -0.1602
 5260W        W20391  10.958   7.584   5.989 -0.2253  0.0370  0.0901
 5261W        W20392   9.747   7.251   0.425  0.0109 -0.0070 -0.3463
 5262W        W20393   8.648   7.584   4.273  0.2336 -0.0481  0.0325
 5263W        W20394  16.644  13.848  11.957  0.1604  0.0827  0.2102
 5264W        W20395  13.597   9.328   3.358  0.1621 -0.0611  0.3131
 5265W        W20396   6.571   8.870   1.163 -0.0310 -0.3715  0.0123
 5266W        W20397   1.795  13.370   5.144 -0.0205 -0.3233  0.2568
 5267W        W20398   1.984  15.383   4.047  0.2061  0.2418  0.0015
 5268W        W20399  10.534   8.862   5.856 -0.0139  0.1116 -0.0836
 5269W        W20400   7.270   5.657  11.121 -0.0997 -0.0645 -0.0021
 5270W        W20401   5.063  13.513   2.813  0.0189 -0.0748 -0.1614
 5271W        W20402  17.325   6.300   5.288  0.1450 -0.0697 -0.0624
 5272W        W20403  11.830   1.955   5.412 -0.1279 -0.0467 -0.3060
 5273W        W20404   9.156   3.413  11.605  0.0316  0.1940 -0.1070
 5274W        W20405  11.632  16.211  15.001 -0.2703  0.4713 -0.0148
 5275W        W20406  10.447  13.965  12.771  0.0598  0.2037  0.0146
 5276W        W20407   5.755   5.506  14.763  0.1949 -0.2335  0.0270
 5277W        W20408   0.510  12.875  11.091 -0.0233 -0.0008  0.1751
 5278W        W20409  13.277   8.438  12.325  0.1761 -0.0241 -0.1286
 5279W        W20410   0.120   6.820   1.458  0.1530  0.0201 -0.2331
 5280W        W20411   0.329   5.815  13.094 -0.0839 -0.0794  0.0389
 5281W        W20412  16.030  17.567   3.638  0.4554  0.1039  0.3398
 5282W        W20413   2.997   8.106  11.780 -0.1550  0.2341 -0.1537
 5283W        W20414   9.026  10.753   1.490  0.1208 -0.0351 -0.2207
 5284W        W20415   6.535   3.056   4.633 -0.2647  0.1528  0.2237
 5285W        W20416  16.952   0.010   1.859 -0.0068  0.1608 -0.0606
 5286W        W20417  15.989   7.817  13.388  0.1301 -0.1458  0.2911
 5287W        W20418   0.776  12.678   0.308  0.0736 -0.1907  0.0888
 5288W        W20419   4.223  13.451  13.528  0.1253  0.2138 -0.1011
 5289W        W20420  13.171  10.319   4.922 -0.0629 -0.1397 -0.0037
 5290W        W20421   9.665  16.271  12.636  0.0216 -0.0857 -0.0068
 5291W        W20422  12.825   9.595   0.080 -0.0412  0.1022 -0.1347
 5292W        W20423   4.025   0.239  15.294 -0.0196 -0.0116  0.1030
 5293W        W20424  11.123  16.370   2.789  0.1415 -0.1872 -0.3388
 5294W        W20425   9.803   7.696  15.696 -0.1851 -0.0057  0.0715
 5295W        W20426   5.802  16.627   2.883 -0.1460 -0.3012  0.2592
 5296W        W20427  14.303   1.834  13.224 -0.1954  0.3446  0.1770
 5297W        W20428  14.195   8.503  11.539 -0.1774  0.1141 -0.0462
 5298W        W20429   1.207   5.723   4.703  0.0423  0.2257  0.2630
 5299W        W20430   7.463   7.884   0.600  0.4164  0.1449 -0.1750
 5300W        W20431  15.261   2.966   1.305  0.0516  0.0577  0.0099
 5301W        W20432  10.807   4.065   1.558  0.0536  0.0512 -0.1794
 5302W        W20433   6.949   6.644   0.568 -0.1934  0.2203 -0.0795
 5303W        W20434   0.131  10.290   2.362  0.1196 -0.0710 -0.0694
 5304W        W20435   8.525   1.915   1.272  0.2220  0.3137 -0.1389
 5305W        W20436   4.742  12.573  14.927  0.1096 -0.1540 -0.0722
 5306W        W20437   0.852  10.413  12.044 -0.0145 -0.4035 -0.0926
 5307W        W20438   1.966   1.854   1.746 -0.1210  0.0752 -0.1720
 5308W        W20439   5.032   7.763   2.293 -0.0584 -0.0024 -0.2245
 5309W        W20440  11.331   1.955  15.463 -0.1748 -0.4113 -0.3062
 5310W        W20441  15.076  10.838  12.274 -0.0148 -0.3268 -0.0841
 5311W        W20442   2.598  16.235  14.734  0.3594  0.0990  0.0402
 5312W        W20443   4.862  14.667   6.653 -0.0991  0.0352 -0.2060
 5313W        W20444  13.764   0.986   0.922 -0.0256 -0.0861 -0.2959
 5314W        W20445   1.316   4.316  16.165  0.0433  0.1891  0.3222
 5315W        W20446  16.441  17.703  16.872  0.0870  0.1899 -0.1498
 5316W        W20447  10.191   9.548  12.818  0.0764  0.2655 -0.0178
 5317W        W20448   9.926   1.016   2.768  0.2287  0.1318  0.1248
 5318W        W20449   3.430  13.019  15.877 -0.1079  0.0462  0.0337
 5319W        W20450   8.896  15.920   5.078  0.2333  0.2762 -0.2407
 5320W        W20451  10.550  14.967  16.093  0.1833 -0.1338 -0.2401
 5321W        W20452   2.942   6.785  12.307  0.2925 -0.0678  0.0504
 5322W        W20453   7.599  11.952  15.204  0.1549 -0.0436 -0.3872
 5323W        W20454   3.074   7.429   2.290  0.0603 -0.0550  0.0838
 5324W        W20455  12.809   7.387   3.991  0.0824 -0.0074 -0.3471
 5325W        W20456   7.463   0.137  14.323 -0.0676  0.0705  0.0837
 5326W        W20457   2.483   9.320   3.377 -0.0508  0.1360  0.1135
 5327W        W20458  10.345   5.063   1.490  0.0661  0.1531  0.2425
 5328W        W20459   8.999   8.358   1.814  0.1954 -0.0374 -0.2892
 5329W        W20460  11.947   3.894  13.877 -0.1699 -0.0418  0.0252
 5330W        W20461   2.030   8.233   3.180  0.0067  0.2927 -0.0520
 5331W        W20462   0.228   3.774   4.600  0.1730  0.0190 -0.0370
 5332W        W20463   0.578  12.435  15.775  0.0910 -0.1127  0.4464
 5333W        W20464   3.170   3.262  15.708  0.1347  0.2345  0.2826
 5334W        W20465  14.625  13.333   1.939  0.1351  0.1624 -0.1091
 5335W        W20466  10.042  12.657  13.754  0.0197  0.3716 -0.0032
 5336W        W20467   3.921   8.602   3.070  0.0728 -0.0030  0.0502
 5337W        W20468   9.659   1.024   4.147 -0.1036  0.0953  0.0655
 5338W        W20469  14.483  13.563  14.957 -0.0983 -0.0098 -0.1194
 5339W        W20470  15.079  12.025  14.173 -0.2067 -0.0308 -0.2609
 5340W        W20471   6.069   6.256  11.222 -0.1122  0.1043  0.3426
 5341W        W20472   0.783  10.020   1.085  0.3990 -0.1530  0.3790
 5342W        W20473  13.424  10.156   1.677 -0.1687  0.0749  0.0368
 5343W        W20474  14.684  14.606   0.154  0.0931 -0.1194 -0.3562
 5344W        W20475  11.284   8.721   2.812  0.0341 -0.1736  0.3144
 5345W        W20476  10.483  13.997   1.975  0.1291  0.0780  0.2780
 5346W        W20477   8.936  15.015  16.723 -0.0807 -0.0256  0.2231
 5347W        W20478   0.836  14.205   2.648  0.0489  0.3006 -0.0159
 5348W        W20479   9.838   5.482  15.484 -0.1957 -0.2742  0.2457
 5349W        W20480   8.251   0.563  12.393 -0.4322 -0.1542  0.0427
 5350W        W20481  11.118  16.449  14.491  0.2028 -0.0324  0.2068
 5351W        W20482   7.690  16.940   3.538  0.0276 -0.4882  0.0495
 5352W        W20483  14.130   0.462   4.364 -0.0367  0.0243 -0.1692
 5353W        W20484   2.747   1.128  12.425  0.1841  0.1944  0.0357
 5354W        W20485   3.102  14.555  12.677 -0.1988  0.0991  0.1499
 5355W        W20486   6.321   1.233   4.087  0.0800 -0.3610  0.1662
 5356W        W20487   3.521  12.952   1.171 -0.2064 -0.0154 -0.1686
 5357W        W20488  13.817  12.478  11.753 -0.0838  0.2497 -0.0130
 5358W        W20489   5.101   4.198   4.657  0.0274 -0.1392  0.1619
 5359W        W20490  15.664  10.574  15.502 -0.1714 -0.2445 -0.2879
 5360W        W20491  11.837   0.922  13.585  0.0985  0.2244  0.1739
 5361W        W20492  14.386  16.200  14.490  0.0877  0.4145 -0.1367
 5362W        W20493   1.025   5.859   4.253 -0.0080  0.2536  0.0934
 5363W        W20494  13.796  12.047   1.368 -0.0699 -0.1103 -0.1089
 5364W        W20495   1.038   4.418  12.138 -0.1648 -0.0433  0.1110
 5365W        W20496  12.313  16.739  15.112  0.1044 -0.2109  0.1025
 5366W        W20497   3.728  17.218  16.608 -0.0049 -0.1344 -0.1702
 5367W        W20498   9.475  16.935   4.063 -0.1066 -0.3072 -0.0207
 5368W        W20499  14.266   4.901   1.912 -0.1755  0.1091 -0.1401
 5369W        W20500   8.549   1.541   0.410  0.1276 -0.1396 -0.0343
 5370W        W20501  16.712   1.309   1.656  0.1203  0.2218  0.0084
 5371W        W20502   0.720  13.449   1.044 -0.0238 -0.1720  0.0831
 5372W        W20503   0.120   0.629  16.263 -0.1714  0.0117  0.1072
 5373W        W20504   7.684   9.745   3.901 -0.1512 -0.0912  0.0973
 5374W        W20505   8.361   7.673  14.359  0.0898  0.1778 -0.2089
 5375W        W20506   7.081   0.985  13.089 -0.0553  0.1924  0.1403
 5376W        W20507   0.944  13.066  11.649 -0.0388  0.1528  0.2321
 5377W        W20508   3.361   4.644   5.383  0.1939 -0.0470  0.1113
 5378W        W20509   6.584   7.887   1.281 -0.1202  0.0605 -0.0180
 5379W        W20510   6.382   6.034   1.738  0.0996  0.1448 -0.0547
 5380W        W20511  10.188   3.444   1.427 -0.0256  0.2821  0.0808
 5381W        W20512  17.385   7.520  14.936  0.2669 -0.0463  0.0536
 5382W        W20513   7.572  13.586  13.901 -0.2086  0.1682 -0.2821
 5383W        W20514   4.873   6.852  10.970 -0.1560 -0.1550  0.0069
 5384W        W20515   8.865   1.033  14.286  0.1580  0.0712  0.4239
 5385W        W20516  15.016   2.936   0.314 -0.1391  0.1843 -0.1204
 5386W        W20517  13.316  12.768  15.262  0.0811  0.0364  0.0093
 5387W        W20518   5.949   2.252  14.855 -0.2296 -0.1313  0.0104
 5388W        W20519   9.505   9.144   2.618  0.1095  0.0078  0.0961
 5389W        W20520   3.536   7.005  13.978 -0.0574 -0.2160  0.0194
 5390W        W20521   3.073  14.454  16.436  0.0283  0.1006 -0.0159
 5391W        W20522  10.418   6.034   0.528  0.1365  0.1013 -0.1401
 5392W        W20523  16.676   5.173  16.650 -0.0472 -0.3254 -0.1116
 5393W        W20524   0.471  12.734   5.350  0.1453 -0.1007  0.1547
 5394W        W20525   7.874   9.696  13.094 -0.0779  0.1045  0.1815
 5395W        W20526   4.909  11.668   0.402 -0.4344 -0.2967 -0.0870
 5396W        W20527  10.748  16.155  11.524 -0.2896  0.1294  0.0885
 5397W        W20528  15.451  16.377   5.987 -0.2902 -0.1911  0.0553
 5398W        W20529  10.556  12.417  11.517 -0.0983  0.2166 -0.1409
 5399W        W20530   9.805  15.894   0.685 -0.1996  0.2029 -0.5016
 5400W        W20531  15.147  12.524   6.394  0.2709 -0.3597  0.0428
 5401W        W20532  12.843   1.365   2.451  0.1035  0.1745  0.1064
 5402W        W20533   1.417  14.798   3.089  0.0624  0.1536  0.0178
 5403W        W20534  10.913   9.373   0.726  0.2931  0.2251 -0.1296
 5404W        W20535   7.979  17.348   5.981 -0.0110  0.1150  0.3970
 5405W        W20536  16.196   6.728  12.922  0.0719 -0.1887 -0.0448
 5406W        W20537   0.720   6.511   5.626 -0.2016 -0.0809 -0.1307
 5407W        W20538  11.210   1.500  14.154  0.1708  0.0420 -0.0653
 5408W        W20539  16.077   9.523   3.447 -0.1531 -0.0204  0.3522
 5409W        W20540  14.915  11.316  16.684 -0.2362  0.0499 -0.1683
 5410W        W20541   1.365   4.007  12.331 -0.1226 -0.2308 -0.1402
 5411W        W20542   6.956  14.289   2.611 -0.1694  0.2746  0.0367
 5412W        W20543   2.702   2.779   0.273 -0.1518  0.0661  0.0589
 5413W        W20544   3.345  16.870  15.722 -0.2157 -0.4547 -0.1069
 5414W        W20545   5.217   0.097  10.872  0.0167  0.0529 -0.0513
 5415W        W20546  11.422  13.160   2.949  0.0297  0.1142 -0.1859
 5416W        W20547   1.097   9.742  15.577  0.1583  0.1301 -0.0425
 5417W        W20548   6.289  16.244   3.035  0.2384  0.2324  0.1827
 5418W        W20549  11.011   3.809   3.148 -0.0849 -0.0236 -0.1907
 5419W        W20550  17.173  17.226  15.440  0.0352 -0.0621  0.1044
 5420W        W20551  10.246  16.114   5.486  0.0728 -0.0271  0.2749
 5421W        W20552   5.769  13.672   0.313  0.2233  0.1414 -0.0278
 5422W        W20553   2.532   1.175   3.679  0.3083 -0.2877  0.1126
 5423W        W20554  12.514  13.251  11.568  0.0057 -0.2474 -0.0827
 5424W        W20555  12.208  14.726   4.436 -0.0036  0.1886  0.1294
 5425W        W20556   6.479   2.106   0.043 -0.0179  0.0423 -0.2189
 5426W        W20557   9.444  11.277   3.444  0.2753 -0.2115  0.1835
 5427W        W20558  15.343  13.021  11.860  0.3552 -0.1239  0.0541
 5428W        W20559   9.212  12.082  13.773  0.1275  0.2147  0.0295
 5429W        W20560   2.084   3.815   1.642 -0.0753  0.0678 -0.0286
 5430W        W20561  13.739   9.712   2.089  0.1078  0.0083  0.1626
 5431W        W20562   8.750   7.255   0.040  0.1828 -0.1479  0.1324
 5432W        W20563   2.003  11.047   4.520  0.0837  0.1331  0.1287
 5433W        W20564   6.398   8.182  11.636 -0.1429  0.0094  0.0758
 5434W        W20565  17.380   4.627  13.109  0.0119 -0.0010 -0.1921
 5435W        W20566   9.283  12.161  16.288 -0.0159 -0.2793 -0.4567
 5436W        W20567  14.792   3.153   1.377 -0.0465 -0.0454 -0.0807
 5437W        W20568   5.899   9.241  12.180  0.0506 -0.1165 -0.0723
 5438W        W20569  12.145   3.971   0.235 -0.1471  0.2520  0.2291
 5439W        W20570  13.950  10.221   1.720 -0.0802  0.0688 -0.2200
 5440W        W20571   8.987  11.334   5.676 -0.0085 -0.1226 -0.3649
 5441W        W20572   9.497   1.357   5.926  0.1072  0.1054  0.1071
 5442W        W20573   2.789   0.019  13.551 -0.2740  0.1246 -0.0109
 5443W        W20574  11.430  10.146  12.367 -0.1464 -0.1868 -0.1534
 5444W        W20575   9.479   6.449  15.505  0.1682  0.1936  0.2003
 5445W        W20576   7.059   4.316  11.165 -0.0652  0.1782 -0.2471
 5446W        W20577   5.512  13.596  15.511 -0.1458 -0.0637 -0.0327
 5447W        W20578   4.930  14.154  15.030  0.0205 -0.0386 -0.0460
 5448W        W20579  16.999   3.356  15.137  0.1149  0.0703 -0.1538
 5449W        W20580  13.913   0.154   4.720  0.1297 -0.2036 -0.1872
 5450W        W20581  11.279   0.347  14.246 -0.3182  0.0420 -0.0027
 5451W        W20582   6.899  16.450  14.479 -0.1138 -0.1280  0.2336
 5452W        W20583   2.270   4.345   5.760  0.2686 -0.2884 -0.0553
 5453W        W20584  13.937  12.992  15.426  0.0725  0.0399 -0.0146
 5454W        W20585  14.013   6.407   6.027 -0.0408  0.0687 -0.0321
 5455W        W20586  16.099  13.704   5.010 -0.3737 -0.1573 -0.1590
 5456W        W20587  15.183   6.464  12.046  0.1753 -0.0888 -0.2370
 5457W        W20588  13.326  17.255   1.253 -0.1743 -0.0280 -0.0313
 5458W        W20589   3.295  11.278  13.703 -0.1724 -0.4968  0.1566
 5459W        W20590  14.397   9.691   1.213 -0.3839 -0.0865  0.4634
 5460W        W20591   6.419  16.124  12.461  0.1939  0.1835  0.0895
 5461W        W20592   0.097  16.887   2.999  0.4822 -0.4405 -0.0067
 5462W        W20593   8.296   5.549  16.589 -0.0021 -0.0479 -0.1577
 5463W        W20594   5.402  13.986   2.786  0.2659  0.1876  0.1125
 5464W        W20595   2.438   6.207   4.629  0.2440 -0.1065 -0.0889
 5465W        W20596   1.222   8.344  15.525 -0.2383 -0.0524  0.3114
 5466W        W20597  16.862  14.047  12.352 -0.0611 -0.0889  0.3659
 5467W        W20598   6.237   2.953  13.718  0.0280  0.0310  0.2320
 5468W        W20599  13.617   3.046  11.883  0.4818  0.0213 -0.2668
 5469W        W20600  10.411   1.259   2.300  0.0136  0.0587 -0.0213
 5470W        W20601  11.400   5.601  14.363  0.0400 -0.2650 -0.1547
 5471W        W20602   4.924  12.497   3.699  0.2090 -0.2130 -0.0081
 5472W        W20603   9.229  11.835  14.242 -0.1312  0.3297 -0.1849
 5473W        W20604  11.784  17.261   0.340  0.0689  0.0077  0.2090
 5474W        W20605  16.116  12.375   3.115 -0.1736  0.2705  0.0117
 5475W        W20606  12.245   9.594  15.311 -0.1747  0.0058 -0.3404
 5476W        W20607   9.943  11.933   2.370 -0.0527  0.0383  0.0567
 5477W        W20608  11.311   5.977  13.973 -0.0096  0.0378  0.0972
 5478W        W20609  11.224   0.647   5.488  0.0147  0.0106  0.0788
 5479W        W20610   5.908  16.490   5.235  0.0172  0.1577 -0.1531
 5480W        W20611   3.878  15.802   2.600  0.0858 -0.4007 -0.2125
 5481W        W20612   2.516   5.673  11.806 -0.0311  0.1327 -0.1226
 5482W        W20613   5.477   3.057   2.766  0.0272  0.0047  0.1261
 5483W        W20614  17.133  14.306  16.817 -0.1346 -0.3023 -0.0016
 5484W        W20615  12.752   1.879   0.127 -0.1409  0.3921  0.0258
 5485W        W20616   9.073   3.249   4.358  0.1490 -0.0725  0.2786
 5486W        W20617   1.265   8.435   5.683 -0.0815 -0.0532 -0.0474
 5487W        W20618   9.357   7.203   3.372  0.1064 -0.1618 -0.0863
 5488W        W20619  11.201   1.521   5.959  0.0719 -0.0180  0.2895
 5489W        W20620   2.140  11.786   5.068 -0.3805  0.1273 -0.2575
 5490W        W20621   4.261   3.420  11.851  0.2200  0.1027  0.0945
 5491W        W20622   1.944  16.252   6.195  0.2157  0.0401 -0.1065
 5492W        W20623  16.379   2.935  13.936  0.0231  0.0756  0.0084
 5493W        W20624  11.900  14.968   1.524 -0.1958  0.1545 -0.1296
 5494W        W20625  11.429  16.705  16.153 -0.0944  0.2715 -0.0537
 5495W        W20626  16.852  12.878  15.129  0.4134 -0.1178  0.0614
 5496W        W20627  11.625   0.584   1.712 -0.1667 -0.2323  0.5751
 5497W        W20628  13.697   7.984  14.695 -0.0977  0.2030 -0.0015
 5498W        W20629  13.312  15.717  11.329  0.0501  0.3149 -0.2532
 5499W        W20630   0.772   6.797  11.703  0.0528  0.1393  0.2667
 5500W        W20631  15.639   6.758  13.201 -0.1074 -0.2480  0.2414
 5501W        W20632  17.175   6.513   0.124  0.2330 -0.0160 -0.0857
 5502W        W20633  17.423   5.036  15.609  0.0337 -0.3785  0.0144
 5503W        W20634   6.099  12.542  16.274 -0.0119 -0.0477 -0.2270
 5504W        W20635   1.300   8.608   0.805  0.2336  0.0538 -0.1203
 5505W        W20636   6.493   8.841   4.683 -0.0054 -0.2008  0.1363
 5506W        W20637   2.038  10.445   5.376 -0.1426  0.0520  0.0707
 5507W        W20638  12.566   2.942  16.454 -0.1686  0.0539  0.2436
 5508W        W20639   7.145  10.319   1.033 -0.3151  0.3490 -0.1050
 5509W        W20640  14.966   6.968   4.259 -0.1458  0.3550  0.3302
 5510W        W20641   6.453   4.435   5.566 -0.3986 -0.3542 -0.1127
 5511W        W20642  14.213   3.921   3.193  0.0616 -0.1230 -0.0064
 5512W        W20643   7.604  15.701   0.377  0.0323  0.2115  0.0087
 5513W        W20644  15.337  13.204  14.942 -0.0009  0.0553  0.0684
 5514W        W20645  16.448   7.321  15.442  0.1381  0.2146  0.0860
 5515W        W20646   5.852   7.912  15.817  0.1896  0.1932 -0.2588
 5516W        W20647   5.731  16.128   1.422  0.1632  0.1515 -0.0810
 5517W        W20648   2.184   6.419  14.309 -0.0233  0.0884 -0.1783
 5518W        W20649   1.715  10.449  16.276 -0.1366 -0.2278  0.3096
 5519W        W20650  16.526  14.214   3.793 -0.1237 -0.0936  0.4788
 5520W        W20651  12.876   6.343  16.577  0.0895 -0.0054  0.0890
 5521W        W20652  15.087   8.418   2.270  0.1098 -0.1683 -0.1224
 5522W        W20653   0.913  13.858  16.149  0.0456 -0.1257 -0.0300
 5523W        W20654  16.700  12.994   4.619 -0.3261 -0.1087 -0.1686
 5524W        W20655  16.023   1.497   2.954 -0.1522 -0.0806 -0.1611
 5525W        W20656  17.400   0.797  11.759 -0.1104  0.0992 -0.0274
 5526W        W20657   0.095   2.509   3.941 -0.0942 -0.2298  0.0900
 5527W        W20658   6.370   6.687  13.881 -0.0127 -0.0335 -0.0811
 5528W        W20659   4.162  14.530   2.309 -0.1047  0.3028  0.1683
 5529W        W20660  17.676   3.358   4.464  0.1776  0.0004  0.0398
 5530W        W20661   9.153   6.434  11.704 -0.2698  0.0658  0.1418
 5531W        W20662  11.147  12.701   3.033  0.0509 -0.2206 -0.1785
 5532W        W20663  13.069  13.257  13.701 -0.0388 -0.0018 -0.2638
 5533W        W20664   4.675  10.552   0.706 -0.0212 -0.0846 -0.1684
 5534W        W20665   1.699  12.314  13.586 -0.2774  0.2369  0.1982
 5535W        W20666  10.122  15.150   2.254 -0.3113 -0.0128 -0.1702
 5536W        W20667   1.544  13.206  15.073 -0.1393  0.0173 -0.0749
 5537W        W20668   6.764  13.086   1.860  0.0377  0.0574  0.1915
 5538W        W20669   4.646  15.710   3.567 -0.0011  0.1613  0.3318
 5539W        W20670  11.764  14.054  14.045 -0.1890 -0.2532  0.1105
 5540W        W20671   4.900   5.702  13.700  0.2001 -0.0423  0.0604
 5541W        W20672  16.519   4.769  14.304 -0.4306 -0.1483 -0.0923
 5542W        W20673   8.126   3.564   2.897  0.0861  0.1936 -0.2831
 5543W        W20674   8.461  14.425  16.466  0.2544  0.1078 -0.4428
 5544W        W20675   5.521   2.893   0.773  0.2647 -0.1005 -0.2182
 5545W        W20676  15.083   2.202   1.282 -0.1950  0.0475 -0.2915
 5546W        W20677  12.967  10.088   0.438 -0.1376  0.1124  0.0380
 5547W        W20678  13.498   7.591   3.276  0.1858  0.1938  0.2667
 5548W        W20679  13.212  12.904   0.031  0.0751  0.0433 -0.0884
 5549W        W20680   4.150   4.349  11.943  0.1218  0.0344 -0.2371
 5550W        W20681  11.185  16.217  11.769 -0.1379 -0.1110 -0.1817
 5551W        W20682  13.311  14.656   3.961  0.2132 -0.1527 -0.1965
 5552W        W20683  16.044  11.650  14.758  0.0590  0.1247 -0.1001
 5553W        W20684  16.644  14.939   0.198 -0.0642 -0.0300 -0.2616
 5554W        W20685  12.754   6.033   2.010 -0.2173 -0.2612  0.0446
 5555W        W20686  14.413   5.229   4.652 -0.0830 -0.0607 -0.1095
 5556W        W20687   7.242  10.964  12.454 -0.0925  0.0208  0.0191
 5557W        W20688  15.869  16.339  16.237 -0.1134  0.2102  0.1308
 5558W        W20689   7.467   9.724   4.995  0.1113  0.1521 -0.0449
 5559W        W20690   0.017  14.337   1.802 -0.1244 -0.0830 -0.2814
 5560W        W20691   2.604  11.121   1.086 -0.2563 -0.2458  0.1994
 5561W        W20692  12.740  12.515   2.733 -0.0795  0.3085  0.0300
 5562W        W20693  17.294   9.843  12.423  0.3014 -0.0793 -0.0432
 5563W        W20694   1.651   1.555  16.298 -0.1881 -0.2871 -0.0331
 5564W        W20695   2.838   2.335  13.750  0.0504  0.0328 -0.0915
 5565W        W20696   8.257   3.387   4.365 -0.2204  0.1922  0.0417
 5566W        W20697   5.128   7.818  12.553 -0.0134  0.2499 -0.0347
 5567W        W20698  17.602   0.417  15.863 -0.1233  0.1357 -0.0592
 5568W        W20699   5.448  16.027  11.970 -0.1857  0.3402  0.0924
 5569W        W20700  15.615  14.843   1.811  0.3084 -0.1124 -0.0001
 5570W        W20701  15.385  14.861  15.128 -0.0426 -0.1973 -0.0248
 5571W        W20702  10.204  17.575  16.471  0.0998 -0.0811  0.0329
 5572W        W20703  11.611  11.655  12.859 -0.0692  0.0427  0.0633
 5573W        W20704   4.980   5.528   2.082  0.4630 -0.2010 -0.1450
 5574W        W20705   5.905   8.456   0.190  0.0727  0.0444 -0.1638
 5575W        W20706   6.175  15.390  13.064  0.0725 -0.0284 -0.3729
 5576W        W20707   6.059  12.655  15.350 -0.1431  0.0357 -0.0325
 5577W        W20708  16.295  14.783  14.069  0.3170  0.1555 -0.0273
 5578W        W20709   3.740  15.601   3.586 -0.1608 -0.1409  0.1140
 5579W        W20710   8.583  12.396   4.619  0.1622 -0.2400  0.2482
 5580W        W20711   4.738  15.239   4.832 -0.0700  0.0272 -0.0690
 5581W        W20712  14.093   9.600  14.350  0.1929 -0.1070  0.1232
 5582W        W20713  12.134  16.036  16.696  0.1008 -0.2987 -0.0134
 5583W        W20714  10.030   2.413   4.713  0.2027 -0.1315  0.1436
 5584W        W20715   0.399  12.448   1.899 -0.1569 -0.0826 -0.1847
 5585W        W20716  14.014   6.259   0.465 -0.1572  0.0483 -0.1927
 5586W        W20717   6.576  16.213   4.057 -0.0188 -0.0514 -0.1883
 5587W        W20718   9.919  11.242   1.965  0.4313 -0.1640  0.2748
 5588W        W20719  11.311  12.971  14.038 -0.0802 -0.2231  0.0208
 5589W        W20720   7.161  16.897  14.586  0.0456 -0.1487  0.2028
 5590W        W20721   2.344  10.585  12.050  0.0893  0.0822  0.1061
 5591W        W20722   5.817  15.027   4.019  0.0465  0.1606 -0.1133
 5592W        W20723   0.037  15.959  12.531 -0.2650  0.1879  0.0931
 5593W        W20724  15.715   6.793   4.529  0.1236  0.1050  0.0667
 5594W        W20725  13.838  16.425   3.778  0.2235  0.1869 -0.2505
 5595W        W20726  13.391  16.164  16.323 -0.1193 -0.1034  0.1948
 5596W        W20727  12.045  14.310   2.597  0.1551 -0.1796  0.4475
 5597W        W20728   5.412   0.488  10.730 -0.1917  0.1105 -0.0622
 5598W        W20729   1.332   0.575  10.313 -0.1296  0.1433 -0.2130
 5599W        W20730  15.326   5.639  14.916 -0.2849  0.1430  0.2258
 5600W        W20731  17.557   2.264  12.474 -0.2145  0.1975  0.0371
 5601W        W20732   3.263   4.126   2.000  0.5165 -0.2256  0.0875
 5602W        W20733   9.669   6.994  16.452  0.4964  0.1029  0.1011
 5603W        W20734  12.404   9.092  13.922  0.0229 -0.0458 -0.0822
 5604W        W20735  16.808  12.480  15.567 -0.3157  0.0181  0.1691
 5605W        W20736   7.763   5.769   5.373  0.3594  0.0576 -0.2087
 5606W        W20737  15.905  12.236  16.240  0.0592  0.1564 -0.1114
 5607W        W20738   8.811   1.674  12.272  0.0417  0.1079  0.0930
 5608W        W20739   8.581  14.043  16.072  0.2020 -0.2575  0.2995
 5609W        W20740   8.918   7.092   3.124 -0.2102 -0.0418  0.0224
 5610W        W20741   0.919  16.578  15.809 -0.0973  0.1058 -0.0620
 5611W        W20742  12.471   8.820  12.242 -0.1838  0.0642 -0.2440
 5612W        W20743  17.014  14.631   4.419  0.0785  0.2408  0.1116
 5613W        W20744  10.587   1.512  13.950 -0.1958 -0.0572 -0.0928
 5614W        W20745   3.011  13.682  14.703  0.2780  0.0177  0.0246
 5615W        W20746   8.283   9.550  10.517 -0.1247 -0.0622 -0.2122
 5616W        W20747   3.567  13.674   5.256 -0.0431  0.0170 -0.2018
 5617W        W20748   6.322   9.022  12.277 -0.2635 -0.1099 -0.0717
 5618W        W20749  12.266   2.548  12.503  0.0470 -0.1017  0.4402
 5619W        W20750   8.381  12.427  15.487 -0.1375 -0.2589 -0.3766
 5620W        W20751   8.922   4.558   4.090  0.0577  0.2948 -0.2066
 5621W        W20752   4.464  16.399   0.365  0.0138  0.3663  0.0689
 5622W        W20753   5.540  14.471   0.416 -0.2474 -0.0315 -0.0577
 5623W        W20754   5.659   1.457   1.935  0.1423 -0.0452 -0.1626
 5624W        W20755   5.086   8.607  14.673  0.1580 -0.2318  0.0056
 5625W        W20756  17.582   1.193  16.857 -0.4210  0.3209 -0.0132
 5626W        W20757  15.190  16.992  11.779  0.2730  0.2369  0.2926
 5627W        W20758  12.256  10.320  10.223  0.0152 -0.1950  0.1375
 5628W        W20759   2.013  10.021   0.977  0.0220  0.1807 -0.1727
 5629W        W20760  10.691   6.742  12.799  0.0940 -0.0311 -0.2075
 5630W        W20761   0.030   8.865  15.900 -0.1808 -0.0037  0.0636
 5631W        W20762  11.435   7.228  13.963 -0.0590  0.2311 -0.0921
 5632W        W20763   9.695   8.603   5.934 -0.3289 -0.1433  0.2437
 5633W        W20764  17.616   9.565   1.040 -0.0659 -0.1164  0.1842
 5634W        W20765  14.010   3.825   1.503  0.0341 -0.2315  0.0518
 5635W        W20766  10.480  11.323  15.115 -0.2089 -0.1001  0.0166
 5636W        W20767   5.110   9.872   2.888 -0.0652  0.0618 -0.0565
 5637W        W20768  16.240   6.617  12.139 -0.3341 -0.1302 -0.0427
 5638W        W20769  16.025  17.095   2.095 -0.1167  0.0729  0.0105
 5639W        W20770   2.374  17.213   4.917  0.1035  0.0215  0.2302
 5640W        W20771  16.559   0.869  15.639  0.2261 -0.2220  0.0866
 5641W        W20772  15.154   5.709   1.225 -0.2007  0.0661 -0.2054
 5642W        W20773   0.881  10.348   2.025  0.1613  0.2187  0.1941
 5643W        W20774   2.200  14.685  11.017  0.3076 -0.3357 -0.1308
 5644W        W20775   9.733  15.187   2.611 -0.0927  0.0306 -0.0694
 5645W        W20776   3.381   2.985  14.272 -0.1620  0.2585  0.0355
 5646W        W20777   3.441   7.588  13.268  0.1659  0.1114  0.1885
 5647W        W20778  11.184   0.215   0.563 -0.1122  0.2035 -0.2131
 5648W        W20779  11.535  15.167   5.353 -0.2827  0.0961  0.0545
 5649W        W20780   5.566   6.456  11.324  0.0621 -0.0326  0.0633
 5650W        W20781   4.415  14.177   1.387  0.1100 -0.3258 -0.0532
 5651W        W20782  16.298   7.150  16.651 -0.0931  0.0051  0.2324
 5652W        W20783  15.516   5.738  14.009 -0.1022 -0.0015 -0.0710
 5653W        W20784  11.195   8.650  16.553  0.1144  0.0001  0.0729
 5654W        W20785  15.967   1.522   1.154 -0.0131 -0.1060  0.2282
 5655W        W20786  15.221   2.187  13.657  0.1267  0.2340  0.0894
 5656W        W20787   3.875   1.433  15.231 -0.2401  0.3740 -0.1240
 5657W        W20788   9.931   9.070   0.534 -0.0396 -0.1425 -0.2378
 5658W        W20789   6.493  11.176   4.521  0.1546  0.0082  0.0186
 5659W        W20790  12.447   1.894   6.186  0.1933 -0.0418  0.3087
 5660W        W20791   9.342   4.797   3.891  0.0192  0.0020  0.0505
 5661W        W20792   0.570   5.168  13.079  0.1134  0.0423  0.1617
 5662W        W20793   4.609  14.130   0.216 -0.0829  0.1448  0.0137
 5663W        W20794  15.709   9.555   0.239 -0.1976 -0.2263  0.1952
 5664W        W20795  16.461   9.904  12.679  0.2188  0.0254  0.2406
 5665W        W20796  13.252   7.170  16.871  0.2237 -0.0605 -0.0082
 5666W        W20797   4.484   2.971   2.385  0.0252  0.1073 -0.1371
 5667W        W20798   7.332   4.070  11.497 -0.0920 -0.1872 -0.4379
 5668W        W20799   6.509   3.899   0.996 -0.0803 -0.1269  0.3876
 5669W        W20800  11.581  16.375   2.933 -0.1343 -0.1942 -0.0950
 5670W        W20801   0.895  16.697  11.792 -0.0138 -0.1009 -0.0064
 5671W        W20802   3.874  15.782  16.738 -0.1157  0.2035 -0.3567
 5672W        W20803   5.360   0.831  15.020 -0.0896 -0.2355  0.1302
 5673W        W20804   1.742   1.095  16.168 -0.1153 -0.0491 -0.1223
 5674W        W20805   1.816  10.658  12.506  0.3393 -0.3155 -0.0011
 5675W        W20806  15.219  14.449   2.326  0.4237  0.1014  0.1059
 5676W        W20807  14.934   8.447  16.622 -0.4703 -0.1524 -0.1562
 5677W        W20808  15.200  14.593  16.209 -0.1243 -0.1279 -0.1306
 5678W        W20809   8.563   3.206  11.795 -0.0762  0.1313 -0.0573
 5679W        W20810   6.767   4.577  16.881 -0.2170  0.1274  0.2110
 5680W        W20811   8.587   0.924   3.361  0.2009  0.0509 -0.1319
 5681W        W20812   4.820  16.952   3.961  0.1023 -0.0077  0.1487
 5682W        W20813   5.581  17.299   4.606  0.0274  0.2825 -0.2653
 5683W        W20814   1.589  17.708   5.026  0.0403 -0.1212  0.0667
 5684W        W20815   6.133  12.895  13.734 -0.0054 -0.1841 -0.0381
 5685W        W20816   1.117   1.556  13.804  0.0439 -0.2259  0.1622
 5686W        W20817   0.295   1.641   6.012  0.0084  0.1301 -0.2177
 5687W        W20818   7.730   2.192   4.069 -0.1361 -0.0327 -0.1024
 5688W        W20819   5.567  13.702  14.266 -0.1527 -0.2833  0.1133
 5689W        W20820   2.893  17.368  14.102 -0.0133  0.0202  0.1130
 5690W        W20821   4.828  13.652  16.481  0.4709 -0.3527 -0.1309
 5691W        W20822   1.814  11.386   5.085 -0.2475 -0.0119 -0.2061
 5692W        W20823   2.207   1.041   4.704 -0.0347 -0.2327 -0.1477
 5693W        W20824  17.595   1.226  13.553  0.0242  0.2623  0.1572
 5694W        W20825  11.789  13.677  11.733 -0.1746  0.0301  0.2146
 5695W        W20826  10.694   8.786  16.455 -0.0229  0.2764  0.3085
 5696W        W20827   7.560  15.461  13.782  0.0420  0.0698 -0.2471
 5697W        W20828  17.405   3.440  14.414  0.1145 -0.0583 -0.1211
 5698W        W20829   6.131   2.185   4.602  0.3098 -0.0682 -0.1624
 5699W        W20830   0.204  16.290   3.632  0.0209  0.1482 -0.1573
 5700W        W20831   8.647   3.681   3.596 -0.1710  0.2600 -0.0185
 5701W        W20832  13.525   1.307  14.345 -0.1096  0.1438  0.2876
 5702W        W20833  13.385   0.501   3.984  0.0368 -0.1659 -0.0862
 5703W        W20834   7.453   7.647   2.386  0.3107  0.1008 -0.3121
 5704W        W20835  10.483   3.539  11.875  0.1055 -0.1439  0.0107
 5705W        W20836   9.101  14.254   0.179  0.0350  0.2401 -0.0179
 5706W        W20837   9.441  10.860   3.971  0.2343  0.0228 -0.1261
 5707W        W20838   5.255   9.119  14.455 -0.0252 -0.4608  0.2643
 5708W        W20839   2.512  16.624  16.170 -0.1586 -0.2618  0.2924
 5709W        W20840   4.720  10.308  12.115  0.0903  0.1293 -0.2261
 5710W        W20841   2.099  13.141   5.487 -0.1214 -0.0079 -0.1906
 5711W        W20842   3.157   1.256   2.579  0.0962 -0.1958  0.1736
 5712W        W20843   2.518  12.906   0.731  0.0059 -0.2795 -0.1546
 5713W        W20844   7.657  11.496   4.610 -0.6188  0.4089  0.0471
 5714W        W20845   1.353   4.340   4.148 -0.0903  0.0119  0.0781
 5715W        W20846   3.892   6.635  13.793  0.1124 -0.1563  0.0850
 5716W        W20847   4.728  10.160   1.064 -0.0003  0.2695 -0.1629
 5717W        W20848  12.561   7.675  15.169 -0.0237  0.1629 -0.1033
 5718W        W20849   7.143   9.458   5.349  0.0685  0.0799  0.1494
 5719W        W20850   0.767   8.411  16.402  0.0783  0.1934 -0.1819
 5720W        W20851  12.943  11.746  11.598  0.0640 -0.0241 -0.0212
 5721W        W20852   2.665  12.251   4.716 -0.2297  0.0592  0.0119
 5722W        W20853   4.504   5.383   4.785 -0.3783 -0.1275 -0.2225
 5723W        W20854   8.711  15.277  16.363 -0.0564 -0.0799  0.0455
 5724W        W20855   9.999   8.053   0.460 -0.0334 -0.1468  0.1368
 5725W        W20856   1.043  11.809   3.819 -0.2673  0.2201  0.2757
 5726W        W20857   5.212   7.792  10.336  0.2684  0.0422  0.0784
 5727W        W20858   2.794   4.341   3.680  0.1730  0.2177 -0.0883
 5728W        W20859  17.461  13.111  15.025 -0.0462  0.2449  0.0627
 5729W        W20860   9.393  16.261  13.832  0.0691 -0.0273  0.1347
 5730W        W20861  15.579  10.738  14.296  0.1443 -0.2433 -0.1542
 5731W        W20862   4.449   0.579  11.762 -0.1287 -0.1376 -0.0623
 5732W        W20863  13.116  13.915  11.973 -0.1057 -0.0718  0.1942
 5733W        W20864  14.362   5.050  12.708 -0.2235 -0.1587 -0.2597
 5734W        W20865   0.759  12.877   3.061 -0.0196 -0.2665  0.0113
 5735W        W20866  14.591   6.547  11.762 -0.0879 -0.1122  0.0601
 5736W        W20867   3.613   2.769   4.515  0.3403  0.2079  0.0093
 5737W        W20868   9.772  14.093   3.320  0.5855  0.0901  0.2143
 5738W        W20869   5.074   3.649   0.989  0.0183 -0.0031  0.0531
 5739W        W20870  12.244  11.564   3.574  0.1442  0.1227 -0.4446
 5740W        W20871   5.908   4.615   1.567 -0.0005 -0.0804 -0.0353
 5741W        W20872   5.387  12.579  14.091 -0.1104 -0.2971  0.1485
 5742W        W20873  16.815  16.027   5.466  0.2823 -0.0271  0.2943
 5743W        W20874  14.960   0.560  16.452 -0.0454 -0.3019 -0.0509
 5744W        W20875   5.963   9.902  16.129 -0.0762  0.1299  0.1191
 5745W        W20876   4.090   0.302  11.409 -0.0767 -0.2679 -0.1465
 5746W        W20877   0.647  16.928   0.285  0.0462 -0.1217  0.0192
 5747W        W20878  15.951  16.130  15.592  0.0407  0.2329 -0.1859
 5748W        W20879   1.115  12.361   0.523 -0.0530 -0.2514  0.0573
 5749W        W20880   8.004   4.681   4.030 -0.0983  0.1523  0.1917
 5750W        W20881  13.212   3.907  11.987  0.1400 -0.2900  0.3296
 5751W        W20882   0.361   4.382  12.484 -0.0194  0.2279  0.1890
 5752W        W20883   1.251   6.117  16.809  0.0999 -0.0703  0.1180
 5753W        W20884  11.465  11.575  13.492 -0.0001 -0.1514 -0.0559
 5754W        W20885   7.358   3.709  14.993 -0.1777  0.3227 -0.1156
 5755W        W20886  10.389  12.052   0.509 -0.0303 -0.0382  0.3117
 5756W        W20887  14.988  10.159   5.644  0.1260 -0.4451  0.2384
 5757W        W20888   9.971   1.765   5.324 -0.0901  0.2124 -0.0780
 5758W        W20889   0.739  10.388  15.870  0.2084  0.1421 -0.0224
 5759W        W20890   6.941   0.648   2.335 -0.1016 -0.0600  0.0702
 5760W        W20891  17.228  15.152   2.879 -0.0429 -0.0623 -0.0590
 5761W        W20892   2.454   5.092   1.778  0.0550  0.2240  0.2499
 5762W        W20893   8.683   0.196   5.902  0.0199 -0.0036  0.3253
 5763W        W20894  10.821   9.200  10.249 -0.2413 -0.3753  0.0286
 5764W        W20895   5.086  13.369  12.784  0.2847  0.0137 -0.3080
 5765W        W20896  11.722   3.897   2.040  0.2139  0.0999 -0.0438
 5766W        W20897   3.826   9.909  13.157  0.0809 -0.3247 -0.1700
 5767W        W20898   0.306  13.854  11.965  0.2735  0.1321 -0.0207
 5768W        W20899  11.246   6.016   5.046 -0.0261 -0.0703  0.0536
 5769W        W20900   2.780  14.018  11.589 -0.0586  0.0157 -0.1349
 5770W        W20901   0.018  12.310  13.037  0.3548 -0.0611 -0.4061
 5771W        W20902   9.223  14.807  14.542  0.3114  0.2211 -0.3772
 5772W        W20903   8.474   9.643   4.532  0.0839 -0.3625  0.3047
 5773W        W20904  11.112  12.820   1.724 -0.0474  0.0792  0.2036
 5774W        W20905   1.228  16.606   2.606 -0.0127  0.0844 -0.5448
 5775W        W20906   7.178   8.254   1.726 -0.0460 -0.1586 -0.1989
 5776W        W20907  10.422  14.699  15.693  0.0272  0.1254 -0.0928
 5777W        W20908   4.453  14.501  14.994  0.0357  0.1288 -0.0669
 5778W        W20909  11.246  17.164   3.700  0.2677  0.0261  0.0254
 5779W        W20910   4.656   5.012   5.062 -0.0597 -0.1836  0.2500
 5780W        W20911  17.559   8.415  14.060  0.1137  0.1121  0.1069
 5781W        W20912  17.434   5.091  13.377  0.2285  0.0344  0.1235
 5782W        W20913  16.653  12.488   3.274 -0.1159 -0.3349  0.1617
 5783W        W20914  11.635   5.170  12.621 -0.2005  0.0037 -0.0179
 5784W        W20915  14.862  14.097   1.776 -0.0282 -0.2256  0.0218
 5785W        W20916   7.789  16.852   2.350 -0.0298  0.0195 -0.2743
 5786W        W20917  15.032  16.407   4.559  0.2801  0.0252  0.1379
 5787W        W20918  10.224   2.959  15.654  0.1503 -0.1992  0.2890
 5788W        W20919   7.791  17.044  12.896  0.2682 -0.1674  0.1407
 5789W        W20920   6.919  16.539  16.447  0.1229  0.2309  0.0081
 5790W        W20921   4.910  11.160   4.317  0.0983  0.0019  0.5505
 5791W        W20922   3.314  12.132   1.823 -0.1309  0.2712  0.1330
 5792W        W20923   6.256  14.360   5.404 -0.0439 -0.2996  0.0435
 5793W        W20924  16.005  11.221  13.489 -0.5100  0.2313 -0.2831
 5794W        W20925  16.189   5.575   0.887 -0.2923  0.0974  0.0729
 5795W        W20926   1.764  14.324  13.899 -0.4770  0.2489  0.1131
 5796W        W20927  11.645  10.432  12.745 -0.2024 -0.1564  0.3015
 5797W        W20928  13.189  15.378  12.969 -0.1982  0.2057  0.0610
 5798W        W20929   4.568   5.244   1.446 -0.1383  0.5067  0.1669
 5799W        W20930   7.822  13.266  16.156  0.0364 -0.0571 -0.0315
 5800W        W20931   0.001   6.798   4.532 -0.0446 -0.1119  0.2718
 5801W        W20932  13.951  14.000   5.037 -0.1319  0.0098  0.3163
 5802W        W20933   9.315  15.961   6.102 -0.0698 -0.0036 -0.1703
 5803W        W20934  12.515   2.581  12.951 -0.0914 -0.1668 -0.1334
 5804W        W20935  15.220  14.874  12.133 -0.3664  0.0150  0.0057
 5805W        W20936  15.031   1.023  16.636  0.1204  0.0669  0.1804
 5806W        W20937   3.281  12.929  11.461  0.0463  0.0212  0.0163
 5807W        W20938   9.569   9.190   1.803 -0.2411 -0.2306  0.3894
 5808W        W20939  12.980   0.318   2.966 -0.2951  0.0499  0.0800
 5809W        W20940   7.196   6.514  16.646  0.0116 -0.0341 -0.3606
 5810W        W20941  16.165   1.700   2.517  0.2064 -0.2513  0.0574
 5811W        W20942  13.887   5.116  10.233 -0.1929 -0.3367  0.0738
 5812W        W20943   7.411  11.791   5.565 -0.1926  0.0613  0.1232
 5813W        W20944  10.406   0.200   0.018 -0.0820  0.2851  0.0166
 5814W        W20945   1.558   5.614   4.268 -0.0944 -0.2431 -0.1107
 5815W        W20946  16.718  14.859  15.731 -0.1338  0.2670  0.1742
 5816W        W20947   1.285  15.140  12.959 -0.1617 -0.0320 -0.0156
 5817W        W20948   2.871   0.254   2.618  0.0970  0.0888 -0.0400
 5818W        W20949   5.883  17.130  14.598 -0.1084 -0.0681  0.0650
 5819W        W20950   2.702   2.919  13.731  0.0700  0.0405  0.1109
 5820W        W20951   1.319  12.666   4.479 -0.1204  0.1211 -0.1964
 5821W        W20952   3.438  17.646  16.694  0.1730 -0.1863 -0.2012
 5822W        W20953   6.457  16.210  14.510 -0.0876  0.0791  0.2539
 5823W        W20954   5.596   0.863   0.768 -0.2645  0.1967 -0.0907
 5824W        W20955  17.632  14.772   2.791  0.0597 -0.0961 -0.2109
 5825W        W20956   3.081   7.239  16.164 -0.3859 -0.1405  0.3458
 5826W        W20957  13.959   9.216  15.673 -0.1479  0.1667 -0.2206
 5827W        W20958  11.452  16.519  12.156  0.0124  0.1501 -0.0481
 5828W        W20959   8.712   1.743   4.983 -0.1255 -0.0822 -0.1856
 5829W        W20960   0.446   5.866  11.980  0.2543 -0.0177  0.2520
 5830W        W20961   6.749  15.340  16.172  0.0520 -0.0479 -0.1603
 5831W        W20962   3.140  16.719  13.897 -0.0534  0.0331  0.1668
 5832W        W20963  14.416   2.660  15.671  0.2868 -0.1785  0.2174
 5833W        W20964  10.784  10.462  16.884 -0.0049 -0.2714 -0.2617
 5834W        W20965   9.348  17.282  14.499 -0.0453  0.0984  0.1837
 5835W        W20966   9.708  12.156  12.885  0.0126 -0.0214  0.0854
 5836W        W20967   2.999   7.828   0.505  0.3748  0.2957 -0.3784
 5837W        W20968  10.698   4.549   1.359  0.1530 -0.3076  0.2078
 5838W        W20969   2.446   5.723  13.891 -0.1641 -0.0187 -0.1053
 5839W        W20970   2.928   5.708  13.698  0.2528 -0.0118 -0.2549
 5840W        W20971  13.252  12.889   4.473  0.3289  0.1664  0.0547
 5841W        W20972   4.315   7.791  16.833 -0.1193 -0.1503 -0.0825
 5842W        W20973   0.329  16.404  12.584  0.0426  0.0243 -0.0405
 5843W        W20974   0.353   2.974  10.247  0.3336  0.0781  0.1879
 5844W        W20975  17.232  16.773  14.173 -0.0968  0.3116 -0.2817
 5845W        W20976   9.465   6.140   2.581  0.1121 -0.1007  0.0936
 5846W        W20977  10.855  12.050   5.916  0.0413 -0.2915 -0.1150
 5847W        W20978   2.024   1.980  10.559 -0.1245 -0.1168 -0.1816
 5848W        W20979   4.098  14.093  16.581  0.0138  0.3336 -0.2684
 5849W        W20980   6.906   7.028   0.847 -0.1042 -0.0084 -0.1358
 5850W        W20981   8.773  14.996   5.436 -0.1330 -0.1411  0.0393
 5851W        W20982   1.874  17.579  11.886 -0.1069 -0.0945  0.2110
 5852W        W20983   7.532  13.964   3.145 -0.2884 -0.1724 -0.1423
 5853W        W20984   5.106  13.670  15.120 -0.0058 -0.5497  0.0855
 5854W        W20985   0.562   8.717  13.830 -0.1023  0.0988 -0.4910
 5855W        W20986  17.699  13.633   1.997 -0.3398  0.1294 -0.0284
 5856W        W20987  13.854  10.866   3.673 -0.1203 -0.2661  0.3981
 5857W        W20988  12.061   7.688  15.097  0.2563 -0.3208 -0.0349
 5858W        W20989  14.469  14.244   1.519  0.0639 -0.1015 -0.1690
 5859W        W20990   3.224   8.010  10.852 -0.0024  0.0172 -0.0370
 5860W        W20991  15.282   6.579  11.029  0.1495  0.0801  0.0142
 5861W        W20992   8.587  11.872   0.309  0.1672  0.0910 -0.2024
 5862W        W20993   5.019   2.666   0.980 -0.2513  0.3029 -0.1313
 5863W        W20994   9.518  17.602  14.846  0.0653 -0.1974 -0.2053
 5864W        W20995  11.917   7.953  11.599 -0.1959 -0.1755 -0.3224
 5865W        W20996  14.295   0.777  12.355 -0.3321  0.0658  0.0030
 5866W        W20997   4.416   0.143   1.227 -0.0344  0.0020  0.0239
 5867W        W20998  15.170   1.474  12.342 -0.1371 -0.0287 -0.0004
 5868W        W20999  14.065   1.599  13.621  0.0512 -0.1179 -0.0989
 5869W        W21000   4.117   1.683   5.399  0.0994 -0.4617  0.3030
 5870W        W21001   4.927  17.578   5.254  0.1970 -0.1569 -0.0476
 5871W        W21002  10.907  12.620  13.414  0.2552 -0.0606 -0.0500
 5872W        W21003  16.645   6.662   0.221  0.3998  0.2303  0.1573
 5873W        W21004   4.394   8.061   4.976  0.0585  0.2054 -0.0540
 5874W        W21005  12.802   3.501  11.391  0.0726  0.0265  0.0353
 5875W        W21006   5.296  15.247   5.622  0.2715 -0.2144 -0.0686
 5876W        W21007  13.583  16.615   5.137 -0.2410 -0.0705 -0.3038
 5877W        W21008  11.750   6.504   3.847  0.0945  0.1317  0.2105
 5878W        W21009  15.563   1.749  16.380 -0.1960  0.2478 -0.1341
 5879W        W21010  10.540  13.798  15.218  0.0305 -0.4350  0.2120
 5880W        W21011  15.058  14.962  16.723  0.1581 -0.1071 -0.2455
 5881W        W21012   1.384  13.222   1.847  0.4276 -0.0481 -0.1195
 5882W        W21013   8.347   0.347  11.967 -0.1119  0.0466  0.2038
 5883W        W21014   8.005  16.927  14.306  0.3335 -0.2563  0.0588
 5884W        W21015  12.373   0.400  15.372  0.1204  0.1306  0.2355
 5885W        W21016  11.937   8.515  12.766 -0.2714  0.0639 -0.0197
 5886W        W21017  15.423  11.166   4.775 -0.0847 -0.1315 -0.5448
 5887W        W21018   7.892   5.871  13.852 -0.0813 -0.1654 -0.5788
 5888W        W21019  17.644   0.802  12.298 -0.1158 -0.4024 -0.1838
 5889W        W21020   0.385  14.967  13.331  0.0942  0.1933  0.2008
 5890W        W21021   4.337   4.834   1.177 -0.1342 -0.3430 -0.0100
 5891W        W21022  13.428   8.234   2.139  0.0937 -0.2047  0.0394
 5892W        W21023   3.274  12.849   0.325  0.1437 -0.0449  0.0214
 5893W        W21024  16.628   1.437  11.331 -0.0900  0.1106  0.1508
 5894W        W21025  12.518  16.459   2.583  0.0488  0.0024  0.4044
 5895W        W21026  13.340   8.706   2.045  0.2759  0.0042 -0.1126
 5896W        W21027   7.646  12.546   3.337  0.1339  0.0340  0.0568
 5897W        W21028  16.681   9.952  16.273 -0.2550 -0.1008  0.1038
 5898W        W21029  11.603  16.548   0.452 -0.0159 -0.2121 -0.0360
 5899W        W21030  14.526   0.552   2.729  0.1406  0.1244  0.2082
 5900W        W21031   5.154  13.894   0.806  0.1254 -0.0122 -0.2133
 5901W        W21032  12.885   5.738  11.644  0.0708  0.0520 -0.0320
 5902W        W21033   1.620  15.679   4.390 -0.1541  0.1772  0.0294
 5903W        W21034   8.548   5.746  15.336  0.0911  0.2021 -0.0744
 5904W        W21035  15.980  14.667  12.065 -0.2864  0.0770 -0.1710
 5905W        W21036   7.168  13.272   5.484  0.0485 -0.1113 -0.2207
 5906W        W21037   8.350   3.007   2.644 -0.0747  0.1211  0.1705
 5907W        W21038   6.660  13.545  13.498  0.0922  0.0141  0.1993
 5908W        W21039  11.358  13.513   4.606 -0.1416 -0.0410 -0.2777
 5909W        W21040  11.028  17.160  12.935 -0.0343 -0.1053  0.0517
 5910W        W21041   2.963   5.478  11.413  0.1865  0.3603  0.4516
 5911W        W21042  12.359  13.403   0.993 -0.1927  0.3795 -0.0128
 5912W        W21043   0.034   2.022   0.625  0.2045  0.0010  0.0359
 5913W        W21044   9.610   7.824   1.660 -0.1774 -0.1880 -0.0604
 5914W        W21045   4.694   4.794  15.178 -0.1726  0.0216 -0.2492
 5915W        W21046  13.966  12.892  11.547  0.2174 -0.1511  0.1163
 5916W        W21047   8.029   4.398   5.064  0.0222 -0.0083 -0.1174
 5917W        W21048  13.226   5.141   2.837 -0.1019  0.1333 -0.3965
 5918W        W21049  11.642  16.810  13.874 -0.0338  0.0256 -0.2358
 5919W        W21050   2.837  13.003  11.721  0.0498 -0.1057  0.0746
 5920W        W21051   7.374  14.784  11.650 -0.1606  0.0695 -0.0583
 5921W        W21052   8.212  15.756   2.820 -0.0465 -0.1208 -0.1730
 5922W        W21053  13.424  15.097  14.959 -0.0981 -0.2803  0.1461
 5923W        W21054  11.654  12.403  16.053 -0.1242  0.3091  0.0595
 5924W        W21055  15.638   7.462  14.785  0.3592  0.0963  0.0182
 5925W        W21056  11.624   4.581   0.276 -0.1086 -0.2767  0.0772
 5926W        W21057  17.476   2.263  15.155 -0.1499 -0.0646 -0.1785
 5927W        W21058  16.178   7.990   1.621 -0.2928 -0.1671  0.0614
 5928W        W21059   8.713  12.176   1.096  0.1021  0.0190 -0.2586
 5929W        W21060   3.474  13.109   4.901  0.1439 -0.0266 -0.0496
 5930W        W21061  14.317  11.176   1.583  0.4058  0.2219 -0.2112
 5931W        W21062   4.861  14.967   2.315 -0.1102  0.3174  0.1937
 5932W        W21063   3.249   3.727   5.075  0.1312 -0.2759 -0.1146
 5933W        W21064   4.875   2.673   2.178 -0.1245  0.0911 -0.1706
 5934W        W21065  13.655  10.675  13.771 -0.2924  0.0797  0.3114
 5935W        W21066  17.171  16.438   3.190 -0.1188 -0.0147 -0.2000
 5936W        W21067   4.944  16.713  15.170  0.0432 -0.0670  0.2319
 5937W        W21068   8.332  16.067   4.208 -0.2615  0.1032  0.0462
 5938W        W21069  16.672   2.296   4.584  0.0545  0.1114  0.1962
 5939W        W21070  12.539   0.418   0.876  0.0986  0.1530 -0.1286
 5940W        W21071  12.865  14.577   5.588 -0.1680 -0.1246  0.1437
 5941W        W21072   1.454   4.284  11.198  0.0671  0.1868 -0.1575
 5942W        W21073   9.526  17.506  13.217 -0.1834  0.0362 -0.1463
 5943W        W21074  14.585   2.324   4.127 -0.0432  0.1706 -0.0011
 5944W        W21075   1.081  15.368  14.329  0.1427 -0.2810  0.1551
 5945W        W21076  11.136   6.730   6.129  0.0578 -0.0151  0.0230
 5946W        W21077   5.892   4.020   4.987  0.0278 -0.1452  0.1472
 5947W        W21078  12.090   9.207   4.810  0.0435  0.2943  0.3919
 5948W        W21079   3.510   3.904   5.882  0.0526 -0.0224  0.2159
 5949W        W21080   7.567  14.725  16.111 -0.1085 -0.0429  0.0060
 5950W        W21081  17.541   5.398  14.954  0.2171  0.0255 -0.2894
 5951W        W21082   0.423   2.643   0.679 -0.1361  0.2126  0.3419
 5952W        W21083   5.350  10.465   5.019 -0.0819  0.1864  0.0633
 5953W        W21084   3.567   5.064   4.374 -0.3044 -0.0778 -0.3467
 5954W        W21085  12.843   5.553  14.135  0.2234  0.1007 -0.3627
 5955W        W21086  15.736   6.332  15.736  0.0894  0.1803 -0.0744
 5956W        W21087  13.864  13.504   4.445  0.1593 -0.2969  0.1627
 5957W        W21088   3.890  12.098  13.376 -0.2792 -0.1070 -0.0330
 5958W        W21089  14.450   1.509  14.855 -0.0921 -0.1059 -0.1455
 5959W        W21090  16.527  15.800   0.967 -0.0465  0.0334 -0.1186
 5960W        W21091  14.426   7.703  15.031  0.0372  0.0752  0.0660
 5961W        W21092   3.027  14.519   4.200 -0.0163  0.1849 -0.2376
 5962W        W21093  12.790   9.381   1.883 -0.1155 -0.0907  0.1318
 5963W        W21094   2.105   7.271   5.609  0.0374 -0.0193 -0.0359
 5964W        W21095  16.515   0.743  12.350 -0.0420 -0.2188  0.0493
 5965W        W21096   3.510   8.737  11.580  0.1803  0.3573 -0.0947
 5966W        W21097   0.206   2.701  16.424 -0.1155 -0.0093  0.1236
 5967W        W21098   5.255   1.942  16.652 -0.1590 -0.0308 -0.4471
 5968W        W21099   2.149   5.420  15.186 -0.0318  0.2598  0.1861
 5969W        W21100   3.876  12.796  15.134 -0.1950  0.1939  0.1496
 5970W        W21101  11.605   9.020  16.386  0.1143 -0.0172 -0.4206
 5971W        W21102  11.197   9.373   4.867  0.3665 -0.0936 -0.0129
 5972W        W21103   7.626  16.391   3.822  0.2001  0.1972 -0.0102
 5973W        W21104  16.367   7.372   2.618 -0.3229 -0.1742  0.2423
 5974W        W21105   1.104   1.490  13.088  0.0134 -0.1160  0.3117
 5975W        W21106   9.463  17.007  14.085 -0.2004  0.2105  0.3420
 5976W        W21107  10.733   0.877   5.376  0.0842  0.0657 -0.0624
 5977W        W21108   6.179   5.426  11.975 -0.0890  0.1474 -0.0339
 5978W        W21109   3.628  13.717   4.148  0.3487  0.1348  0.2295
 5979W        W21110   8.235   1.764   3.029 -0.2336 -0.1285  0.0489
 5980W        W21111   3.135  16.683  16.146  0.3032  0.2701  0.0675
 5981W        W21112   3.776   4.994  13.305 -0.2160 -0.1507 -0.2464
 5982W        W21113  13.294   8.875  10.709 -0.1467  0.0246 -0.0232
 5983W        W21114   6.325  10.430   4.743  0.0418  0.2862 -0.1288
 5984W        W21115  14.352   4.527  14.710 -0.0730  0.1204 -0.0368
 5985W        W21116   8.571  10.852   5.401 -0.1091 -0.0773 -0.0131
 5986W        W21117   8.374  11.666  13.509  0.2116  0.0718 -0.1466
 5987W        W21118   6.396   6.195  13.424 -0.0368  0.1382  0.1055
 5988W        W21119   3.469   9.736  16.807  0.0014 -0.0847 -0.2089
 5989W        W21120  15.680   2.306   5.380  0.1537 -0.0436  0.1151
 5990W        W21121   4.703  12.602   5.220  0.0571 -0.3768  0.2838
 5991W        W21122   0.347  12.038  12.455  0.0755  0.0954  0.1933
 5992W        W21123  16.207   0.879   1.030  0.1954  0.3827 -0.0232
 5993W        W21124  16.607   9.573  15.437  0.2818  0.3295  0.4782
 5994W        W21125   4.782   4.005  11.326  0.0183  0.3588  0.0275
 5995W        W21126   3.433   0.088   2.197  0.2813  0.1511  0.0513
 5996W        W21127   6.052   1.569   2.291  0.2866 -0.2546 -0.2688
 5997W        W21128  13.236   1.122  15.958 -0.2244  0.0734  0.0984
 5998W        W21129   1.883  10.957   0.605  0.0649 -0.1918 -0.0589
 5999W        W21130   3.705   2.975  16.613  0.1960 -0.0979  0.0185
 6000W        W21131   4.207  11.062   4.332 -0.1297 -0.0392 -0.0296
 6001W        W21132   3.490  15.948   3.296 -0.1550  0.0712 -0.1027
 6002W        W21133   0.923  10.481   3.382 -0.3829  0.0407  0.2998
 6003W        W21134   9.823   7.141  14.214 -0.1831 -0.0648  0.1306
 6004W        W21135   9.126   0.013  12.363 -0.0011 -0.0512  0.1578
 6005W        W21136  12.768   3.368  14.882  0.0469 -0.1280  0.3918
 6006W        W21137   3.261   4.411  11.457 -0.0418 -0.1523 -0.3251
 6007W        W21138  11.124  11.959  14.563  0.1746  0.0345 -0.0693
 6008W        W21139  15.921   6.435   4.166 -0.2600  0.3331  0.3966
 6009W        W21140   5.600  11.730   5.451  0.0753  0.1509 -0.1813
 6010W        W21141  12.046  10.711   3.548  0.2470  0.1468  0.2366
 6011W        W21142  15.144  12.079   2.563 -0.0389  0.0088  0.3650
 6012W        W21143   3.198  15.402  12.392  0.0277 -0.0097 -0.2323
 6013W        W21144  15.691   1.558   5.263  0.1130 -0.1378 -0.1046
 6014W        W21145  17.039   7.622   2.885 -0.1101 -0.1523 -0.1300
 6015W        W21146   0.812  14.078  14.373  0.1300  0.1709 -0.2025
 6016W        W21147   7.829   2.931  16.233  0.3000  0.0641 -0.2305
 6017W        W21148  16.246   1.301   0.225 -0.2097  0.3039  0.0862
 6018W        W21149  15.914  12.932   4.965 -0.0998  0.0194 -0.2050
 6019W        W21150  14.402   3.996  12.827 -0.2366 -0.0140 -0.2225
 6020W        W21151   3.003   5.135   3.787  0.1331 -0.0756 -0.0049
 6021W        W21152  11.627   4.788  13.122 -0.3143  0.3674 -0.1016
 6022W        W21153  10.515   4.714   0.216 -0.0543 -0.2184 -0.0620
 6023W        W21154   0.079  12.443  15.992 -0.2559 -0.0278 -0.0872
 6024W        W21155  14.202  10.755  15.453 -0.2858  0.0361 -0.0061
 6025W        W21156   9.841  17.609  13.623 -0.0880 -0.0701  0.0551
 6026W        W21157  11.654   2.143  13.368 -0.3406 -0.0964  0.3378
 6027W        W21158  15.294  11.660   4.727 -0.2031 -0.1225  0.0120
 6028W        W21159   8.617   3.182  12.504  0.2621  0.0464 -0.2359
 6029W        W21160   8.515   1.898   2.568  0.1885 -0.2153  0.0555
 6030W        W21161  12.270   8.019  12.751 -0.0126 -0.0818  0.0358
 6031W        W21162   2.562   4.779   0.411 -0.0442  0.0274  0.4308
 6032W        W21163   0.165  16.719  13.044  0.0631 -0.0405 -0.3526
 6033W        W21164   0.134   8.855  14.911  0.0419 -0.2116  0.0734
 6034W        W21165   1.812  14.471  15.898  0.2664  0.0038  0.0871
 6035W        W21166   4.511   4.002   4.713  0.1129 -0.0867 -0.3587
 6036W        W21167   2.168  13.424  11.794  0.1370  0.2135  0.0506
 6037W        W21168   3.822  10.289  16.348 -0.1149  0.2975  0.0380
 6038W        W21169  14.400   0.954   4.533 -0.2266  0.2174  0.0586
 6039W        W21170   0.060   7.241  15.103  0.0873  0.1972  0.1696
 6040W        W21171  15.334  12.347  13.146  0.0173  0.0259 -0.1890
 6041W        W21172   3.797  13.617   1.961 -0.1742  0.2356 -0.3053
 6042W        W21173   7.096   3.991  11.934 -0.1685  0.2177 -0.2233
 6043W        W21174   4.630  17.125   4.385 -0.1669  0.0115  0.1294
 6044W        W21175   4.290  14.070  14.102  0.2163 -0.1344  0.1878
 6045W        W21176   4.155   2.955   2.746  0.1068  0.5306  0.1804
 6046W        W21177   8.976   5.950   4.851  0.0739  0.1314 -0.0386
 6047W        W21178  10.535   3.894   0.192 -0.1420  0.0061 -0.2649
 6048W        W21179  13.614  17.024   6.327  0.2732  0.0764 -0.1668
 6049W        W21180  17.380   1.294   4.303 -0.2293  0.3128  0.1195
 6050W        W21181  15.456   2.227   4.637 -0.3289 -0.0164  0.2394
 6051W        W21182  10.085   9.278  11.489 -0.1160  0.1525  0.0592
 6052W        W21183   1.398  15.456   6.349  0.3537 -0.2118  0.2653
 6053W        W21184   2.913  10.625   2.620  0.0521  0.1885 -0.0441
 6054W        W21185   1.388  14.020   0.053 -0.2294  0.0054  0.0630
 6055W        W21186  15.692   2.374   3.352 -0.0160 -0.3363 -0.0691
 6056W        W21187   5.779  16.837  14.086  0.1324 -0.1694  0.1541
 6057W        W21188  15.555   5.364  13.614  0.3145 -0.0017 -0.0296
 6058W        W21189  10.600   0.402   4.858 -0.0700  0.0187 -0.2528
 6059W        W21190  15.432   7.723  16.261 -0.0922  0.1402  0.1394
 6060W        W21191   2.013   2.601  13.774 -0.1501  0.0117  0.0159
 6061W        W21192   9.384  14.782   5.475 -0.0661  0.0810  0.1916
 6062W        W21193  15.492  15.112   1.305 -0.0188  0.0348 -0.0348
 6063W        W21194  15.268  13.129   1.499  0.1701 -0.2480  0.1272
 6064W        W21195   6.463   9.583  16.810 -0.0718 -0.2509 -0.0575
 6065W        W21196   8.457   4.843   1.652  0.0067 -0.0404  0.1573
 6066W        W21197   8.045   7.020   4.466 -0.0259 -0.1703 -0.0901
 6067W        W21198  12.167   7.192  12.400  0.0006 -0.0795  0.0027
 6068W        W21199   3.532  14.862   6.579  0.3218  0.0413 -0.1322
 6069W        W21200   9.209   7.756  12.403 -0.3284  0.0289  0.0992
 6070W        W21201  16.862   3.817   0.020 -0.1372 -0.1053  0.1159
 6071W        W21202   4.070   9.995   2.815 -0.2164 -0.0746  0.0437
 6072W        W21203   7.684  14.400   5.704  0.3269 -0.0953  0.3045
 6073W        W21204   5.608   5.443  15.305  0.4651 -0.1342 -0.0428
 6074W        W21205  12.200   8.841  13.093  0.1110 -0.0307  0.0255
 6075W        W21206  17.624  16.219  14.611  0.4297  0.2387 -0.0627
 6076W        W21207   8.630   2.281  16.211  0.2713  0.1490 -0.0667
 6077W        W21208   4.885   4.569  13.002  0.0811  0.2061 -0.0566
 6078W        W21209   1.774   0.427  16.844  0.1999  0.0586 -0.1927
 6079W        W21210  14.079   5.720  13.769 -0.0016  0.0439 -0.0526
 6080W        W21211   5.217  12.735   5.690  0.2174  0.1255 -0.0956
 6081W        W21212   2.261  14.701  14.130 -0.0030  0.0076  0.1056
 6082W        W21213   8.338  10.674  13.914  0.0516 -0.1438  0.1375
 6083W        W21214   6.154   8.266   4.038  0.0464 -0.2913 -0.0053
 6084W        W21215   6.350   9.044  13.372  0.2036 -0.1985  0.0657
 6085W        W21216  12.028   9.525  11.910 -0.2012 -0.2620  0.1416
 6086W        W21217   0.658   4.113  12.928  0.0868  0.0298 -0.0656
 6087W        W21218  16.268  14.187  12.861  0.2404  0.3437 -0.0528
 6088W        W21219  17.171   1.414   3.526  0.1978 -0.0072 -0.1562
 6089W        W21220   6.198  13.595  16.930 -0.3932 -0.0976  0.0671
 6090W        W21221  10.852  14.525  14.777  0.2501  0.0404  0.2204
 6091W        W21222  14.639   1.824   5.073 -0.1009  0.1507  0.1051
 6092W        W21223   5.640   5.956  13.108  0.0005 -0.2856 -0.0796
 6093W        W21224   4.504  14.007   3.034  0.1122 -0.3581 -0.0607
 6094W        W21225   5.580   6.993  11.600  0.2907 -0.0281 -0.1266
 6095W        W21226   9.753   2.199   5.414 -0.1601 -0.2640  0.1201
 6096W        W21227  14.197  12.577   4.364 -0.4123 -0.0590 -0.1779
 6097W        W21228  12.367   3.935  13.649 -0.0418  0.1025  0.0097
 6098W        W21229  12.585  11.960  15.327 -0.0854 -0.0632 -0.0775
 6099W        W21230   5.392   1.451  11.496  0.2974  0.1856  0.1985
 6100W        W21231   7.788   6.580  14.984 -0.1331  0.0440  0.4133
 6101W        W21232  14.390   9.418   1.672 -0.0682  0.4276  0.3710
 6102W        W21233  10.196   4.739   2.304  0.1125 -0.0661  0.2084
 6103W        W21234   8.888   7.224  15.375 -0.1251 -0.3995  0.0115
 6104W        W21235   8.523  16.125  14.237  0.2374  0.0251 -0.1059
 6105W        W21236   1.068   0.114  14.479 -0.0143  0.0234  0.1173
 6106W        W21237   1.387   5.696  14.633 -0.0605 -0.1247  0.2141
 6107W        W21238   0.770  16.686  14.172  0.3028  0.1782 -0.0582
 6108W        W21239   8.771   2.567   0.626  0.2427  0.0420  0.1178
 6109W        W21240   6.668  11.608  14.200  0.1287  0.0578  0.1979
 6110W        W21241  15.955  10.977   4.818 -0.2059 -0.0279 -0.2805
 6111W        W21242   5.993  17.290   2.148  0.0761 -0.1486 -0.1550
 6112W        W21243   7.473   2.210  16.831 -0.1323 -0.0818 -0.0521
 6113W        W21244   7.526   9.038   0.915  0.2573 -0.1249 -0.0797
 6114W        W21245  16.866   7.341   4.640 -0.0784  0.2221 -0.0829
 6115W        W21246   7.484   0.109   3.437  0.2851  0.2671  0.0637
 6116W        W21247   5.827   5.211   0.500 -0.0065  0.2772 -0.1350
 6117W        W21248  15.783  13.609   1.950 -0.0014 -0.2423  0.1796
 6118W        W21249  16.789   1.082  15.239 -0.0703 -0.0954 -0.1217
 6119W        W21250   3.033  17.062   2.648  0.3655  0.1464 -0.5144
 6120W        W21251   2.256  13.840  16.628  0.0606 -0.1827  0.0062
 6121W        W21252  10.691  11.094   4.912  0.1390 -0.2895 -0.2101
 6122W        W21253   8.309   1.250  13.478  0.1274 -0.2507 -0.2428
 6123W        W21254   6.796   5.630   1.492 -0.0186 -0.0702  0.1042
 6124W        W21255   3.079  11.428   2.299  0.0784 -0.0677  0.2537
 6125W        W21256   3.463   0.324  13.551  0.1027  0.1347 -0.3359
 6126W        W21257  14.836   0.883   5.450  0.0696  0.0214  0.1941
 6127W        W21258  15.222  15.951  13.957  0.1792 -0.3646 -0.2059
 6128W        W21259   6.152   1.056   2.212 -0.1342  0.1773  0.3228
 6129W        W21260   7.901   9.595  11.437  0.1612  0.0754 -0.3171
 6130W        W21261  12.988   7.245   1.477 -0.0779 -0.0449 -0.1205
 6131W        W21262   5.436  14.805   2.380  0.0625 -0.1775 -0.3363
 6132W        W21263  11.581  13.295   0.513 -0.2196 -0.0539 -0.1707
 6133W        W21264  13.518  15.662   4.930 -0.3061  0.0862  0.1734
 6134W        W21265  13.354  12.424   0.097 -0.0958  0.2591  0.0956
 6135W        W21266   3.875   4.868  16.287  0.2229 -0.1400  0.1120
 6136W        W21267   0.640   1.437  12.872  0.3667  0.0561 -0.1054
 6137W        W21268   0.375  17.337  11.144 -0.0873 -0.1834 -0.1084
 6138W        W21269  16.206   2.167  12.644  0.0087 -0.2933 -0.1571
 6139W        W21270  17.091   7.576  15.300  0.1626  0.0153 -0.4293
 6140W        W21271  11.063  15.006   0.454  0.3050 -0.1026  0.0011
 6141W        W21272  11.673  14.017  11.275 -0.0116 -0.0383 -0.1410
 6142W        W21273   4.581   2.481   5.252 -0.0853 -0.0899  0.3102
 6143W        W21274  13.229   7.197   5.571  0.1405 -0.1372  0.3376
 6144W        W21275  12.681  15.890   0.412 -0.1132  0.3124  0.3381
 6145W        W21276  12.768   7.890  12.720 -0.3281  0.1141  0.1491
 6146W        W21277  10.987  12.551  16.302 -0.0907 -0.1660  0.2997
 6147W        W21278   4.011   6.575  11.930  0.0609  0.1427 -0.0227
 6148W        W21279   1.628   1.571  13.017  0.5038  0.1719  0.0143
 6149W        W21280  16.844   7.146   2.014 -0.0425  0.1446  0.1528
 6150W        W21281   8.374   0.674   3.823  0.3720  0.0621 -0.2618
 6151W        W21282   9.609  13.357  15.485 -0.0578 -0.2080  0.0045
 6152W        W21283  17.020   0.016  15.340 -0.0175 -0.0406 -0.2733
 6153W        W21284   1.624   4.223   4.626  0.0581  0.1473  0.2328
 6154W        W21285   9.966  12.477   5.923  0.1423  0.1600  0.0490
 6155W        W21286   8.008  11.644  13.922  0.0837 -0.0899 -0.1953
 6156W        W21287  12.405  11.556   0.547 -0.0315  0.1689 -0.1785
 6157W        W21288  13.490  12.301  16.509  0.2311 -0.0491 -0.0425
 6158W        W21289   1.893   9.486   5.039 -0.2116 -0.1641  0.1973
 6159W        W21290  11.273  13.825  14.294  0.2214 -0.3068 -0.1862
 6160W        W21291  17.310  16.682  15.468 -0.1285 -0.1341 -0.0374
 6161W        W21292   5.663   4.029  15.597  0.1006  0.0065  0.0602
 6162W        W21293  14.539   3.199  13.806 -0.0128  0.0533  0.3497
 6163W        W21294  16.037   4.397   2.614  0.0381 -0.0975  0.0199
 6164W        W21295  10.548  12.349  12.552  0.1744 -0.0192  0.0765
 6165W        W21296   5.056  17.691  16.750 -0.1569  0.0928  0.1217
 6166W        W21297   5.308  14.240   3.371  0.2123  0.1787  0.2446
 6167W        W21298   6.086   6.883  11.832  0.0826  0.0130  0.0601
 6168W        W21299   3.227   2.078   3.379 -0.0489  0.2096 -0.0658
 6169W        W21300   1.951   0.657  12.194 -0.0882  0.1199  0.0980
 6170W        W21301   3.506  10.205  15.877  0.1298  0.1682  0.2387
 6171W        W21302   8.324   8.628  16.351 -0.2301  0.3604 -0.1139
 6172W        W21303   5.553  14.049  11.744  0.0465  0.0812  0.0282
 6173W        W21304  15.555  10.126   3.926  0.0286  0.1117  0.2106
 6174W        W21305   1.729   8.602   5.584 -0.0460 -0.3780  0.0009
 6175W        W21306   7.059   9.197   3.171  0.0271 -0.2996  0.0813
 6176W        W21307  14.823   5.653   0.651  0.1072  0.0382  0.2398
 6177W        W21308   6.016   1.749  12.763 -0.1807  0.0633  0.0933
 6178W        W21309  11.920   1.143   6.510  0.1035 -0.1091  0.1538
 6179W        W21310   8.036   4.120  16.627  0.0488 -0.3128 -0.0304
 6180W        W21311  10.790  12.708  11.937  0.3116  0.1912 -0.1476
 6181W        W21312   5.445  14.816  16.668 -0.2881 -0.2334  0.0413
 6182W        W21313  15.928  14.062   2.893 -0.2154 -0.0081 -0.0900
 6183W        W21314  11.806  13.630  16.617  0.0466  0.2710  0.3916
 6184W        W21315  10.706   1.570  13.444 -0.2389  0.0083  0.2279
 6185W        W21316  15.105  11.737  16.830  0.0838  0.1684  0.1229
 6186W        W21317  14.747   9.165   3.218 -0.0269  0.1217  0.3027
 6187W        W21318   1.216  13.603  13.674  0.1784  0.5301  0.1692
 6188W        W21319   1.271   2.715  13.858 -0.1211  0.1874 -0.0534
 6189W        W21320  16.370   5.007  15.125 -0.1584 -0.1733 -0.0443
 6190W        W21321   7.551  10.227   0.748  0.1748  0.3423 -0.0256
 6191W        W21322  17.488   9.434   0.471 -0.4191  0.2271  0.0499
 6192W        W21323  12.018  10.579  16.135 -0.0226 -0.0434 -0.0922
 6193W        W21324  13.203   3.415   4.953  0.0032  0.0679 -0.0762
 6194W        W21325   0.962   2.604   4.847 -0.0167  0.1869 -0.0556
 6195W        W21326   1.989  17.111  11.755  0.2117  0.0667  0.0612
 6196W        W21327   7.618   1.135   5.653  0.0817  0.3150 -0.0529
 6197W        W21328   3.672   3.271  12.345 -0.1824  0.1419  0.0407
 6198W        W21329  12.145   3.364   2.605 -0.4007 -0.0901 -0.2148
 6199W        W21330  14.230   8.171   2.196  0.0442  0.0930  0.2178
 6200W        W21331  13.160  15.239  16.792  0.0917  0.1011 -0.0675
 6201W        W21332   9.563   3.754  11.722  0.1370  0.1112  0.0124
 6202W        W21333   0.882   7.226   1.202  0.3336 -0.1682 -0.1176
 6203W        W21334  16.483  16.359  16.164 -0.0457  0.0381  0.0148
 6204W        W21335   4.756   7.979  10.222  0.1399  0.0716 -0.1344
 6205W        W21336  17.101  11.115  15.079  0.2526 -0.3205  0.0066
 6206W        W21337   7.062   0.283   2.621  0.0664 -0.1768 -0.3832
 6207W        W21338   6.177   9.456   4.708 -0.4688 -0.0025 -0.3702
 6208W        W21339  16.384   0.753  12.902  0.1066  0.0539 -0.0578
 6209W        W21340  16.235  15.983   1.383  0.3201 -0.0637  0.0350
 6210W        W21341  12.303   9.492   2.802  0.1443 -0.1146 -0.2105
 6211W        W21342  16.087  14.520   2.616  0.1711 -0.1498 -0.1674
 6212W        W21343   7.618   5.602  14.451  0.1112  0.1582 -0.0527
 6213W        W21344  11.209  13.512   5.171  0.0152  0.3111  0.1201
 6214W        W21345   7.381  10.791  14.848 -0.0464  0.1499  0.0671
 6215W        W21346   2.480   3.532   0.710  0.1996 -0.0853 -0.2293
 6216W        W21347  15.201   9.363   3.144 -0.0607  0.0160  0.1157
 6217W        W21348  10.357   0.168   5.783 -0.3809  0.2223  0.3225
 6218W        W21349   2.215   5.964  14.509  0.1003  0.2306 -0.1805
 6219W        W21350   4.517   3.610  15.923  0.1143 -0.0254  0.1300
 6220W        W21351  16.928  11.792   5.842 -0.0457 -0.2363 -0.1188
 6221W        W21352  16.120  10.499  11.946  0.0299  0.1261  0.1416
 6222W        W21353   3.926  10.443  14.414 -0.2022 -0.1372  0.0860
 6223W        W21354  15.516  16.753   3.947 -0.1338 -0.3797 -0.0081
 6224W        W21355  16.255   2.400  16.341  0.0382 -0.0932 -0.1262
 6225W        W21356  14.234  15.629  12.538  0.1960 -0.1422  0.0703
 6226W        W21357   5.451   9.083   1.298 -0.3539  0.0959  0.0605
 6227W        W21358   5.749   1.397   4.207 -0.0014 -0.0734  0.1680
 6228W        W21359   7.183  14.991   0.033  0.2032 -0.1422 -0.0091
 6229W        W21360  14.251   5.970   1.608 -0.1013  0.2041  0.0002
 6230W        W21361   9.335   6.129   3.114 -0.0028 -0.1930  0.0187
 6231W        W21362   4.471  15.804  12.865 -0.0041 -0.1730 -0.0843
 6232W        W21363   2.737   6.699   0.440 -0.2135  0.1568  0.0485
 6233W        W21364   7.038  15.050   4.538 -0.2594 -0.1025 -0.3462
 6234W        W21365   2.448   3.557   3.061 -0.1117  0.0205  0.4476
 6235W        W21366   0.850   2.373  11.790 -0.0078  0.3459  0.1931
 6236W        W21367  16.873   9.061  11.726 -0.0099  0.1761 -0.0846
 6237W        W21368  11.127   8.730  13.104 -0.0413 -0.0060 -0.2512
 6238W        W21369  13.240   5.513   4.251 -0.1055 -0.4428  0.1052
 6239W        W21370   3.769   4.873   4.888  0.0397  0.2175  0.2159
 6240W        W21371   0.789  13.039  14.136 -0.0710 -0.0490 -0.1298
 6241W        W21372   6.830   3.780  16.334 -0.2280  0.1212 -0.1856
 6242W        W21373  13.015  10.954   0.622 -0.1840 -0.2056 -0.0598
 6243W        W21374  12.164   4.345  12.810  0.1056 -0.0530 -0.1649
 6244W        W21375  17.040   0.594  16.844 -0.1236  0.0352  0.1215
 6245W        W21376   1.508   6.898   3.056 -0.0168 -0.0177 -0.0055
 6246W        W21377   3.645   8.699  12.549  0.0423 -0.0702  0.1984
 6247W        W21378   9.624   5.587   0.624  0.0884 -0.1537  0.0325
 6248W        W21379  13.996   4.530   1.700  0.1100  0.0848  0.1356
 6249W        W21380  14.475   0.740   1.509 -0.2776  0.0951  0.3009
 6250W        W21381  10.419  10.929   4.357 -0.0289 -0.1366  0.0222
 6251W        W21382  11.392   0.255  16.687  0.0926 -0.1607 -0.0089
 6252W        W21383   4.507  14.842  14.133 -0.3136 -0.0681  0.0138
 6253W        W21384   1.406  16.220   5.048 -0.0698  0.4357 -0.1408
 6254W        W21385  10.070   4.675  10.790 -0.0146  0.2201  0.2162
 6255W        W21386   2.972   5.827  14.572 -0.0542  0.0529  0.0605
 6256W        W21387  15.207  13.588   0.011  0.0402 -0.0096  0.1177
 6257W        W21388   8.542  17.274   3.274 -0.0677 -0.0731  0.0877
 6258W        W21389  11.174   8.683   2.321 -0.1700  0.0937  0.3208
 6259W        W21390   7.500  15.987  14.357 -0.0167 -0.0132 -0.0953
 6260W        W21391  12.344   4.607   5.535  0.1284  0.3036 -0.1379
 6261W        W21392  17.380   8.387  12.688 -0.2544 -0.1864 -0.1238
 6262W        W21393  17.320   5.488  16.364  0.0593  0.1359 -0.0903
 6263W        W21394   4.238   3.543  14.259  0.0010  0.2147  0.1878
 6264W        W21395  14.376  12.043  14.905 -0.1608 -0.1549  0.0898
 6265W        W21396   1.872  14.614  16.448 -0.2024 -0.1081  0.0552
 6266W        W21397  12.931  16.780  12.912  0.2136 -0.1872 -0.1926
 6267W        W21398  13.730   1.082   1.971  0.0649  0.0034 -0.2427
 6268W        W21399   7.920  17.296  13.771 -0.1304  0.1452 -0.2043
 6269W        W21400  14.850  10.121   4.600  0.1186  0.0793 -0.0886
 6270W        W21401   2.798  13.681  12.860  0.0003 -0.0203 -0.0827
 6271W        W21402  10.566  10.233   4.536 -0.0018 -0.1977  0.0095
 6272W        W21403  12.857   9.116  14.679 -0.1924 -0.2644 -0.0184
 6273W        W21404   2.063   1.814  11.056  0.0295  0.0367  0.0096
 6274W        W21405   6.891   1.732  15.444  0.3926  0.0474 -0.1431
 6275W        W21406   0.682   3.080  16.823 -0.1665  0.0470  0.2199
 6276W        W21407   7.285   5.392   4.889 -0.1570 -0.2860  0.0542
 6277W        W21408  12.801  12.580  13.184 -0.1485 -0.1015  0.1407
 6278W        W21409   2.787   4.525   3.227 -0.1978  0.3257  0.4998
 6279W        W21410   8.783  16.708  15.913  0.0612  0.0001  0.3993
 6280W        W21411   5.722   0.649  12.532  0.1930  0.1207  0.0995
 6281W        W21412   2.701   8.992  14.193 -0.0310 -0.2645  0.1786
 6282W        W21413  13.264  13.605   3.115  0.1216 -0.2867  0.2411
 6283W        W21414   9.043   6.991  14.392  0.1837  0.0476  0.1049
 6284W        W21415  15.883   8.267  12.305 -0.3322 -0.2566  0.0742
 6285W        W21416   1.072   4.346   0.460  0.0706  0.1963  0.0183
 6286W        W21417   0.566  13.022  13.392  0.4116 -0.1178 -0.3661
 6287W        W21418   2.097  16.468   4.855  0.1687 -0.3115 -0.0878
 6288W        W21419   1.053   0.504   3.873 -0.0142  0.2572  0.1180
 6289W        W21420   4.751   9.928   4.768 -0.0853  0.0206 -0.2604
 6290W        W21421   4.587   3.363  16.858  0.0434 -0.1363  0.2038
 6291W        W21422   1.427  11.740  16.576 -0.3720 -0.3847  0.0429
 6292W        W21423   7.618   5.890   6.161  0.0142  0.2936 -0.0220
 6293W        W21424  15.989   2.524   2.974 -0.0932 -0.3282  0.3335
 6294W        W21425   7.761   5.381   5.044 -0.1392  0.1259  0.0960
 6295W        W21426  17.247   0.271  14.958  0.4827  0.2865  0.2508
 6296W        W21427  15.315   2.629   5.159 -0.2330  0.0558  0.1255
 6297W        W21428  15.308   7.565  16.707  0.1044 -0.0034  0.1839
 6298W        W21429   8.971   0.230   3.681 -0.1392 -0.0948  0.0705
 6299W        W21430  10.030  14.971  16.770  0.2023  0.2373 -0.2163
 6300W        W21431   5.278  10.014   4.759 -0.1391  0.1495  0.1542
 6301W        W21432  10.077  10.933  14.953 -0.0020 -0.1673  0.0340
 6302W        W21433   7.024   4.124   4.375  0.1193  0.0184  0.2097
 6303W        W21434   2.183   6.208  16.407  0.1072 -0.3866  0.0978
 6304W        W21435   4.576  12.015  16.121 -0.1795  0.4433  0.2844
 6305W        W21436   3.488   4.161   0.018 -0.0382  0.3052 -0.0012
 6306W        W21437   2.639   0.754  10.531 -0.1063  0.3521 -0.0235
 6307W        W21438   5.077  16.237  16.809 -0.2167 -0.2178  0.1616
 6308W        W21439   4.342  10.663  13.658 -0.0728 -0.3311 -0.2687
 6309W        W21440   3.788  17.150  13.691  0.0749 -0.1726 -0.2239
 6310W        W21441   4.193  16.039   2.907  0.0520  0.1062 -0.1815
 6311W        W21442  16.921  17.499   1.400 -0.4448 -0.2484 -0.1600
 6312W        W21443  16.934   6.141  16.897 -0.0281  0.0783  0.1035
 6313W        W21444   0.084  11.221  16.512 -0.1103  0.0079 -0.2364
 6314W        W21445   7.328  17.595   1.488 -0.1224 -0.3104 -0.0488
 6315W        W21446   6.189   9.462  12.517 -0.1445  0.0613 -0.1792
 6316W        W21447   3.194   7.317  13.718  0.0433  0.1533 -0.2844
 6317W        W21448   7.229   2.803  13.561 -0.2247 -0.2883  0.2647
 6318W        W21449   6.957   7.451  11.650 -0.2056  0.1956 -0.1828
 6319W        W21450   7.455  14.659  12.100  0.0576 -0.1789  0.0187
 6320W        W21451   1.914   0.625   2.510  0.2903  0.0805  0.1718
 6321W        W21452   6.208  16.892  14.288  0.0176  0.0653 -0.0543
 6322W        W21453  16.614   6.471  14.910 -0.3759  0.0298  0.1556
 6323W        W21454  14.066  11.543   0.092 -0.1308 -0.1198 -0.0402
 6324W        W21455   0.593  13.476   0.292 -0.1288 -0.0557 -0.1281
 6325W        W21456   5.090  13.896  11.967  0.3612 -0.3717  0.0019
 6326W        W21457  13.743   0.208  14.627  0.0634 -0.0387 -0.1239
 6327W        W21458  13.699  10.624  11.360 -0.1491 -0.1519 -0.1266
 6328W        W21459   3.712  16.476  15.515 -0.0861  0.2729  0.0005
 6329W        W21460  17.694   4.664   0.925  0.1387  0.1961  0.3803
 6330W        W21461   1.496   6.254  11.891 -0.2121 -0.1490 -0.0732
 6331W        W21462   8.257   6.360  15.973 -0.1694  0.0010 -0.0975
 6332W        W21463  11.252   3.793   0.053 -0.0766 -0.0758 -0.1114
 6333W        W21464  11.357  15.043   4.906 -0.0857  0.1562 -0.2217
 6334W        W21465  16.290  17.568  15.553  0.2498  0.1993 -0.1598
 6335W        W21466   9.612   3.522   4.216  0.0583  0.1971  0.2138
 6336W        W21467  16.031   9.500   4.239 -0.1943  0.0485  0.0168
 6337W        W21468   3.030  13.760   1.296 -0.1708  0.0333  0.0980
 6338W        W21469   2.889   7.057   1.969 -0.2827  0.1359  0.3139
 6339W        W21470   5.553   7.370  13.294 -0.1704  0.2350 -0.1351
 6340W        W21471  11.668   2.283  11.636 -0.1463  0.0968 -0.0562
 6341W        W21472   6.715   8.666   0.022 -0.0657  0.1062 -0.1025
 6342W        W21473  12.645  17.501   4.498 -0.2611 -0.0762  0.0697
 6343W        W21474   4.759  11.957   1.920  0.1449 -0.2701  0.1105
 6344W        W21475   8.443  13.550  14.903 -0.0037 -0.2076  0.1640
 6345W        W21476   9.683  10.819   2.164 -0.1091  0.0830  0.0633
 6346W        W21477   6.627   7.492  11.229 -0.1721  0.2308  0.0320
 6347W        W21478  12.388  14.812   4.913  0.1539  0.0571 -0.1857
 6348W        W21479   5.136  14.433   2.458  0.3175 -0.2778 -0.2556
 6349W        W21480  11.954  16.830   7.235  0.2003  0.2435 -0.4520
 6350W        W21481  16.265   6.683   4.483 -0.1436  0.2958 -0.2913
 6351W        W21482  13.925  16.485   0.587 -0.1563  0.3304  0.1029
 6352W        W21483   8.178   2.339   1.291 -0.1705  0.0972  0.3573
 6353W        W21484   7.598   0.899  14.304 -0.0667  0.0052 -0.0560
 6354W        W21485   3.394   5.656   5.184  0.0004 -0.0282  0.1310
 6355W        W21486   6.010   8.751   2.504 -0.0107 -0.1833 -0.0441
 6356W        W21487  10.592  12.652   1.659  0.1481  0.0296 -0.3677
 6357W        W21488  10.975   7.551   0.904  0.0743  0.0772  0.1847
 6358W        W21489   6.651   8.657  12.696 -0.2338  0.0824  0.0033
 6359W        W21490   9.899   8.975  13.502  0.1160 -0.0946  0.1237
 6360W        W21491  15.955   0.414  14.768 -0.1245 -0.1324  0.1506
 6361W        W21492   1.559  12.866   5.416  0.0619  0.0844 -0.0266
 6362W        W21493   4.300   4.359   5.684 -0.3055 -0.2094  0.0740
 6363W        W21494   4.025  10.189   4.439  0.3504  0.0052  0.0558
 6364W        W21495  17.675   6.089  14.902 -0.1449 -0.0542  0.0479
 6365W        W21496  17.432  12.048  16.872  0.2014 -0.0244  0.0566
 6366W        W21497   7.774   7.389  12.934  0.2135 -0.1337  0.0056
 6367W        W21498  13.185   1.399   5.655  0.1121 -0.2338 -0.2683
 6368W        W21499  17.435  13.931   0.029  0.0089  0.0420  0.1118
 6369W        W21500  14.213   5.841   5.241  0.2209  0.0935 -0.2966
 6370W        W21501  14.163   2.066   1.582 -0.2164  0.1552  0.0110
 6371W        W21502   4.182  17.313  13.332  0.1622 -0.2168  0.1419
 6372W        W21503   3.281  16.444  13.452 -0.1568  0.1640  0.0174
 6373W        W21504  12.010   1.746   2.458  0.1135 -0.4797  0.1528
 6374W        W21505   9.597  14.236  14.971  0.1364  0.3950  0.2979
 6375W        W21506   1.456  11.650  14.101 -0.0453 -0.1058 -0.0272
 6376W        W21507   9.233   1.335  16.421 -0.1171 -0.2140  0.1174
 6377W        W21508   0.616  14.621  11.704 -0.0170 -0.2849 -0.1364
 6378W        W21509  13.126   0.101  12.018  0.0177  0.0775  0.0422
 6379W        W21510  11.439  14.199   1.979  0.2679  0.0118 -0.0939
 6380W        W21511   3.077   3.573  13.094 -0.0737 -0.3972  0.0820
 6381W        W21512   0.645   9.323  15.877 -0.2515  0.0470 -0.0166
 6382W        W21513  14.047   5.444  13.394  0.0176 -0.1016  0.2176
 6383W        W21514   7.380  13.497   3.669  0.1572  0.0466 -0.0623
 6384W        W21515  14.324   3.911   1.063  0.1794 -0.0800 -0.2791
 6385W        W21516  17.153   3.045   5.551 -0.4109 -0.1556 -0.0199
 6386W        W21517  10.194  13.160  12.893 -0.3722  0.1361  0.0525
 6387W        W21518  16.202   0.366  11.988 -0.0871  0.1741 -0.2948
 6388W        W21519  17.391   4.921  10.586  0.1289  0.0294  0.2540
 6389W        W21520  16.459  10.941   0.947  0.1544  0.2152 -0.0977
 6390W        W21521   8.253   6.579  11.660  0.1498  0.1059 -0.0574
 6391W        W21522   3.205   0.653   1.725  0.3064 -0.1189  0.1218
 6392W        W21523   8.293   7.496  12.676 -0.0550  0.2943 -0.4401
 6393W        W21524   4.818   2.867   3.706  0.1606  0.3155 -0.3928
 6394W        W21525   4.051  10.646   4.570  0.2893 -0.2453  0.0969
 6395W        W21526  17.705   6.144  15.750 -0.1501  0.2728  0.0915
 6396W        W21527   1.473   9.575   0.618  0.0491 -0.0813 -0.1320
 6397W        W21528   1.363   7.328   1.320 -0.2505  0.0100  0.0423
 6398W        W21529  14.630   2.402   1.631  0.0116  0.3122  0.0312
 6399W        W21530   3.669   7.644  11.109 -0.2048 -0.0873  0.0998
 6400W        W21531  16.238  13.799  14.213  0.3652  0.1672  0.2926
 6401W        W21532  11.724  11.645   1.067 -0.0373  0.2753 -0.1449
 6402W        W21533  17.119   4.480  16.635 -0.1024  0.1640  0.0573
 6403W        W21534  10.892  10.891   1.162  0.0769  0.3516  0.0987
 6404W        W21535  15.917   3.605   2.558 -0.0340  0.2280 -0.1232
 6405W        W21536   9.767   5.957   3.797  0.0856  0.3208  0.1499
 6406W        W21537   0.421   8.545   2.158  0.0761 -0.1087 -0.2612
 6407W        W21538   9.856   0.206   4.522  0.2691 -0.0548 -0.1462
 6408W        W21539  12.022   4.436  15.236  0.3193 -0.0742 -0.1096
 6409W        W21540   7.624  11.565  16.688 -0.0585  0.1713 -0.1513
 6410W        W21541  10.622  15.921   3.804 -0.1758 -0.1219  0.0017
 6411W        W21542  14.836   4.391  12.454 -0.1163  0.1095 -0.0549
 6412W        W21543   7.394   8.388  11.714  0.1413  0.0848  0.0785
 6413W        W21544  17.513   1.873   4.754 -0.1352 -0.1941  0.1181
 6414W        W21545  14.271   6.570   2.777  0.0005  0.0524  0.1339
 6415W        W21546   0.436   5.580   0.744 -0.1608  0.0128 -0.1497
 6416W        W21547   1.176   6.735  14.691  0.0070 -0.1701 -0.1278
 6417W        W21548   5.387  11.435   5.148  0.0275 -0.0251  0.0794
 6418W        W21549   4.652   8.563  10.800 -0.0612 -0.0098 -0.0409
 6419W        W21550   5.856   5.989  14.611  0.2947 -0.0715  0.0127
 6420W        W21551  17.310  11.487   4.227 -0.0787 -0.0664 -0.0680
 6421W        W21552   9.326   0.814   0.264  0.0185  0.4445 -0.2914
 6422W        W21553   8.382   4.474   3.160 -0.0162  0.2382  0.0530
 6423W        W21554   7.799   5.899  12.020 -0.1404 -0.2561  0.1109
 6424W        W21555   1.877  10.564  13.733 -0.2549 -0.2147  0.2217
 6425W        W21556   6.153   5.227   3.976  0.0521 -0.2465 -0.0556
 6426W        W21557   0.017  10.507   3.526 -0.1860 -0.0491  0.1599
 6427W        W21558   1.801  14.218   2.803  0.0157  0.2387 -0.2003
 6428W        W21559   2.820   9.499   2.032 -0.2893  0.0260  0.0110
 6429W        W21560  16.648   0.961   3.543 -0.0255 -0.2762 -0.1415
 6430W        W21561  10.346   1.913   6.139 -0.0951 -0.1034  0.3701
 6431W        W21562  13.376   5.060   1.248  0.4064 -0.3278 -0.1243
 6432W        W21563  11.609   1.394  13.787  0.2126  0.0751 -0.0714
 6433W        W21564  11.541   5.424  13.146  0.0239  0.0662  0.1079
 6434W        W21565   6.539  13.354  14.497 -0.2472 -0.0202 -0.0234
 6435W        W21566  10.778  13.522   1.709 -0.1997  0.2393  0.0690
 6436W        W21567   3.436   6.438  14.036  0.0129 -0.1622 -0.1509
 6437W        W21568  16.900   8.895  14.865  0.0313  0.0109  0.1182
 6438W        W21569   4.322   1.282   2.885 -0.0677 -0.0090 -0.0461
 6439W        W21570   4.040   6.433  15.533 -0.0299  0.3021  0.0483
 6440W        W21571   5.150   8.274  11.139 -0.2295 -0.2842  0.1642
 6441W        W21572  13.300  11.962  11.304  0.0556 -0.0588  0.3041
 6442W        W21573   2.288   1.492   0.825 -0.0213  0.1769  0.0284
 6443W        W21574   6.111  11.674  16.498  0.1319  0.0583 -0.1831
 6444W        W21575   4.860   1.958  13.411 -0.1091  0.0590  0.0136
 6445W        W21576   6.120  10.587  13.196 -0.0494  0.2059  0.0106
 6446W        W21577   4.875  15.030   5.702  0.2839 -0.0735 -0.0490
 6447W        W21578   0.721  14.968   5.685  0.0955  0.0841 -0.0302
 6448W        W21579   0.697   6.782  12.659 -0.0992  0.0331 -0.2244
 6449W        W21580   2.837  10.624  12.094 -0.0415 -0.0422 -0.1808
 6450W        W21581   4.095   7.173   1.333  0.3293 -0.1420  0.0988
 6451W        W21582   7.036   4.694   1.227 -0.4093 -0.1384 -0.3187
 6452W        W21583   0.790   2.942   1.913  0.2896 -0.1462  0.1708
 6453W        W21584   0.364   4.786   5.818  0.3009 -0.1497 -0.0887
 6454W        W21585   7.780   9.281  11.909 -0.1310 -0.0364  0.3329
 6455W        W21586   0.284  14.406  16.780 -0.0444 -0.0883  0.2635
 6456W        W21587  13.383  15.295  12.515  0.1012 -0.1728 -0.0511
 6457W        W21588   8.065  14.514   6.033  0.1036  0.1756 -0.1692
 6458W        W21589   3.262   3.565   3.418  0.0336 -0.0441  0.0109
 6459W        W21590  10.317   0.197  12.814  0.0770  0.3294  0.1600
 6460W        W21591  12.140  17.399  11.311 -0.1662 -0.1120 -0.2380
 6461W        W21592   0.438  14.480   5.508 -0.4265  0.3449 -0.1700
 6462W        W21593  13.805  17.091   4.885 -0.0195  0.1281 -0.0958
 6463W        W21594   7.282  15.720  11.922 -0.0528 -0.0732  0.0047
 6464W        W21595  17.294  14.649   5.196  0.0180 -0.1146  0.1287
 6465W        W21596  13.633  10.232   3.876  0.2713  0.1016  0.1392
 6466W        W21597  14.251  11.401   0.987  0.0156 -0.1538 -0.0899
 6467W        W21598   2.758  12.709   4.074  0.1421 -0.6285 -0.3400
 6468W        W21599   5.613   9.577   1.182  0.0578 -0.3176  0.1366
 6469W        W21600  16.466   2.365   3.784  0.1628  0.1653 -0.1908
 6470W        W21601  16.507  16.419   5.034  0.2069  0.0683  0.1825
 6471W        W21602   5.864   5.117   2.259 -0.0836  0.2075 -0.1090
 6472W        W21603  16.875  14.357   5.222 -0.0374 -0.2368  0.0977
 6473W        W21604   3.409   5.881  15.836  0.0613  0.2359 -0.0449
 6474W        W21605   8.735  16.650  14.172 -0.0027  0.0313 -0.0830
 6475W        W21606   1.710  10.351   0.210 -0.2295 -0.1108 -0.3818
 6476W        W21607   4.562  14.027  11.842 -0.0301  0.1548 -0.1486
 6477W        W21608   0.705  16.943  14.562 -0.0012 -0.4943 -0.1711
 6478W        W21609  16.514  14.093  15.133 -0.0049  0.1034  0.2267
 6479W        W21610  13.007  15.107   4.108  0.0641  0.1361  0.0250
 6480W        W21611   6.686  14.236  13.498  0.0118  0.0692 -0.0419
 6481W        W21612   1.068   6.059   1.216  0.2961 -0.0154  0.0513
 6482W        W21613   7.316   5.376   0.411 -0.1192  0.2543  0.2506
 6483W        W21614   2.014   0.047  15.360 -0.2082 -0.2091  0.1023
 6484W        W21615   2.368   4.007  16.310 -0.3099  0.0700  0.1006
 6485W        W21616  16.130   9.457  13.845 -0.1576 -0.3937  0.0888
 6486W        W21617   4.858   6.331   0.097  0.0709  0.2018 -0.2511
 6487W        W21618   6.730  10.675   0.990  0.0150 -0.2481 -0.2536
 6488W        W21619  16.947   9.217  14.035  0.1241 -0.3157 -0.0934
 6489W        W21620  13.928  13.338  12.690 -0.0103 -0.0949 -0.1870
 6490W        W21621  11.023  11.476   5.269 -0.1774  0.3525  0.0688
 6491W        W21622  11.399   8.109  14.787 -0.3433 -0.2097  0.0439
 6492W        W21623   0.245  10.998   1.027  0.0819 -0.0499 -0.1973
 6493W        W21624  16.675  10.996   0.049 -0.0628 -0.1865 -0.0196
 6494W        W21625  11.828   8.212   1.965  0.2357 -0.2000  0.2084
 6495W        W21626  11.514   4.784  15.674 -0.1412 -0.0556 -0.1203
 6496W        W21627  11.944   5.542   3.823 -0.1857  0.1244  0.0061
 6497W        W21628  17.219  14.187  15.872 -0.1488 -0.0323 -0.2315
 6498W        W21629  13.229  10.527  12.977 -0.4405  0.4664  0.1894
 6499W        W21630  12.841   8.001  14.799 -0.1484  0.2081  0.0718
 6500W        W21631   3.512   5.419  11.187 -0.0774 -0.0072  0.0727
 6501W        W21632   8.887  15.960   4.402 -0.5170  0.1330 -0.1776
 6502W        W21633  14.333   5.181   3.793  0.1428  0.1947 -0.1130
 6503W        W21634   7.506   0.479  13.965  0.1036  0.1760  0.1694
 6504W        W21635   7.561   4.136  13.857 -0.0945 -0.2183 -0.0621
 6505W        W21636  11.727  15.347   4.917 -0.0022 -0.2838 -0.0107
 6506W        W21637   1.248   3.986  14.236 -0.1443 -0.2661  0.0284
 6507W        W21638   0.232   6.783  11.952 -0.0230 -0.1964 -0.1111
 6508W        W21639   5.409   3.062  15.177  0.0546 -0.1606 -0.0780
 6509W        W21640  14.519   5.686  15.357  0.5397  0.1646  0.2760
 6510W        W21641   3.098  13.630  12.450  0.0136 -0.1978  0.1560
 6511W        W21642  11.319   3.713  11.948 -0.1849  0.3954 -0.0769
 6512W        W21643  11.935   9.824  15.630 -0.0800 -0.1355 -0.0302
 6513W        W21644   3.887  10.533   3.030  0.1795 -0.0652 -0.0988
 6514W        W21645  14.422   7.861  14.579  0.0339 -0.2131 -0.1618
 6515W        W21646   6.586   1.430   4.877  0.1851  0.0548 -0.1109
 6516W        W21647   6.923   3.843  14.684  0.2482 -0.2294 -0.0596
 6517W        W21648  12.520   4.104   3.742  0.0223 -0.3231  0.1136
 6518W        W21649  14.451   2.744   0.800  0.1568  0.0720  0.1972
 6519W        W21650  13.204  15.297  11.898 -0.0282 -0.0684  0.4311
 6520W        W21651   5.488   8.336   3.001  0.0473 -0.0045  0.2602
 6521W        W21652  11.187   8.704  15.078 -0.2154  0.0686 -0.2549
 6522W        W21653  14.630  13.648  16.847  0.0829  0.0348  0.0480
 6523W        W21654  15.114  16.248  12.727  0.1679  0.2020  0.0149
 6524W        W21655  14.511   0.143  16.520  0.0720  0.0138  0.0531
 6525W        W21656   3.473  16.237  16.900  0.0438  0.2026  0.1053
 6526W        W21657   6.802  16.846  13.039  0.0797  0.2408 -0.1371
 6527W        W21658   3.978   2.177  11.431 -0.0302  0.1705 -0.2285
 6528W        W21659   3.968   8.066   0.850  0.2023 -0.2683  0.0849
 6529W        W21660  17.350  12.374   5.547  0.2462 -0.1974 -0.2591
 6530W        W21661   3.479   3.265  15.277  0.1001  0.1868  0.1983
 6531W        W21662   1.302   2.854  15.939 -0.5235  0.1540  0.0662
 6532W        W21663  14.697   8.356   0.228 -0.0278  0.3075  0.1919
 6533W        W21664  14.247  13.068  15.034 -0.0500 -0.0879  0.1630
 6534W        W21665   6.479   1.718   3.931  0.1650 -0.0906 -0.1841
 6535W        W21666   2.279   7.528  11.174 -0.1193  0.2340 -0.0944
 6536W        W21667  12.199   1.742   1.139 -0.4829 -0.0422 -0.0965
 6537W        W21668  12.161   8.012   4.321 -0.0572 -0.3742 -0.1421
 6538W        W21669  11.014   1.243   5.481 -0.2841  0.0719 -0.3154
 6539W        W21670  11.650  11.871  16.108  0.1108  0.0729 -0.1571
 6540W        W21671   1.372   4.764   0.225  0.0453  0.0401 -0.0242
 6541W        W21672  17.106  10.936   4.070  0.1403  0.3616 -0.1376
 6542W        W21673   8.339  12.248  13.425 -0.2679  0.2782 -0.1479
 6543W        W21674   0.836  13.017   3.585 -0.1969 -0.1829 -0.0298
 6544W        W21675  14.987   2.085  15.152  0.0815 -0.1994 -0.2205
 6545W        W21676  15.813  14.787  15.511  0.0149  0.1633  0.0619
 6546W        W21677  14.115   3.628  11.083  0.2670  0.0828 -0.0808
 6547W        W21678   5.168   6.716  11.461  0.0168 -0.0709 -0.1042
 6548W        W21679  15.418   1.830  16.841  0.3738 -0.0100  0.0885
 6549W        W21680  15.232   6.700   4.592 -0.2082  0.2947 -0.3031
 6550W        W21681  14.901  14.840  12.971  0.1379 -0.3375  0.1224
 6551W        W21682   4.451   9.600  14.462 -0.0663  0.1109 -0.2101
 6552W        W21683  11.200   2.400  11.282 -0.1476  0.1654 -0.2872
 6553W        W21684  10.378   2.739  13.921  0.0881 -0.0494 -0.3759
 6554W        W21685   6.130   2.950   4.943 -0.2885  0.1751  0.2565
 6555W        W21686   6.249   6.670   2.657 -0.0899  0.1274  0.2237
 6556W        W21687  14.070   7.917   1.655  0.1439  0.1497  0.0045
 6557W        W21688   4.241   3.839   5.505  0.3951  0.4784  0.2115
 6558W        W21689  16.029   9.185  15.148 -0.2396  0.0362  0.1104
 6559W        W21690   5.487   0.777   5.075  0.1333 -0.1721  0.0253
 6560W        W21691   2.544  10.302  12.473  0.1195 -0.0627 -0.1528
 6561W        W21692  12.101   0.687   0.140 -0.1658  0.0006  0.0321
 6562W        W21693   9.157   3.107   0.028  0.0464  0.1490 -0.1141
 6563W        W21694   4.140   8.430  14.648  0.2219 -0.0364 -0.2246
 6564W        W21695   5.710  11.010  15.757  0.1961  0.1782  0.0688
 6565W        W21696   1.871  10.362   4.396  0.0668  0.2329 -0.0170
 6566W        W21697   4.540  13.247   5.350  0.2222  0.0296  0.0771
 6567W        W21698   2.241   9.696  11.647 -0.0212  0.2481  0.3672
 6568W        W21699  14.602   7.926   1.497 -0.1596  0.3206  0.1924
 6569W        W21700   6.108   9.520   3.732 -0.0274 -0.0733 -0.1190
 6570W        W21701   9.796  12.999   5.865 -0.0296  0.0330  0.0526
 6571W        W21702  15.172  12.404  12.670 -0.2012  0.1672 -0.1938
 6572W        W21703  15.005   3.290  16.380  0.3517 -0.0788 -0.1271
 6573W        W21704   1.219   0.383  14.875 -0.0976  0.1359 -0.0091
 6574W        W21705  10.875   6.640   1.032  0.0397  0.0318 -0.0899
 6575W        W21706   8.570  10.048   1.380 -0.0095 -0.0017 -0.1118
 6576W        W21707   7.670   1.614  16.188  0.3939 -0.0258  0.1057
 6577W        W21708   0.742   6.578   2.873 -0.2611  0.0224 -0.4199
 6578W        W21709   6.782   6.779  15.198  0.0995  0.0044 -0.0052
 6579W        W21710  13.686   1.835   0.780 -0.0643  0.0538 -0.0238
 6580W        W21711   7.675   4.215  15.772 -0.1258  0.1221 -0.1112
 6581W        W21712  17.048   3.183   4.660  0.0554 -0.1743  0.1500
 6582W        W21713   6.872   3.010  14.379 -0.0437 -0.0553 -0.3069
 6583W        W21714   0.573  16.499  12.125  0.2036  0.1044  0.1078
 6584W        W21715   7.013   2.984  11.504 -0.1810 -0.2918  0.4425
 6585W        W21716   3.934   9.717   4.311 -0.1091  0.0213 -0.1139
 6586W        W21717  12.093   6.009  15.147 -0.1904 -0.1558  0.1384
 6587W        W21718   4.791  11.644  14.833 -0.2454 -0.3157  0.1680
 6588W        W21719  14.978  12.678  15.029  0.0580  0.1291 -0.0820
 6589W        W21720   8.449   6.945  16.154  0.0885  0.1075  0.1324
 6590W        W21721   4.833  16.252   4.948  0.0310 -0.0246 -0.1328
 6591W        W21722  10.280  15.013  13.443  0.0345  0.1216 -0.0006
 6592W        W21723  17.219  15.957  11.791  0.0129 -0.0968 -0.0093
 6593W        W21724  16.986  10.008   1.473 -0.0352  0.4600  0.1785
 6594W        W21725   5.927  15.454  14.426 -0.4238 -0.2812 -0.0900
 6595W        W21726  13.080   8.656  13.003 -0.0997 -0.0736  0.4289
 6596W        W21727  15.866   8.727  15.719  0.1254  0.2143 -0.1060
 6597W        W21728   5.267   1.841   0.735 -0.3248  0.0001  0.2809
 6598W        W21729  14.866  11.273  11.820 -0.0021 -0.3184 -0.2427
 6599W        W21730  16.589  10.915   5.627 -0.0128  0.0105  0.0852
 6600W        W21731  16.764   1.863   4.854 -0.0784  0.0465  0.3454
 6601W        W21732   8.855   5.726   1.343 -0.0742  0.0391  0.0127
 6602W        W21733   0.311   9.461  15.447 -0.0653  0.0032 -0.2084
 6603W        W21734   8.997   9.321   1.774 -0.0171 -0.1167  0.4863
 6604W        W21735  14.219   6.344   3.878 -0.1652  0.0989  0.1025
 6605W        W21736   6.338  11.078  14.077  0.1834  0.1183  0.4063
 6606W        W21737  16.767   8.986   4.284 -0.1182 -0.2462  0.1186
 6607W        W21738  16.329  12.065  13.528 -0.1232  0.1450  0.0722
 6608W        W21739   4.171   0.544  16.378 -0.0184 -0.0440  0.1453
 6609W        W21740   1.066   7.259  11.095 -0.2870  0.1526 -0.1128
 6610W        W21741  13.500  12.593   2.514  0.1695 -0.0664 -0.1904
 6611W        W21742  14.686  11.818  16.521  0.3217 -0.2845 -0.2284
 6612W        W21743   6.730   4.585   5.183 -0.4211 -0.3340 -0.0038
 6613W        W21744  13.790  11.217  15.043 -0.1558  0.1920 -0.2291
 6614W        W21745  16.761   3.897  13.952 -0.4413  0.2269 -0.0746
 6615W        W21746   3.018   6.699  16.930  0.0051 -0.2850 -0.1589
 6616W        W21747   0.220   0.719  13.150 -0.1699 -0.1315 -0.2828
 6617W        W21748  16.954  14.719   1.704  0.0002  0.0073 -0.1475
 6618W        W21749   3.102   6.776   4.152 -0.0277 -0.0475 -0.1245
 6619W        W21750  10.661   4.218  12.390 -0.0999 -0.1433 -0.0276
 6620W        W21751   1.420  16.633  15.216 -0.0955  0.1866 -0.0777
 6621W        W21752  14.772  13.564   6.070 -0.1465  0.1228 -0.2077
 6622W        W21753  15.850   8.903   3.383 -0.0749  0.3097  0.0917
 6623W        W21754   6.474   0.326   3.975 -0.2092  0.0503  0.1771
 6624W        W21755  14.735   8.630  15.399 -0.2640 -0.0238 -0.1601
 6625W        W21756  11.435  14.095  12.320 -0.1076  0.0005  0.1061
 6626W        W21757  12.147   6.301  14.731 -0.2715  0.0270 -0.0993
 6627W        W21758   4.854   3.992  15.239  0.2980  0.2289 -0.0195
 6628W        W21759  17.131  17.017  14.574  0.1469 -0.1340  0.2612
 6629W        W21760   3.011   8.851  15.043 -0.0081  0.0047  0.1953
 6630W        W21761  14.513  16.884   5.200  0.0029 -0.0061  0.1257
 6631W        W21762   6.009  11.054  16.811 -0.3039 -0.0896  0.2823
 6632W        W21763  14.024  10.102  14.221  0.0741  0.0876  0.0411
 6633W        W21764   7.589  14.741   6.351  0.0346 -0.1123  0.4458
 6634W        W21765  11.630   7.522   5.763  0.1811 -0.3300 -0.2590
 6635W        W21766   4.769  16.344  13.691  0.0521  0.0788  0.0724
 6636W        W21767  16.864   8.329  13.512 -0.1742 -0.2094  0.0815
 6637W        W21768   9.643   1.533   1.823  0.1424  0.1471  0.1835
 6638W        W21769  13.379   8.890  12.040  0.2528  0.4348 -0.5855
 6639W        W21770   0.409   0.049   0.029  0.0943  0.0055 -0.0811
 6640W        W21771   8.467   3.593   2.215 -0.2033 -0.3067  0.3021
 6641W        W21772   8.196   4.739   0.628  0.0032  0.2311  0.1980
 6642W        W21773   1.442  15.342  15.269 -0.4650 -0.0649 -0.1203
 6643W        W21774  15.256  17.560   0.691  0.1358  0.0473 -0.1466
 6644W        W21775   3.331   3.981  11.860  0.0486 -0.0955  0.0843
 6645W        W21776   0.738  10.831  12.758  0.2154  0.2355 -0.1542
 6646W        W21777   7.176   2.959  14.017 -0.2117 -0.1956 -0.2107
 6647W        W21778  10.111   4.066   4.123  0.1876  0.2176  0.2041
 6648W        W21779   6.388   5.384   0.950 -0.1113  0.3740  0.0438
 6649W        W21780  10.018   1.711   2.058 -0.1168  0.5540 -0.0584
 6650W        W21781   8.535   9.598  16.523 -0.0575  0.0311  0.0092
 6651W        W21782   8.875   2.699   0.116 -0.0799 -0.2222 -0.2073
 6652W        W21783  14.177   6.986  15.658  0.1098  0.0365  0.1626
 6653W        W21784   8.222  10.581  14.453 -0.2376  0.3700 -0.0951
 6654W        W21785  10.973  17.250   4.132  0.0453  0.2582  0.0493
 6655W        W21786   3.111   5.520   4.749 -0.1659  0.3777 -0.1135
 6656W        W21787   5.353  12.786  12.299 -0.0004 -0.0252 -0.0592
 6657W        W21788   3.592   7.244  14.698 -0.1093 -0.1949  0.3391
 6658W        W21789   3.051  17.303  16.631 -0.1965 -0.0360 -0.0308
 6659W        W21790   4.242  14.988  14.603  0.2772  0.0696 -0.4067
 6660W        W21791   7.594  17.369  13.312 -0.1613 -0.0024  0.0059
 6661W        W21792   1.350  14.932   3.629 -0.0079 -0.0806 -0.0628
 6662W        W21793  17.073   9.574   5.756 -0.2101 -0.2210 -0.0809
 6663W        W21794   1.797   3.644  14.535 -0.0018 -0.0406  0.0709
 6664W        W21795   1.547   2.362  15.976 -0.1213  0.0110 -0.0830
 6665W        W21796   3.826   7.236   5.415  0.1013 -0.2384  0.0554
 6666W        W21797  12.629   8.755   3.756  0.1038  0.2315 -0.0397
 6667W        W21798  12.835   0.263   5.155  0.1174 -0.0885  0.0501
 6668W        W21799   5.755  17.171  12.612  0.0434 -0.1262  0.1247
 6669W        W21800  17.081   1.567   4.640 -0.0910  0.1261 -0.0496
 6670W        W21801   3.786  10.610  11.686 -0.0128 -0.2011 -0.2074
 6671W        W21802   5.198   9.794   2.036  0.2937  0.0616  0.1257
 6672W        W21803  11.021   6.906  13.930  0.0001 -0.0023  0.0148
 6673W        W21804   3.478   7.237  12.885 -0.0103 -0.1676  0.3079
 6674W        W21805   8.684   4.509   0.490  0.0340 -0.0636  0.0442
 6675W        W21806   4.565   4.249   2.802 -0.1573  0.0419  0.0385
 6676W        W21807  10.071   1.698  14.886 -0.2492 -0.1124 -0.0397
 6677W        W21808   4.006  17.565   2.096  0.1808  0.1111 -0.3896
 6678W        W21809   6.689  17.558  14.218 -0.2252  0.1759 -0.0110
 6679W        W21810  16.826   5.833  11.457 -0.0489 -0.0297 -0.0745
 6680W        W21811   0.202  11.381   0.058  0.2694 -0.0943 -0.0590
 6681W        W21812   3.040  13.192  13.072  0.1376 -0.0544  0.1484
 6682W        W21813   6.970   7.649  16.929 -0.1023  0.0451  0.1131
 6683W        W21814  15.440   0.605   6.678 -0.1011 -0.3606 -0.2988
 6684W        W21815   5.513   9.330  12.488  0.0797  0.0790  0.1882
 6685W        W21816  12.173  10.756   2.237  0.0366 -0.2647 -0.0674
 6686W        W21817   3.662   7.338   3.609  0.0146  0.0146 -0.1648
 6687W        W21818  12.060  14.047  16.370  0.0730 -0.2514 -0.0768
 6688W        W21819  17.550  10.724  16.640 -0.1143 -0.2160  0.3188
 6689W        W21820  15.712   9.079   2.945 -0.0764 -0.0577 -0.1097
 6690W        W21821  13.642   3.928  10.714  0.0630 -0.1441  0.0513
 6691W        W21822   7.385  16.624   1.517 -0.2664  0.1254 -0.1100
 6692W        W21823   3.073  13.217  14.692 -0.1506  0.3553  0.1380
 6693W        W21824  14.695  16.658  15.526 -0.0152 -0.0626 -0.2990
 6694W        W21825   7.483  12.798   1.338 -0.2113 -0.1591  0.2306
 6695W        W21826  14.637   1.070  16.910  0.0489 -0.1568 -0.1471
 6696W        W21827   9.447  15.996   2.387 -0.1596  0.4428 -0.3140
 6697W        W21828   2.800   3.841  14.797  0.3840  0.3009 -0.0585
 6698W        W21829   9.323   0.785   1.066 -0.0216  0.0381 -0.2127
 6699W        W21830  13.493  15.130  13.859 -0.1372 -0.1061 -0.1160
 6700W        W21831   4.803  14.704   1.078  0.0812 -0.1887 -0.4182
 6701W        W21832   1.355  16.094  12.984  0.2055 -0.2401  0.0951
 6702W        W21833  11.262   8.785  15.671  0.1278  0.0989  0.2547
 6703W        W21834   5.782   3.099  12.937 -0.2665 -0.1053 -0.0966
 6704W        W21835  15.250   9.486  13.898 -0.1659  0.0430  0.0131
 6705W        W21836   7.710   2.674  16.727 -0.1075 -0.0048  0.0166
 6706W        W21837   5.529  15.674   3.327  0.0181  0.0391  0.0940
 6707W        W21838  14.679  16.275  13.046 -0.1518 -0.2976 -0.1414
 6708W        W21839  14.319   6.382   4.394  0.1846 -0.1244 -0.0654
 6709W        W21840   6.309  12.073  12.485 -0.1300  0.2116 -0.0416
 6710W        W21841   7.810  17.405   1.382  0.1613 -0.2508  0.0816
 6711W        W21842  16.350  17.680   0.846  0.1349  0.1507 -0.1182
 6712W        W21843   9.119  17.712  16.681  0.0075 -0.2736  0.1963
 6713W        W21844   8.575  11.041   1.349 -0.1060  0.2215 -0.1876
 6714W        W21845  16.173  16.618   1.804  0.0523  0.0217  0.0504
 6715W        W21846  13.240  10.790  13.391  0.0580 -0.0060 -0.1743
 6716W        W21847   0.864   9.690  14.390  0.0869 -0.0776 -0.0898
 6717W        W21848  13.000   7.451  11.222 -0.1699  0.3967 -0.0359
 6718W        W21849  10.542  10.128  12.138  0.1103  0.0819 -0.0932
 6719W        W21850  12.599  14.382  14.657 -0.0645  0.0779  0.0149
 6720W        W21851   2.469  15.398   5.923  0.1188 -0.0923 -0.0007
 6721W        W21852   6.049   6.723  16.783 -0.1574  0.0138 -0.0804
 6722W        W21853  10.424  14.817  13.863  0.0516 -0.1766  0.3010
 6723W        W21854   6.555  10.910  11.831  0.0771  0.1259 -0.0529
 6724W        W21855   8.072   8.946   5.742 -0.0571  0.0883  0.1328
 6725W        W21856   4.613  12.785  16.268 -0.1869 -0.3127  0.0617
 6726W        W21857   0.550   6.998  16.504  0.2372 -0.1705  0.2122
 6727W        W21858  12.261   1.144   1.140 -0.0179  0.2440  0.1982
 6728W        W21859   1.155   3.875   4.482 -0.0046 -0.2287 -0.0622
 6729W        W21860   3.692  11.626   4.261  0.1654 -0.0758 -0.0908
 6730W        W21861  10.232   0.249  15.224  0.0118 -0.0673  0.1513
 6731W        W21862  17.122  16.476   2.223  0.0669  0.0702 -0.0554
 6732W        W21863   3.311   7.584   1.263  0.0099 -0.1944 -0.0308
 6733W        W21864   0.665  17.513  15.055 -0.0949 -0.1599  0.1621
 6734W        W21865   9.197   1.766  10.936  0.2014  0.2158 -0.1406
 6735W        W21866  14.284  13.049  14.126 -0.2092  0.0885 -0.0343
 6736W        W21867   3.645  15.953  15.509 -0.0237  0.1446 -0.0131
 6737W        W21868   7.367   6.838   0.191 -0.0118 -0.0211  0.1424
 6738W        W21869   0.358   5.838   2.273  0.1577  0.2710 -0.0882
 6739W        W21870   2.660  12.404  12.553  0.1183  0.1460 -0.0544
 6740W        W21871   7.334   1.945  15.279 -0.0282  0.0564  0.2747
 6741W        W21872   1.479   5.632  16.612 -0.1048  0.1055 -0.0031
 6742W        W21873   9.744   3.994  12.131 -0.2249 -0.0395  0.3236
 6743W        W21874  17.203   3.063   4.163 -0.0358 -0.0262 -0.5402
 6744W        W21875   3.870   6.328   0.940 -0.2578 -0.1457  0.3278
 6745W        W21876   6.906   6.695   0.115  0.3489 -0.0130  0.0332
 6746W        W21877  12.563   9.992   3.554  0.2151  0.0377 -0.2449
 6747W        W21878   3.912   0.741   5.235  0.0627  0.2875 -0.0672
 6748W        W21879   3.859   3.015   0.404 -0.2017  0.0328 -0.2516
 6749W        W21880  12.458   9.296   0.852 -0.0354 -0.1655 -0.0265
 6750W        W21881  10.455   4.631  12.057 -0.0715 -0.0165 -0.1859
 6751W        W21882  14.856   4.253   5.258  0.2953 -0.0041  0.0640
 6752W        W21883   8.853  15.169  15.866  0.2819 -0.1081  0.2110
 6753W        W21884  16.383   6.187  13.613  0.2792  0.0124  0.3283
 6754W        W21885   2.256   0.394   4.923  0.2018 -0.0612  0.1026
 6755W        W21886  15.171   8.717   1.878  0.0043 -0.1359 -0.0759
 6756W        W21887   4.855   7.496  16.017  0.0198 -0.1444  0.1024
 6757W        W21888   9.346  17.188   0.498 -0.0634  0.1244  0.0485
 6758W        W21889   8.114   7.798   4.973  0.0231 -0.1062 -0.0301
 6759W        W21890  14.660  15.770  16.066 -0.0219  0.2148 -0.1264
 6760W        W21891   4.141   8.521  13.639  0.1060  0.2008 -0.1812
 6761W        W21892   3.894  12.526  15.696  0.1185 -0.1373 -0.1638
 6762W        W21893  11.332   5.160  14.802  0.2674 -0.1332  0.0962
 6763W        W21894   5.686   0.346   5.119 -0.1855 -0.1509  0.4232
 6764W        W21895  11.223  12.246   2.925 -0.1342 -0.1248  0.4271
 6765W        W21896  13.252  11.968  16.138 -0.0299  0.0980 -0.0230
 6766W        W21897   9.654   3.574  14.568  0.2615 -0.1156 -0.0209
 6767W        W21898  15.109  17.677  14.296  0.1676 -0.0217 -0.2560
 6768W        W21899  13.844   7.225   4.278 -0.2385 -0.0772 -0.0212
 6769W        W21900  13.670  13.297  16.923  0.3775  0.1158  0.2498
 6770W        W21901  17.535   0.969  13.128  0.1336  0.0957  0.1165
 6771W        W21902   1.425   2.143  13.103  0.1790 -0.1988  0.1434
 6772W        W21903   4.212  13.115   3.807 -0.3791  0.1353 -0.1457
 6773W        W21904   9.175   3.307  12.467 -0.5844 -0.2109 -0.0598
 6774W        W21905  10.078  13.206   3.723 -0.1568  0.1014  0.0236
 6775W        W21906   2.028  16.666   2.145 -0.1049  0.2754  0.0642
 6776W        W21907  12.818   3.162   1.390 -0.0195 -0.0629 -0.2211
 6777W        W21908   6.155  14.563   4.933 -0.1298 -0.2654 -0.1688
 6778W        W21909  10.577   3.185  13.444  0.0442  0.1124  0.2197
 6779W        W21910  14.171   8.795  12.676  0.0276 -0.2149  0.0907
 6780W        W21911  10.503   4.877   4.606 -0.0166 -0.0076  0.2858
 6781W        W21912   6.331  16.712  14.756  0.1992 -0.0835 -0.1477
 6782W        W21913  15.365   1.601  11.858  0.0787 -0.0921 -0.0174
 6783W        W21914   8.503  16.049  14.771 -0.3162  0.3486 -0.0362
 6784W        W21915   3.095  15.488   1.781 -0.2977 -0.1060  0.2812
 6785W        W21916   0.029   9.861  15.658  0.1684 -0.1727 -0.0768
 6786W        W21917  14.074   7.239   1.182  0.2438 -0.1620  0.1567
 6787W        W21918   7.758   3.934  16.249  0.4065  0.1771 -0.1907
 6788W        W21919  11.033  13.780   5.599  0.1433 -0.2027 -0.1616
 6789W        W21920   3.481   8.315   4.561 -0.1884 -0.1999  0.2023
 6790W        W21921   2.751   8.041   0.973 -0.0316  0.0071  0.3058
 6791W        W21922  10.868  12.205  12.090  0.2270 -0.1532  0.1340
 6792W        W21923   3.112   0.413  14.399 -0.0363 -0.1626  0.0579
 6793W        W21924   2.284  14.153  12.340 -0.1029  0.2573  0.4352
 6794W        W21925   2.065  17.411   5.681 -0.0220 -0.0370  0.2790
 6795W        W21926   6.825   1.263   1.586 -0.1022  0.0494  0.0717
 6796W        W21927  14.599  17.164   2.024  0.1809 -0.1416  0.0981
 6797W        W21928   2.346  16.004   4.907 -0.2414  0.0500  0.2586
 6798W        W21929  10.669   6.082   5.068  0.1498  0.0924 -0.2190
 6799W        W21930   5.295  11.262   4.620 -0.0404  0.1278  0.1319
 6800W        W21931   2.208  14.471  15.503  0.2018  0.1479 -0.2884
 6801W        W21932   3.364   7.864  16.169  0.0562  0.1445  0.1464
 6802W        W21933  13.623  15.401   4.498 -0.1632  0.0193 -0.3589
 6803W        W21934   2.466   8.721   3.931 -0.0529 -0.1028 -0.0763
 6804W        W21935  14.847  13.565   0.981  0.0079 -0.1286  0.1039
 6805W        W21936   0.278  12.034  13.465 -0.3762 -0.2775 -0.0353
 6806W        W21937  16.067   3.251  16.434  0.3202  0.1615  0.0976
 6807W        W21938  11.143   3.111  12.578 -0.0931 -0.0550  0.3916
 6808W        W21939   6.314  10.503  15.185 -0.0102 -0.0935  0.2491
 6809W        W21940  11.263   8.237  15.704  0.0149  0.2717 -0.0311
 6810W        W21941   6.837   3.011  16.676 -0.3323 -0.2386 -0.1377
 6811W        W21942   3.534  15.561  11.139  0.3488 -0.0862  0.1079
 6812W        W21943   8.758   6.202   1.754 -0.3092  0.1042  0.1411
 6813W        W21944  11.564   9.062  14.309  0.2125  0.0539  0.2147
 6814W        W21945   6.648  17.702  13.282 -0.1288 -0.1120 -0.0934
 6815W        W21946   7.122  12.343   4.705  0.1549  0.1185  0.0078
 6816W        W21947   7.780   1.692   0.664 -0.0261  0.0741 -0.2030
 6817W        W21948   9.819  11.534  15.679  0.0904 -0.3321  0.0257
 6818W        W21949  12.385   4.492  11.818 -0.0546  0.1267  0.1051
 6819W        W21950   6.491  12.566  13.030  0.0207 -0.1521  0.1113
 6820W        W21951  16.301   4.447   0.272 -0.2280 -0.1834  0.0694
 6821W        W21952  11.340   4.719  12.653 -0.2265 -0.2233 -0.2609
 6822W        W21953  12.593   6.335  14.466 -0.0762 -0.2173  0.0809
 6823W        W21954   4.875   3.821  11.772  0.0150  0.2927 -0.2530
 6824W        W21955   4.518   7.556  11.436 -0.2651  0.0778 -0.1933
 6825W        W21956  11.235   2.181   3.469  0.1750  0.3434 -0.2170
 6826W        W21957   1.086   3.007  12.325 -0.0887  0.2697  0.2688
 6827W        W21958   6.002  17.618  14.838 -0.2070  0.0797  0.0091
 6828W        W21959   5.969   2.439   5.284 -0.2095 -0.0619 -0.4080
 6829W        W21960  12.830   7.352  14.027  0.3239  0.1025  0.0044
 6830W        W21961   4.915  16.466  12.605 -0.0020 -0.0130  0.0484
 6831W        W21962  16.225   8.573   4.328  0.0787  0.4570 -0.3432
 6832W        W21963   5.946   2.733   1.337  0.0220 -0.1719 -0.0561
 6833W        W21964  16.997  11.830   4.439  0.0388 -0.1913  0.0476
 6834W        W21965   8.808  11.269  13.345 -0.2148  0.0456 -0.0846
 6835W        W21966   9.717  16.564  14.993 -0.2758  0.0231  0.1407
 6836W        W21967  14.016   4.069   1.990  0.1761  0.0005  0.0875
 6837W        W21968   8.325  17.610   3.766  0.1226  0.0696 -0.1468
 6838W        W21969   7.363   6.856  13.759  0.0193 -0.2393 -0.0057
 6839W        W21970   6.169  12.207  15.465 -0.1917  0.0443 -0.1535
 6840W        W21971   4.663  11.002   5.218 -0.0086 -0.0015 -0.1470
 6841W        W21972   1.041   8.198   0.970  0.3334  0.2929 -0.1925
 6842W        W21973   6.082   9.075  16.412  0.0555  0.0380  0.2317
 6843W        W21974  11.473   2.283   0.911  0.0160  0.4562 -0.1186
 6844W        W21975  10.151   3.899  13.874  0.0683  0.0036  0.1689
 6845W        W21976  12.792   1.831   1.229 -0.0258 -0.0021  0.0865
 6846W        W21977   2.944   7.036   3.212  0.1407 -0.1948 -0.3802
 6847W        W21978  14.042   0.661   1.240  0.0506  0.0698  0.1843
 6848W        W21979   8.439  16.348   2.309 -0.3290 -0.1698  0.0025
 6849W        W21980  13.748  16.699  14.103  0.0247  0.1779 -0.2232
 6850W        W21981   4.591   2.696   4.781 -0.2162  0.0427  0.1107
 6851W        W21982  16.656   5.651   1.053  0.2421  0.2223 -0.0686
 6852W        W21983  16.010   6.539   0.628  0.0755  0.0709 -0.0412
 6853W        W21984   9.686   5.366   2.738  0.1330 -0.1310  0.0206
 6854W        W21985  13.595  10.103  12.916 -0.3685  0.1975  0.1033
 6855W        W21986  13.977   8.854  13.548 -0.0231  0.1384 -0.0703
 6856W        W21987  13.593   2.924  12.881 -0.2542  0.1166  0.1995
 6857W        W21988  12.637  10.675  12.743 -0.2938  0.2705  0.0130
 6858W        W21989   3.935   5.972  14.694  0.1060  0.3298  0.0608
 6859W        W21990   4.702  11.701  12.093  0.1402 -0.2819 -0.1157
 6860W        W21991   3.976  15.482  12.879  0.0497  0.2178  0.1092
 6861W        W21992   0.164   1.810  14.090 -0.2317 -0.1296 -0.2917
 6862W        W21993   0.703   0.164   2.188  0.0884 -0.0093  0.1872
 6863W        W21994   8.334  15.336   5.461 -0.1280 -0.0815  0.0720
 6864W        W21995  13.897   0.067  15.766  0.0790  0.1190  0.1060
 6865W        W21996   7.282  11.105  14.396 -0.2224 -0.0156  0.3094
 6866W        W21997   1.917   3.730  14.975 -0.0492 -0.1517  0.0752
 6867W        W21998   4.802  13.941  15.773 -0.0181  0.0920  0.2442
 6868W        W21999   1.410   2.151   4.332  0.1207  0.0633 -0.0642
 6869W        W22000  14.055  14.029  14.174 -0.0062 -0.2510 -0.0910
 6870W        W22001   9.014   1.361   4.871 -0.3236 -0.1162 -0.1281
 6871W        W22002   3.591   2.467   0.341 -0.1633 -0.0195 -0.0695
 6872W        W22003  12.635   9.672  11.394  0.2800  0.0856  0.1467
 6873W        W22004  11.521   1.127   5.485 -0.0115  0.0915 -0.0717
 6874W        W22005   3.718   2.297   3.065  0.0359  0.1688 -0.1916
 6875W        W22006  11.237   7.828  14.230 -0.1463 -0.0756 -0.1276
 6876W        W22007  17.567  15.438   2.553  0.2782  0.0404  0.0453
 6877W        W22008  17.176   0.079  12.244  0.2902  0.3056 -0.1048
 6878W        W22009   9.541   3.708  15.064  0.0390 -0.0996  0.0780
 6879W        W22010  10.720  15.888   4.311  0.0681  0.0740  0.1165
 6880W        W22011   2.774   6.636   2.190 -0.0493 -0.1986 -0.2547
 6881W        W22012  15.907  17.525  12.173  0.1471 -0.2121  0.0761
 6882W        W22013   3.975   1.859   1.601  0.4409  0.0060  0.2555
 6883W        W22014  17.250   2.909   2.708  0.2951  0.3101  0.0903
 6884W        W22015  15.157  10.954   5.131  0.2592  0.1176 -0.1536
 6885W        W22016   9.807  11.737   4.369  0.2160  0.4416 -0.4318
 6886W        W22017   7.147  16.977   5.464 -0.0018 -0.2803  0.3616
 6887W        W22018  14.471   9.693   0.596  0.2464  0.1537  0.2271
 6888W        W22019   8.626  12.122   5.037  0.0155  0.0135 -0.0515
 6889W        W22020   3.029   6.067  12.751  0.2224  0.0514 -0.0648
 6890W        W22021   8.348   7.702  13.841 -0.1245 -0.2033  0.1284
 6891W        W22022  12.699  17.593   6.023 -0.2807  0.1830 -0.0661
 6892W        W22023  13.559   9.366  13.604 -0.3030  0.1907  0.1898
 6893W        W22024  17.086  15.111  13.714 -0.2009 -0.1696 -0.1904
 6894W        W22025   6.351   3.446  16.264 -0.2609 -0.1193 -0.0709
 6895W        W22026  12.176   1.689  15.453  0.1667 -0.0402 -0.2051
 6896W        W22027  16.464  14.822  12.947 -0.0060  0.1280 -0.1288
 6897W        W22028  12.980   9.078   5.305 -0.0196  0.1044  0.3564
 6898W        W22029  12.331   0.864   3.494 -0.0818 -0.1135 -0.1307
 6899W        W22030   8.375  17.401  13.593  0.0634 -0.0828 -0.2118
 6900W        W22031   4.498  14.705   5.951  0.0118  0.0383 -0.1668
 6901W        W22032   7.534   4.652   0.903  0.2534  0.0802  0.3230
 6902W        W22033  11.994  17.323   1.868 -0.0381 -0.2686 -0.0056
 6903W        W22034  16.947  14.196   2.404  0.0941  0.0462  0.2547
 6904W        W22035  15.061  10.890  13.463 -0.0337 -0.0361 -0.0404
 6905W        W22036   5.631  15.994  12.742  0.1103 -0.0605 -0.0494
 6906W        W22037   2.010   7.198   2.353  0.0463  0.2031 -0.0294
 6907W        W22038  11.224   4.725   1.260 -0.1189 -0.1383  0.2369
 6908W        W22039  14.523   5.726   1.957  0.3537  0.3259 -0.0353
 6909W        W22040  14.171   6.477  12.111 -0.0280  0.0863 -0.2758
 6910W        W22041   1.025  16.895  13.492  0.2369 -0.0545  0.0265
 6911W        W22042  17.449  12.168  16.207 -0.0154 -0.1368 -0.0801
 6912W        W22043   1.233  16.324  16.612 -0.0999  0.0586  0.0989
 6913W        W22044   0.727   5.396   1.188 -0.0612 -0.1055  0.0570
 6914W        W22045   2.725  11.012   1.555  0.1343  0.2057  0.2259
 6915W        W22046  16.142   1.900   3.773 -0.2633  0.0025  0.1888
 6916W        W22047   3.465  14.740   1.627  0.0118  0.0594 -0.2483
 6917W        W22048  16.098   5.867   4.309 -0.2233 -0.1031 -0.2191
 6918W        W22049   0.169   1.252  12.313  0.3324  0.1022 -0.2095
 6919W        W22050   9.509   5.169  14.737 -0.1428 -0.2987 -0.0794
 6920W        W22051   7.149  12.490   3.511  0.1361  0.1387 -0.0303
 6921W        W22052   3.753   9.613  12.372  0.0210  0.0504 -0.2322
 6922W        W22053  16.582   1.424   4.632 -0.0868 -0.0310  0.0472
 6923W        W22054  11.358   8.228  11.381  0.1544  0.0895 -0.1679
 6924W        W22055   8.590   8.669   4.244 -0.1003  0.1358 -0.0627
 6925W        W22056  15.256   3.066   4.944 -0.0911  0.0419  0.1876
 6926W        W22057   9.142   4.404   5.641  0.1265 -0.0254  0.1054
 6927W        W22058  12.110   9.723   4.482  0.0707  0.3051  0.1538
 6928W        W22059   4.027   1.128  16.360 -0.1813  0.0259 -0.0458
 6929W        W22060  10.976   5.068   3.389 -0.0163 -0.0121  0.2160
 6930W        W22061   6.182   1.630  14.418 -0.1240  0.0425 -0.3345
 6931W        W22062   1.280   9.778  11.812  0.0524 -0.1567  0.0426
 6932W        W22063   6.730  16.874   5.213  0.1037  0.1813  0.1768
 6933W        W22064   2.650   7.985  16.609  0.1872 -0.0525 -0.0804
 6934W        W22065  13.067   5.445   3.225 -0.0953 -0.2177  0.1981
 6935W        W22066   3.271   6.596  11.921  0.3818  0.0058  0.0129
 6936W        W22067   0.092   1.565  14.629  0.2320 -0.0378  0.2959
 6937W        W22068   7.054   3.553   1.647 -0.0123  0.0855  0.1219
 6938W        W22069   2.546  16.943   4.079  0.0127  0.0232  0.0181
 6939W        W22070   6.068   3.579   3.810  0.0940  0.1567  0.0642
 6940W        W22071  14.418   0.585  16.255 -0.2566 -0.1249  0.0425
 6941W        W22072   6.874   0.988   4.979 -0.0148  0.1150 -0.1898
 6942W        W22073  15.593  17.255  11.873 -0.0887  0.2145 -0.1838
 6943W        W22074   4.895   0.364   3.799 -0.1689  0.1320  0.1054
 6944W        W22075   8.583  15.820   5.695  0.1537 -0.1689 -0.0429
 6945W        W22076   3.457  17.531  16.196 -0.2240 -0.2277  0.0362
 6946W        W22077   7.686   1.212   4.003  0.0096  0.2468 -0.1887
 6947W        W22078   6.053  10.196  11.368 -0.2089 -0.1094 -0.0233
 6948W        W22079  16.675  15.907  13.980  0.0231 -0.1368 -0.1374
 6949W        W22080   9.249  16.520   2.668 -0.0548 -0.0598  0.2611
 6950W        W22081   6.106  14.304  15.436  0.4254  0.0814 -0.2936
 6951W        W22082   0.471  14.203   1.515  0.0390 -0.0231  0.0139
 6952W        W22083  16.261  13.942   6.050  0.2010 -0.0681  0.1491
 6953W        W22084  10.995   3.277  15.409  0.2721  0.0834 -0.0780
 6954W        W22085  15.526  11.779   1.396  0.0920 -0.1058  0.2400
 6955W        W22086   1.501  13.344  16.023  0.2314 -0.1317 -0.0174
 6956W        W22087   9.050   5.488  11.184 -0.2826 -0.2130 -0.1646
 6957W        W22088   0.182  15.445  13.218  0.0543 -0.1516 -0.1745
 6958W        W22089   3.733   6.854   1.767  0.1645 -0.1481 -0.1229
 6959W        W22090   6.271  16.542   3.777  0.1997  0.1149  0.3213
 6960W        W22091   8.539  15.346   0.694  0.1604 -0.0209 -0.0429
 6961W        W22092  12.008   8.873  14.142 -0.1139  0.3917 -0.1417
 6962W        W22093  17.027  10.618   1.764  0.0491 -0.0760 -0.1237
 6963W        W22094   1.528   1.664  11.309 -0.2424  0.0121 -0.1816
 6964W        W22095   3.129   4.753   1.260  0.2063 -0.1111  0.0304
 6965W        W22096   7.028   0.069   3.727  0.1240  0.2119  0.1742
 6966W        W22097  13.865   6.467   2.446 -0.0471 -0.1677  0.1220
 6967W        W22098   0.892   8.855  14.199 -0.0124  0.0590  0.0658
 6968W        W22099   6.940   6.024  12.252  0.1864  0.0380  0.2696
 6969W        W22100  11.326   0.596  15.441 -0.0210 -0.2435 -0.0006
 6970W        W22101   6.846   7.607   4.863  0.1425 -0.0856 -0.0779
 6971W        W22102  12.438   3.937   3.238  0.4088  0.0545  0.0543
 6972W        W22103  10.905   7.779  10.398 -0.0826  0.1053  0.0264
 6973W        W22104   7.911  13.431   4.538 -0.3126  0.0535  0.1013
 6974W        W22105   1.799   9.075   1.365 -0.0886  0.1373 -0.0912
 6975W        W22106   3.200  16.426  12.079 -0.0951 -0.0299 -0.1235
 6976W        W22107  13.473   3.625   0.847 -0.2424 -0.0478  0.0238
 6977W        W22108  15.351   5.990   5.079  0.0728  0.0844 -0.1096
 6978W        W22109   0.028  15.759   1.176  0.2724 -0.0200 -0.0416
 6979W        W22110   9.853  13.457   5.521 -0.0536 -0.2335 -0.0025
 6980W        W22111   4.555  14.053   5.629 -0.5007  0.1017 -0.1255
 6981W        W22112   6.516   2.352  12.256  0.4306 -0.0127  0.1069
 6982W        W22113   6.103   4.214   1.832  0.0011  0.2955 -0.0112
 6983W        W22114  13.850   0.610   2.189  0.2213 -0.2362  0.2001
 6984W        W22115   4.348  13.205  15.280 -0.0659  0.0551 -0.3344
 6985W        W22116   5.685   2.195   5.662  0.0477  0.1837 -0.0918
 6986W        W22117  15.106  14.047   0.849  0.0032  0.1227  0.0931
 6987W        W22118   3.541  13.335   0.082 -0.0109  0.1568  0.2406
 6988W        W22119   7.065  10.491  12.422 -0.0505 -0.1502  0.2287
 6989W        W22120   7.529  10.175   1.770  0.0573  0.0147  0.1145
 6990W        W22121   7.556  13.847  12.638  0.0796 -0.0722 -0.2932
 6991W        W22122  15.194   3.241  15.396 -0.1392 -0.1434  0.0661
 6992W        W22123   5.849   6.178   1.912 -0.0077 -0.0547  0.1475
 6993W        W22124  14.862   2.784  16.516  0.1387  0.2736 -0.3640
 6994W        W22125   2.376   8.247  14.686 -0.1552  0.2340 -0.0943
 6995W        W22126  15.075  13.902   4.995 -0.1548  0.2304  0.2419
 6996W        W22127   3.900   2.757  12.330  0.1998 -0.0870 -0.0286
 6997W        W22128   2.277   7.535   0.321  0.1904  0.1330 -0.0249
 6998W        W22129   1.906   5.053   1.741 -0.0401 -0.0802  0.0445
 6999W        W22130   2.497  15.153   0.746  0.1510  0.1285 -0.1793
 7000W        W22131   5.528  12.258   2.982 -0.1337  0.2477 -0.2596
 7001W        W22132   7.994  14.841   4.318  0.3125 -0.0119  0.1923
 7002W        W22133   3.930   7.470  14.460 -0.2329  0.4003  0.1823
 7003W        W22134  15.986   3.361   0.321  0.0054 -0.2555  0.2015
 7004W        W22135   6.584  12.194  15.783  0.0850  0.0924  0.0956
 7005W        W22136  11.457   0.729  16.894 -0.3293  0.2444  0.0585
 7006W        W22137   9.907   7.497   2.470 -0.0471  0.1098 -0.1306
 7007W        W22138   6.013   1.344  10.593  0.2436  0.1492  0.2203
 7008W        W22139  16.227   5.033   1.039  0.0954 -0.2432  0.2919
 7009W        W22140   5.899   4.337  12.519 -0.1116  0.0443 -0.3121
 7010W        W22141   6.071   2.107   1.400 -0.0379  0.0334  0.2205
 7011W        W22142  13.162   1.798   1.604  0.0001  0.0151 -0.0591
 7012W        W22143  14.342  13.041  15.750 -0.0856  0.2451 -0.1529
 7013W        W22144  11.583  16.949   0.761 -0.4442 -0.4909 -0.0269
 7014W        W22145  16.771  11.042  16.051 -0.1108 -0.0715 -0.0541
 7015W        W22146   5.694  14.584   3.416  0.0479 -0.1860 -0.0232
 7016W        W22147  10.812   4.786   3.906 -0.1056 -0.3458  0.0599
 7017W        W22148  16.114   3.726  14.912  0.0414 -0.2836 -0.3251
 7018W        W22149   8.182   3.702  14.509 -0.3437  0.0496 -0.0837
 7019W        W22150   8.171  15.938  11.554 -0.1561 -0.0665 -0.1278
 7020W        W22151  12.809   0.202  13.905  0.0534  0.3253 -0.0383
 7021W        W22152   1.627   1.529  16.879 -0.1541  0.3739 -0.2618
 7022W        W22153  12.980   4.216  12.959 -0.0676 -0.0095  0.1621
 7023W        W22154   4.733  16.276   2.943  0.2874 -0.0716  0.1153
 7024W        W22155   6.801  13.071  14.168 -0.3611 -0.2765  0.1920
 7025W        W22156   3.722   7.988  13.150  0.0797 -0.0383  0.1382
 7026W        W22157   6.046   6.696  12.848  0.1204  0.0400  0.1289
 7027W        W22158  13.639  13.800  13.763 -0.1894 -0.1036 -0.1648
 7028W        W22159  14.736   4.977  14.384 -0.0873 -0.1119  0.1067
 7029W        W22160  16.145   2.140   5.472 -0.0194 -0.3177 -0.0609
 7030W        W22161  12.605   5.121  13.973 -0.0602  0.1228 -0.2445
 7031W        W22162   7.078   2.577  15.705  0.1664  0.0690 -0.1353
 7032W        W22163   9.435   3.598  12.168  0.0969  0.3037  0.0490
 7033W        W22164   3.142   2.129   2.393 -0.0759  0.2245  0.1301
 7034W        W22165   5.222   9.411   0.897 -0.0936  0.1571  0.3055
 7035W        W22166  14.649  14.571   2.437 -0.1099 -0.0644 -0.0665
 7036W        W22167   8.251  11.896   2.212  0.0386 -0.0900 -0.0062
 7037W        W22168   3.926   0.455   4.130 -0.2517  0.1294 -0.2475
 7038W        W22169  11.869   5.919   4.725 -0.0607  0.0699 -0.1141
 7039W        W22170  15.390   0.823   4.285 -0.2899  0.0423  0.0758
 7040W        W22171   0.601  12.214  13.968 -0.2546  0.0483  0.0232
 7041W        W22172  11.618  12.155  16.501 -0.0802  0.1051 -0.0949
 7042W        W22173  16.586  14.591   4.106 -0.0234 -0.0158  0.0220
 7043W        W22174  13.294   8.909   3.297  0.1345 -0.1146  0.0587
 7044W        W22175  14.303  12.066  16.133  0.0597 -0.2997 -0.1618
 7045W        W22176   3.148  10.133   1.986  0.2310 -0.0334 -0.0211
 7046W        W22177  16.228  17.213  13.367  0.2372 -0.3833 -0.4327
 7047W        W22178   0.875   3.057  10.160  0.5103  0.2866 -0.0534
 7048W        W22179  15.202   8.855  15.275 -0.0324 -0.1694 -0.0330
 7049W        W22180  10.480   1.817   0.118  0.0219 -0.0066  0.3021
 7050W        W22181  13.661  14.751   5.107  0.1176 -0.1643  0.0036
 7051W        W22182   8.435  16.761   6.044  0.1085  0.2019 -0.2849
 7052W        W22183  13.124   0.310   5.567  0.1460  0.0659  0.0831
 7053W        W22184   8.517   4.634  16.057  0.0955 -0.0903  0.0977
 7054W        W22185  15.253  11.705   2.174 -0.2766  0.1536  0.0292
 7055W        W22186  15.500  10.230  16.711  0.0165 -0.0790 -0.0327
 7056W        W22187   4.893  12.877  15.260 -0.0555  0.2553 -0.1217
 7057W        W22188  12.993   7.310   0.337 -0.0111 -0.2184  0.1341
 7058W        W22189  13.154  10.806  12.501  0.2442 -0.3658  0.3085
 7059W        W22190   1.967   0.408   3.984  0.0203  0.0287  0.0502
 7060W        W22191  14.011   3.499   0.988 -0.1203 -0.1126  0.0402
 7061W        W22192  14.458   6.829   0.482  0.3514  0.1564  0.0330
 7062W        W22193   2.144  13.066  15.154  0.2219  0.0117 -0.0467
 7063W        W22194  13.038  13.734   4.469 -0.4750 -0.0389  0.1663
 7064W        W22195  16.024   7.672   1.201 -0.0816 -0.0458 -0.0442
 7065W        W22196   3.847   6.002   1.385  0.4126  0.1706  0.3391
 7066W        W22197  14.937   2.368  12.130  0.2842 -0.2054 -0.2121
 7067W        W22198  13.748   6.967  15.959  0.2394  0.0358  0.2371
 7068W        W22199   2.659   9.141  11.440 -0.2022  0.1358  0.0190
 7069W        W22200  10.523   2.344   4.638 -0.0873  0.4770 -0.0673
 7070W        W22201   2.960   0.794   3.608  0.3436 -0.0713  0.0963
 7071W        W22202   8.630   8.062   1.544  0.2631 -0.0332  0.0334
 7072W        W22203   1.812   4.784   4.086 -0.0785 -0.0630  0.4441
 7073W        W22204   4.215  16.349  15.762  0.0925 -0.0935 -0.0688
 7074W        W22205   1.375   0.868  14.984 -0.0925  0.1231  0.0885
 7075W        W22206  10.952  16.756   3.942  0.0917  0.4592 -0.2429
 7076W        W22207   6.861   6.942  16.631 -0.0561 -0.1095 -0.1035
 7077W        W22208  16.431   3.242  15.681 -0.1742 -0.2054  0.2655
 7078W        W22209   6.646  13.748   4.365  0.0091  0.0505 -0.1474
 7079W        W22210  16.362   5.850  11.264  0.2430  0.1836  0.1572
 7080W        W22211  12.175   4.428   3.584  0.1890 -0.0834  0.1571
 7081W        W22212   2.119  16.943  15.880  0.1202  0.0777 -0.0984
 7082W        W22213   9.225  14.713   0.032 -0.0745 -0.2127 -0.0182
 7083W        W22214   0.272  10.293  11.375 -0.0745 -0.3008  0.0924
 7084W        W22215   1.014   8.424  13.951  0.0068  0.0450  0.0034
 7085W        W22216  10.983   2.576   4.533 -0.0575  0.1553  0.0606
 7086W        W22217  11.188   2.152   6.014  0.3007  0.0398 -0.2744
 7087W        W22218   1.848   5.106  15.873 -0.0466  0.3438  0.0432
 7088W        W22219  11.254   7.516  12.021 -0.5728 -0.0414  0.0086
 7089W        W22220   6.142   0.206  15.168 -0.2145  0.1229 -0.1194
 7090W        W22221  14.702   6.148  13.433  0.1087  0.1296 -0.0965
 7091W        W22222   0.064  10.805   2.484 -0.0139 -0.2028  0.0053
 7092W        W22223  15.653   0.806   2.601  0.1714  0.2057 -0.1216
 7093W        W22224  17.059   8.669  14.009  0.0596  0.4190  0.3869
 7094W        W22225   5.472   1.885  16.192  0.3226 -0.0332  0.0264
 7095W        W22226  17.005  11.740  16.887  0.1432  0.1011 -0.0720
 7096W        W22227  16.626  11.639   4.860  0.0766 -0.2101 -0.1388
 7097W        W22228   3.287  15.875  10.705 -0.1635  0.1205  0.1889
 7098W        W22229   4.944  16.193  12.036 -0.0001  0.2770  0.0050
 7099W        W22230   0.602   2.699  11.510 -0.2126 -0.3986 -0.0674
 7100W        W22231   6.234   4.070   1.394  0.0276 -0.1830  0.3004
 7101W        W22232   6.889   2.127   1.952 -0.0584 -0.1915  0.0597
 7102W        W22233   0.545   3.849  16.285 -0.2690  0.1015  0.0447
 7103W        W22234  11.047  13.253  14.562  0.1072  0.2168  0.0218
 7104W        W22235   5.917   3.395   2.809 -0.3546 -0.0716  0.1768
 7105W        W22236  12.127  13.730   1.671  0.0039 -0.1419 -0.3452
 7106W        W22237  13.007   5.445  15.123 -0.3726  0.0001 -0.0837
 7107W        W22238   4.340   9.085  12.817  0.2327 -0.0530 -0.1187
 7108W        W22239   7.719  11.154   0.970  0.2058 -0.1791 -0.1012
 7109W        W22240   1.692  17.498  15.974 -0.3005  0.1916  0.0776
 7110W        W22241   0.308   4.183   2.103 -0.2596 -0.4083  0.1769
 7111W        W22242  15.783  12.447  15.034 -0.1593  0.0129  0.1298
 7112W        W22243  15.441  10.270  15.969 -0.1397 -0.3381  0.1051
 7113W        W22244   0.622   0.144  12.433 -0.0676 -0.2475 -0.0555
 7114W        W22245   0.532   8.722  12.892 -0.2601 -0.1543  0.1887
 7115W        W22246  14.337  12.116   4.205  0.4240 -0.0772 -0.1096
 7116W        W22247  13.553   6.357  11.882  0.1361 -0.0429 -0.1474
 7117W        W22248  10.673  11.455  12.341 -0.0144 -0.0491  0.0901
 7118W        W22249   9.198   2.277  13.588  0.0325 -0.0697 -0.2831
 7119W        W22250  15.028   2.419  16.215 -0.1969  0.3649  0.2348
 7120W        W22251  10.811  10.359  15.156  0.0823  0.2409 -0.1140
 7121W        W22252   4.440   7.787   3.858  0.0979  0.0464 -0.0855
 7122W        W22253   4.851  10.693  14.939 -0.2663  0.2285 -0.2697
 7123W        W22254   2.440   0.133   1.514  0.0542 -0.0866  0.2975
 7124W        W22255   0.080  12.809  16.396  0.0122  0.0616 -0.1712
 7125W        W22256  13.896   7.232  16.319  0.0163  0.2341  0.3083
 7126W        W22257  15.993   3.987  12.694  0.2442  0.1291 -0.1815
 7127W        W22258   5.279   4.013   0.263 -0.2519  0.2489 -0.0160
 7128W        W22259  16.837   3.028  15.475  0.2487  0.1391  0.1324
 7129W        W22260   4.862  16.070   4.406  0.1096 -0.0800  0.0943
 7130W        W22261  11.853   5.247  14.045 -0.0323  0.0404 -0.0882
 7131W        W22262   6.016   1.860   5.440  0.0278 -0.4783 -0.1330
 7132W        W22263  11.469   4.645  16.188 -0.0675 -0.2060 -0.2352
 7133W        W22264  13.326  16.283   4.264 -0.0221 -0.2127 -0.2866
 7134W        W22265   6.768   1.438   0.710  0.1785  0.1211  0.0905
 7135W        W22266  11.195  17.255   4.566  0.0895 -0.3764 -0.1172
 7136W        W22267   4.137   2.948  10.117  0.1766 -0.1877  0.0758
 7137W        W22268   6.104   7.836  12.875 -0.2874 -0.0405  0.1731
 7138W        W22269   4.923  16.378   0.935  0.1939  0.0265 -0.1874
 7139W        W22270  17.015  17.201   6.154 -0.0291 -0.0370  0.0519
 7140W        W22271  17.261   5.078   1.963 -0.0120  0.1229 -0.1051
 7141W        W22272  15.685   8.413   0.453  0.1103  0.3614 -0.2240
 7142W        W22273  15.859   1.616  11.695  0.0038  0.0790  0.1429
 7143W        W22274   5.841   6.451  15.882 -0.2069  0.0221  0.0296
 7144W        W22275   9.476  13.518  11.545  0.2490 -0.1069 -0.0719
 7145W        W22276   2.769  12.949   1.959 -0.1939 -0.0126  0.0042
 7146W        W22277   6.644   2.568   3.822  0.2626  0.1776 -0.0805
 7147W        W22278  17.415   0.128   3.720  0.1395 -0.0948 -0.0606
 7148W        W22279  13.812  15.860  16.499 -0.1842  0.1789 -0.0412
 7149W        W22280  16.084   4.986  12.471 -0.2712  0.0930  0.1284
 7150W        W22281   7.484  10.296   0.261 -0.0012  0.0377  0.0587
 7151W        W22282   9.176  13.472  11.900 -0.3496  0.0657  0.0305
 7152W        W22283  16.019   2.050  14.184  0.0676  0.1745  0.2550
 7153W        W22284   8.785   8.979   6.737  0.0609 -0.0802  0.2136
 7154W        W22285   0.817  15.993  12.937  0.2875  0.0298  0.2743
 7155W        W22286   9.380  12.702  15.459  0.1253 -0.2185 -0.0852
 7156W        W22287   0.449  13.799  11.487 -0.0993 -0.0796  0.0209
 7157W        W22288  15.189   2.536   1.590  0.1202  0.0429  0.0992
 7158W        W22289  16.685  13.031  11.426  0.1519  0.0477 -0.0764
 7159W        W22290   7.973  15.793   1.563 -0.1642  0.1219  0.1762
 7160W        W22291   1.637   3.099   0.518 -0.0555  0.1973  0.0207
 7161W        W22292   9.643  12.412   2.749  0.2066 -0.0104  0.3845
 7162W        W22293  13.293  13.521   2.533  0.0090  0.1108  0.0491
 7163W        W22294  11.500  11.862   3.210  0.1774 -0.2516 -0.2270
 7164W        W22295  12.912  10.188   1.817  0.0588 -0.0731 -0.2462
 7165W        W22296   3.004  15.491   4.032  0.0822 -0.0115  0.2123
 7166W        W22297   4.338   4.708   5.312 -0.0077 -0.0375  0.1882
 7167W        W22298   8.785   2.132  15.322 -0.2544 -0.2788  0.0999
 7168W        W22299   8.108  14.722   2.379 -0.0070  0.3357  0.0845
 7169W        W22300   5.529  12.949   4.906  0.2116 -0.1872 -0.0950
 7170W        W22301   3.648  16.285   5.673  0.1354 -0.1298  0.1763
 7171W        W22302   8.034   8.290   3.595  0.2594 -0.0902 -0.0559
 7172W        W22303   0.280   0.555   0.035  0.0228  0.0182  0.0435
 7173W        W22304   7.679   6.485   1.902 -0.3704  0.2129 -0.0549
 7174W        W22305   3.068   7.183  14.270 -0.2201  0.1030 -0.0629
 7175W        W22306  13.432   6.540   1.430  0.0648 -0.0154  0.3650
 7176W        W22307  11.309  17.256  11.907 -0.1179  0.0507  0.3297
 7177W        W22308  12.459   2.623   3.526 -0.2963 -0.1491 -0.1390
 7178W        W22309  12.043  15.177   4.233  0.0697  0.0921  0.4204
 7179W        W22310  11.229  12.019   4.647 -0.0182  0.0343 -0.2259
 7180W        W22311  13.848   1.448   4.074  0.1437  0.0334  0.1033
 7181W        W22312  11.089  16.217  13.690  0.2811  0.0938 -0.3198
 7182W        W22313  17.041  15.565  14.104 -0.5297  0.0705 -0.0161
 7183W        W22314   8.197   3.886   0.764 -0.2832 -0.1082  0.2478
 7184W        W22315  10.212   8.134  13.926  0.2881 -0.0267 -0.0796
 7185W        W22316   7.608   1.190   4.492 -0.2209 -0.0389  0.1031
 7186W        W22317  13.767   8.425   4.922  0.1006 -0.0793 -0.1123
 7187W        W22318  10.314   4.154  13.023 -0.2859 -0.1206 -0.2238
 7188W        W22319   7.749   0.680  15.821 -0.1025  0.0207 -0.2395
 7189W        W22320  10.548   0.274   3.580 -0.2688  0.2291  0.3632
 7190W        W22321  13.980  16.682   2.501  0.0865 -0.0936  0.1991
 7191W        W22322  10.110  11.009  14.249 -0.1157 -0.0426  0.0718
 7192W        W22323  14.156  13.393   1.900 -0.2916  0.1176 -0.0970
 7193W        W22324   6.739  14.890  15.967  0.1830  0.0289 -0.0960
 7194W        W22325   8.354  14.421  12.242  0.1003 -0.1059 -0.0175
 7195W        W22326   8.361   5.487  13.186 -0.0629  0.1258 -0.1161
 7196W        W22327  14.699  16.674  13.375 -0.0116 -0.3110  0.2746
 7197W        W22328  17.048  13.618   3.296  0.0709 -0.1812 -0.1908
 7198W        W22329  12.319   1.671   5.709 -0.3617  0.0567 -0.1248
 7199W        W22330   5.782   7.442  14.880 -0.2401  0.1683  0.2353
 7200W        W22331  17.140  16.118  14.102  0.0410 -0.1776 -0.1050
 7201W        W22332   1.984   9.383   3.419 -0.1867 -0.0478 -0.2289
 7202W        W22333   5.099   4.271  13.557 -0.1376 -0.1703 -0.0651
 7203W        W22334  15.002   0.244   0.315  0.1592 -0.2287 -0.1066
 7204W        W22335   2.453   8.065  13.663 -0.3400 -0.0729 -0.1087
 7205W        W22336  13.590   7.741  16.919  0.0052  0.2344 -0.2799
 7206W        W22337  12.847   4.158  16.206  0.3291 -0.1446 -0.2631
 7207W        W22338   2.582   9.922  15.774  0.1803  0.0520 -0.3507
 7208W        W22339  16.970  12.313  16.152 -0.2683  0.0150 -0.2998
 7209W        W22340   3.499  11.060  12.013 -0.2350  0.0938  0.1604
 7210W        W22341   5.565   6.243   3.287 -0.1725  0.2423  0.0682
 7211W        W22342  16.333  10.861  15.984 -0.1429 -0.0672 -0.0193
 7212W        W22343  15.236  17.157   3.499  0.0932 -0.1751  0.0095
 7213W        W22344   4.496   8.793   0.478 -0.0019 -0.1582 -0.2897
 7214W        W22345   3.205  11.767  15.274  0.1176  0.0692 -0.0732
 7215W        W22346   2.112  16.808   5.286  0.2746 -0.3152  0.0621
 7216W        W22347   3.218  10.840  12.393  0.2488 -0.1703 -0.0560
 7217W        W22348  15.624   4.040   0.015 -0.0531  0.0438 -0.0452
 7218W        W22349   4.995   1.161   6.010  0.1810 -0.0230 -0.1148
 7219W        W22350   8.420  14.354  10.622  0.0802  0.0581 -0.0727
 7220W        W22351  15.396  13.927  14.231 -0.0925 -0.0554 -0.0020
 7221W        W22352   6.330  16.787  13.097  0.3439 -0.0471  0.0519
 7222W        W22353  15.732   1.370   4.354 -0.1659  0.1486  0.1934
 7223W        W22354  14.239   3.515   2.024  0.1507  0.2761  0.1769
 7224W        W22355   3.092   1.631   4.729  0.1640  0.3773  0.2371
 7225W        W22356   6.422   0.791   3.693  0.2968  0.0299 -0.0041
 7226W        W22357  12.203   5.739   2.026 -0.0613  0.0166 -0.2141
 7227W        W22358   9.930   5.551   4.965  0.0987 -0.0545  0.0189
 7228W        W22359  15.568   0.198  14.379  0.2798 -0.3489  0.2429
 7229W        W22360   7.009   9.073  14.106 -0.0547 -0.0329 -0.0845
 7230W        W22361   6.206  15.677   6.077 -0.2479  0.1759  0.0100
 7231W        W22362  14.645   4.543   4.858  0.0407  0.2120  0.0372
 7232W        W22363  16.526   8.322  15.473  0.0178 -0.2538  0.0724
 7233W        W22364  10.470  10.168  15.970  0.1720  0.1241  0.0177
 7234W        W22365  11.542  13.317  14.500  0.3745 -0.0641  0.1696
 7235W        W22366  15.011   0.699  15.042  0.0778 -0.1933  0.0558
 7236W        W22367  12.991  14.408   1.763 -0.1407  0.1132  0.0421
 7237W        W22368   7.061   6.279   2.580 -0.0548  0.0365  0.1221
 7238W        W22369   9.319  16.366  13.319 -0.1127  0.1067  0.0374
 7239W        W22370  11.721  11.773  14.773  0.1457  0.0236 -0.2297
 7240W        W22371  10.975   3.620  14.674  0.3894 -0.1294 -0.0841
 7241W        W22372  10.163   4.461   5.056  0.3412  0.1596 -0.2618
 7242W        W22373   8.342   8.903  13.776  0.1539  0.1139 -0.0217
 7243W        W22374   4.854   2.331   1.801 -0.2557  0.1702  0.1112
 7244W        W22375   3.595   0.590  14.585  0.0926  0.0481 -0.0898
 7245W        W22376   1.775  17.255   4.150  0.2571  0.0944 -0.4493
 7246W        W22377  11.565  13.075   1.652 -0.0434 -0.2023 -0.1176
 7247W        W22378   6.648   8.840   5.150 -0.0459  0.1826 -0.0082
 7248W        W22379  10.352   1.303   0.235  0.0725 -0.0246 -0.0634
 7249W        W22380  12.000   2.495   1.664  0.4154  0.0766  0.1422
 7250W        W22381   1.095  13.960  15.588  0.0432 -0.0737  0.0202
 7251W        W22382  10.314  17.239   2.292  0.0573 -0.1588  0.0235
 7252W        W22383   4.115   7.007  13.450  0.3534  0.1239 -0.0530
 7253W        W22384   9.171   0.567  13.625  0.1659 -0.1983 -0.2217
 7254W        W22385  10.103  15.689  15.823  0.0380 -0.1020 -0.2325
 7255W        W22386   0.675   0.371   0.547  0.0044  0.2612 -0.0869
 7256W        W22387  11.597  16.048  16.541 -0.2306  0.0097 -0.1247
 7257W        W22388   8.616   1.106   4.596  0.1680 -0.0542 -0.3584
 7258W        W22389   9.281  15.827   1.528 -0.0352  0.1769  0.1054
 7259W        W22390  10.430   4.987  12.856 -0.0661 -0.0074  0.0706
 7260W        W22391   7.999   6.133   1.483  0.0327 -0.0016  0.0589
 7261W        W22392  14.767  13.579   5.545 -0.1386  0.2589 -0.1718
 7262W        W22393  13.559   3.285  14.722 -0.2081 -0.1409 -0.2609
 7263W        W22394   1.067   3.393  11.026  0.3764  0.1158  0.1720
 7264W        W22395   5.083   4.874   2.202 -0.2291 -0.0905 -0.3840
 7265W        W22396   4.154  17.104   2.339  0.0126  0.0455  0.1112
 7266W        W22397   8.920  13.748   0.203  0.0127  0.1338 -0.2057
 7267W        W22398   9.679   4.021   1.681  0.2175  0.0204 -0.1615
 7268W        W22399  14.715   9.609  12.105  0.1881  0.0674  0.2905
 7269W        W22400  17.107  17.095  16.488  0.2519  0.0906  0.0960
 7270W        W22401   9.525  11.212  15.376 -0.1683  0.0552 -0.1625
 7271W        W22402   9.599  16.274   1.617 -0.2960  0.1023 -0.3359
 7272W        W22403  12.654   5.608   2.291  0.0197 -0.0675  0.0103
 7273W        W22404  15.673  11.072   6.131  0.1426  0.0359 -0.3536
 7274W        W22405   9.112  11.048  13.629  0.0328 -0.0719 -0.3489
 7275W        W22406   9.407  14.739   2.431 -0.2235  0.2873  0.0244
 7276W        W22407  10.870  13.272  12.223 -0.0103 -0.0698  0.3848
 7277W        W22408  12.860   3.676  12.796  0.3722 -0.2182  0.0894
 7278W        W22409   3.721  16.850   0.642  0.0529  0.1650  0.2547
 7279W        W22410  14.488   3.101  16.386  0.1756  0.1515  0.2035
 7280W        W22411   0.707   4.990  11.962 -0.2180 -0.0611  0.2970
 7281W        W22412  11.284   6.951  12.629  0.1155  0.0661  0.2469
 7282W        W22413   1.471   3.383   0.946 -0.1576 -0.1138 -0.1825
 7283W        W22414  12.095   5.408  11.878 -0.1497 -0.1107  0.0734
 7284W        W22415   8.763   1.965  12.678  0.1332 -0.2392  0.0341
 7285W        W22416  17.236  13.122  11.327 -0.2183  0.2499 -0.1004
 7286W        W22417   6.195   4.043  11.017 -0.0675  0.0847  0.0195
 7287W        W22418   1.039  11.339   6.118  0.1671 -0.1024 -0.2252
 7288W        W22419   6.983   7.372  16.461  0.1261  0.2372  0.1110
 7289W        W22420   1.141  14.869   4.636  0.0990 -0.1610  0.1300
 7290W        W22421   0.476  12.829   5.838 -0.1824  0.3416 -0.0709
 7291W        W22422   8.133  15.186   2.156 -0.0365 -0.1234 -0.0831
 7292W        W22423   2.857  17.516  15.711  0.1654 -0.0225  0.2045
 7293W        W22424  14.548   7.627  12.561  0.0506  0.0312  0.0658
 7294W        W22425  14.060  14.279  15.893 -0.0789  0.1626  0.0136
 7295W        W22426   0.986  15.655  10.717  0.4615 -0.0803  0.0530
 7296W        W22427  10.827  10.281  16.436 -0.2720 -0.0957 -0.1113
 7297W        W22428   0.467   5.105  16.347  0.0720 -0.1358  0.3226
 7298W        W22429   2.634  14.780   4.418 -0.2121  0.1259 -0.0253
 7299W        W22430   9.614  17.451   1.699  0.4805 -0.0330 -0.0402
 7300W        W22431  12.383   2.197   4.841  0.1296 -0.1575 -0.0496
 7301W        W22432  13.311  15.757  12.215 -0.3655  0.1064  0.0954
 7302W        W22433   4.529   9.103  15.179 -0.2951  0.2906 -0.2052
 7303W        W22434  14.262  14.741   6.233  0.1241  0.2456 -0.1869
 7304W        W22435   2.607  12.028   1.167 -0.1203  0.1088  0.0413
 7305W        W22436  14.774   7.968  13.920  0.1377 -0.0547 -0.2633
 7306W        W22437  10.064   3.540  14.291  0.1591 -0.4510  0.2623
 7307W        W22438   6.366   3.437   4.133 -0.1673  0.0935  0.3708
 7308W        W22439   5.590   3.516   0.207 -0.0167 -0.2352  0.1140
 7309W        W22440  14.243   1.400   5.839  0.0957  0.1104  0.0255
 7310W        W22441   7.898  10.712  15.003  0.1005 -0.2321  0.0148
 7311W        W22442  10.709  11.667  14.378 -0.1608 -0.1484  0.1456
 7312W        W22443   2.802  15.380  12.085  0.2897  0.0011  0.0797
 7313W        W22444   1.451   9.166  14.934  0.1500  0.0527 -0.0154
 7314W        W22445  17.697   7.504  11.182 -0.0657 -0.1888  0.3213
 7315W        W22446   8.510  13.563  16.336  0.0807 -0.0838  0.0142
 7316W        W22447   0.892   4.555  12.737 -0.1931 -0.1536  0.0231
 7317W        W22448   2.649   2.640   4.083 -0.0717  0.1154 -0.0340
 7318W        W22449   0.622   3.910   3.157 -0.3333  0.1916  0.0451
 7319W        W22450   7.704   8.072  15.898  0.0090  0.1855 -0.0866
 7320W        W22451   4.631   2.482   2.585  0.1112 -0.1892 -0.2158
 7321W        W22452   7.882  16.719   3.038  0.1226 -0.1542  0.0435
 7322W        W22453  13.550   3.052   0.227  0.0257 -0.0053  0.1497
 7323W        W22454  16.262   1.621   1.695  0.1035  0.0756  0.2919
 7324W        W22455   4.760  12.512  15.823  0.0884  0.2331  0.2078
 7325W        W22456   4.283   6.277  13.949 -0.0378 -0.0575 -0.1240
 7326W        W22457  16.312  15.400   4.355  0.2600 -0.0817 -0.0494
 7327W        W22458  12.727  12.705  14.565  0.0626 -0.0072  0.2563
 7328W        W22459   6.179   9.753  12.101 -0.0981 -0.1574 -0.1302
 7329W        W22460   7.656   5.025   3.730  0.0726 -0.1237  0.0023
 7330W        W22461   9.661   2.011   1.861 -0.2706  0.0809 -0.1492
 7331W        W22462  14.248  14.777   3.525  0.1051  0.0759 -0.0140
 7332W        W22463  12.430  14.385  11.434  0.1905  0.0970 -0.3285
 7333W        W22464  10.668   2.634   0.527  0.2439 -0.0338 -0.2973
 7334W        W22465   5.848   4.403  16.148  0.1077  0.0462  0.1849
 7335W        W22466  17.606   1.340   4.763 -0.1811 -0.1367 -0.0734
 7336W        W22467   8.645   4.199   5.616  0.1440 -0.4063 -0.1229
 7337W        W22468   9.742  10.392   4.681  0.2466 -0.1630 -0.0237
 7338W        W22469  15.030  13.481  12.719 -0.0980 -0.3610  0.0427
 7339W        W22470  13.478   0.917  14.010  0.0382 -0.1464  0.3088
 7340W        W22471  17.690  11.619  15.331 -0.2089 -0.2795 -0.0100
 7341W        W22472  16.563  17.080  16.641  0.2000  0.0861  0.1485
 7342W        W22473   7.121   4.970   3.949 -0.0239  0.4622  0.2406
 7343W        W22474  11.038   3.667  16.160 -0.0494  0.0592 -0.1097
 7344W        W22475  10.990  11.570   4.791 -0.4354  0.1602 -0.0691
 7345W        W22476  12.827   0.013   3.334 -0.2363 -0.0113  0.0119
 7346W        W22477   6.682  10.295  14.753 -0.0413  0.1235  0.0216
 7347W        W22478  10.750   3.844   3.624 -0.1367 -0.0200  0.0479
 7348W        W22479   9.804  11.299   0.584  0.0307 -0.1975 -0.0323
 7349W        W22480   8.834   5.618   9.979  0.0774  0.3033  0.3954
 7350W        W22481  13.728   5.855  14.080  0.3041 -0.1141 -0.2242
 7351W        W22482  12.287  12.970  11.915 -0.0073 -0.1026  0.0998
 7352W        W22483  13.473  13.822   1.281  0.1374 -0.2511  0.4909
 7353W        W22484   9.764   5.579   3.343  0.1556 -0.0308 -0.0973
 7354W        W22485   4.092  17.604  11.861 -0.0812  0.0713 -0.3512
 7355W        W22486   6.068  12.928   2.967 -0.0080  0.0990 -0.0189
 7356W        W22487  13.294   6.709  13.429 -0.1662 -0.1864  0.0679
 7357W        W22488   0.074   8.162   3.474 -0.1379  0.0916  0.2602
 7358W        W22489   8.726  11.399   0.624  0.1100  0.2297  0.0639
 7359W        W22490   3.161   5.736   0.898  0.3670 -0.4103 -0.0745
 7360W        W22491  10.173   3.136  12.001  0.1881  0.2062  0.0752
 7361W        W22492   5.965  12.423   1.928 -0.2494 -0.3267 -0.2248
 7362W        W22493   2.125  13.556  13.220 -0.0316 -0.2175 -0.2585
 7363W        W22494   9.992   3.130   4.421  0.0608  0.0780 -0.2490
 7364W        W22495   9.137   3.623  16.740  0.0967  0.1463 -0.0490
 7365W        W22496  13.363  16.056  15.317 -0.2548 -0.0471  0.2982
 7366W        W22497  14.252   4.785  11.613 -0.0275  0.1283  0.1100
 7367W        W22498   2.648  16.887   5.519  0.1165  0.2692  0.0554
 7368W        W22499   7.319   6.686  11.221  0.1044 -0.1655  0.0716
 7369W        W22500   6.501  11.207  14.503 -0.0866 -0.0076 -0.4330
 7370W        W22501   7.031   8.681  16.260 -0.1207 -0.0842 -0.2565
 7371W        W22502   0.840  14.303  13.857  0.0864  0.2341 -0.0038
 7372W        W22503   3.136   7.686   3.787 -0.1602 -0.1175  0.0317
 7373W        W22504  13.280   8.604  16.520 -0.0210 -0.1147  0.1568
 7374W        W22505   4.927   0.311   0.608  0.1936  0.1536  0.0899
 7375W        W22506   7.982  15.810  16.868 -0.3587  0.0969  0.1272
 7376W        W22507  13.996   7.512  14.675  0.1045 -0.0134  0.1536
 7377W        W22508   1.557   2.854  12.141  0.2279  0.0797  0.0018
 7378W        W22509   3.157  15.053   5.231 -0.0673 -0.2046  0.2776
 7379W        W22510  17.059   6.706  15.092  0.1813  0.0323  0.0519
 7380W        W22511  16.261   8.209   4.785 -0.0962  0.0383 -0.1778
 7381W        W22512   2.983  17.281  11.723 -0.0710 -0.0584 -0.1589
 7382W        W22513  11.086  14.000   4.461 -0.2024  0.0005  0.2221
 7383W        W22514   5.782  11.118   5.145  0.0220 -0.1247 -0.0844
 7384W        W22515  17.270   4.136  13.344 -0.0362 -0.1426  0.0426
 7385W        W22516   1.051  13.506  15.815 -0.2499 -0.2280 -0.3111
 7386W        W22517   4.597  13.688  13.863  0.2323  0.1926 -0.2456
 7387W        W22518   9.135  12.629  16.535  0.3087 -0.0296 -0.1129
 7388W        W22519  15.542   4.756  11.063 -0.2240 -0.0181 -0.3571
 7389W        W22520   9.977   3.675   0.340 -0.0134 -0.0739  0.2131
 7390W        W22521  16.299  13.254   0.858 -0.0184  0.0058  0.1382
 7391W        W22522   2.819   2.837   5.022  0.0753 -0.0351 -0.2101
 7392W        W22523   1.060  13.748   2.655 -0.1795  0.0178 -0.0390
 7393W        W22524  17.527  15.126  13.457  0.0696 -0.1485 -0.0739
 7394W        W22525  10.896  14.318   2.940  0.1131 -0.0266  0.0752
 7395W        W22526   1.377  15.977   1.085  0.0761  0.1405 -0.3110
 7396W        W22527  11.582   5.377   4.482  0.1664 -0.1114 -0.1199
 7397W        W22528  12.987   9.332   1.321  0.0596 -0.1398  0.1849
 7398W        W22529   4.526  11.929  16.821  0.0114 -0.0750  0.0965
 7399W        W22530  16.367   4.616   2.184  0.0622  0.0788  0.0570
 7400W        W22531   9.544  11.867   2.735 -0.0064 -0.0115  0.3053
 7401W        W22532   8.223   6.456  14.174  0.0150  0.1461 -0.1392
 7402W        W22533   1.765  17.098  16.239 -0.1972  0.0201  0.0518
 7403W        W22534   3.822   8.141   1.839  0.0031  0.1063  0.0291
 7404W        W22535  16.497   4.317   2.921  0.1096 -0.1567  0.3967
 7405W        W22536  16.743   8.547   1.302  0.0551 -0.0027 -0.1367
 7406W        W22537  10.672  13.307   0.528 -0.2137  0.1601  0.1106
 7407W        W22538   0.614  11.451   2.668  0.0440  0.0164 -0.1276
 7408W        W22539   0.953   5.456   3.542  0.2652 -0.0699  0.0713
 7409W        W22540   7.388  12.759  15.390 -0.2743 -0.2155  0.1272
 7410W        W22541   9.870   9.631  14.747 -0.3342 -0.1866  0.0616
 7411W        W22542   3.216   0.576  11.668  0.0248 -0.1109  0.0344
 7412W        W22543   9.605   4.827  11.070 -0.1491  0.1103 -0.1453
 7413W        W22544  16.634   2.124   0.338 -0.0350  0.0827 -0.1396
 7414W        W22545   1.592   8.421  11.540  0.0601 -0.1039  0.0458
 7415W        W22546   3.006  11.968  16.885  0.2135 -0.2139  0.0948
 7416W        W22547   7.576   4.163  12.925 -0.0556  0.0477  0.2431
 7417W        W22548  11.345   1.025   0.943  0.4497 -0.0528 -0.1855
 7418W        W22549   5.925  13.281   6.342 -0.2340  0.4229 -0.1564
 7419W        W22550   0.163  14.800   0.870  0.0214 -0.1568  0.2625
 7420W        W22551  14.108  15.405  13.037  0.0258 -0.0455 -0.0588
 7421W        W22552   2.352   7.904   1.704 -0.0618 -0.1340 -0.3411
 7422W        W22553   7.558  15.966   1.243  0.0129 -0.0567  0.0909
 7423W        W22554  13.245   2.485   2.422 -0.1892 -0.2418  0.1662
 7424W        W22555  11.876   8.480  11.741 -0.0946  0.4871  0.1825
 7425W        W22556   0.265   8.479   2.668 -0.1729  0.0929 -0.1394
 7426W        W22557   1.474   4.379   2.361  0.1365 -0.0201 -0.1929
 7427W        W22558  14.837  13.149  12.120 -0.2050  0.0656 -0.3352
 7428W        W22559  16.247   0.195   1.714 -0.1992 -0.1449 -0.3936
 7429W        W22560   4.398  12.584  12.883 -0.2564 -0.1758  0.3473
 7430W        W22561   7.013  15.231  12.531 -0.0361  0.1314 -0.2778
 7431W        W22562   9.197  14.002  14.411  0.1135 -0.0760 -0.1091
 7432W        W22563  13.939   2.776   3.656 -0.2045 -0.1149 -0.2097
 7433W        W22564  10.622   3.001   3.503 -0.0221  0.8085 -0.1355
 7434W        W22565  12.291   3.990  12.423 -0.0431 -0.1333  0.3083
 7435W        W22566   8.261  14.876   5.660 -0.0385 -0.2384 -0.0935
 7436W        W22567  12.037  15.589   1.397 -0.0296 -0.1379 -0.1476
 7437W        W22568  14.617  16.659  12.483 -0.2806 -0.1060  0.3364
 7438W        W22569  10.869  17.000  16.906 -0.2551 -0.0444 -0.1836
 7439W        W22570  16.631   5.082  14.659 -0.0602  0.0421  0.4399
 7440W        W22571   1.402   8.687   1.321 -0.2171  0.3418 -0.0233
 7441W        W22572  10.403   5.636   4.214 -0.2178  0.2644  0.1026
 7442W        W22573   5.554   5.971  10.987 -0.2639 -0.1909 -0.1372
 7443W        W22574   0.732   3.871  10.988  0.0212  0.2345 -0.1048
 7444W        W22575   1.677  12.036  12.876  0.0010  0.1090  0.2121
 7445W        W22576  17.641   7.096  13.234 -0.1513  0.0009  0.1488
 7446W        W22577   2.623  12.836  13.350  0.0423 -0.2228 -0.0950
 7447W        W22578   3.538   0.670   3.667  0.1783  0.1058 -0.0616
 7448W        W22579  13.859  14.765   0.319 -0.1496 -0.1543  0.0985
 7449W        W22580   9.420   1.124   5.218  0.0668  0.1101 -0.1278
 7450W        W22581  13.201  17.366  16.914 -0.0162 -0.0431  0.0031
 7451W        W22582   2.119   5.280  16.690  0.1322 -0.0356  0.1822
 7452W        W22583   9.538   5.651   5.777 -0.1149 -0.1045  0.0973
 7453W        W22584   4.173   8.312   2.591  0.1893 -0.0884 -0.3114
 7454W        W22585  14.696   9.144  12.302 -0.1877  0.1037  0.0467
 7455W        W22586   1.131  12.354  16.494  0.0359 -0.0761 -0.1789
 7456W        W22587   7.769  11.733   1.011  0.2531 -0.0516  0.0025
 7457W        W22588  17.675   9.359  15.775 -0.0645 -0.0628  0.2810
 7458W        W22589   1.216  13.898   0.546 -0.1606  0.0392  0.1187
 7459W        W22590   9.391   8.129  15.643  0.1510 -0.1880  0.1272
 7460W        W22591  11.806   4.414   6.355  0.1330 -0.0302 -0.0425
 7461W        W22592   7.720   3.882   5.671  0.1678 -0.3873 -0.3365
 7462W        W22593   5.626  11.277   0.177  0.2905 -0.3262  0.1283
 7463W        W22594   2.284   5.294  12.986  0.0196 -0.0574 -0.1300
 7464W        W22595  16.967  12.725   4.231 -0.1337 -0.3961 -0.2137
 7465W        W22596   3.819   4.221   5.551  0.3082 -0.0086 -0.0183
 7466W        W22597   6.130   8.923   2.076 -0.1188  0.1053  0.2331
 7467W        W22598   5.006   7.609   5.418 -0.4064  0.0666  0.1187
 7468W        W22599  15.291   3.655  12.328 -0.0018 -0.0233 -0.0156
 7469W        W22600  17.481   9.091   3.250  0.1094 -0.2208  0.0128
 7470W        W22601  16.304  11.254  14.937 -0.1840 -0.1285  0.2438
 7471W        W22602   0.666   0.802  11.938 -0.1203  0.0098 -0.1178
 7472W        W22603   4.910   9.088  14.839 -0.1259  0.3178  0.0314
 7473W        W22604   0.124  12.554   3.892  0.0423 -0.1592  0.0004
 7474W        W22605  13.126  13.045   2.424 -0.0079  0.3267 -0.0392
 7475W        W22606   9.685   4.043  11.328  0.0953  0.2260 -0.0959
 7476W        W22607   9.737   8.072   3.367 -0.2084 -0.1527 -0.1240
 7477W        W22608   5.522  14.572   4.203  0.1445 -0.0166 -0.0544
 7478W        W22609  13.842   6.740   1.282  0.1707  0.0536  0.1608
 7479W        W22610   9.124  10.894  11.793 -0.0141  0.3437  0.0284
 7480W        W22611   8.430   8.397  12.485 -0.5145 -0.0156  0.0387
 7481W        W22612   6.021   4.268  15.276 -0.0017 -0.0956 -0.1850
 7482W        W22613   1.605   8.740   5.115  0.4351  0.1607 -0.1174
 7483W        W22614   2.602   3.724  11.429  0.0004  0.0194 -0.1237
 7484W        W22615   6.696   2.306  15.920 -0.0612  0.1212  0.1024
 7485W        W22616  12.088   3.950  14.493  0.0026  0.0143  0.0115
 7486W        W22617  13.511   1.473   1.347 -0.2386 -0.1246 -0.0337
 7487W        W22618   4.897  14.656  15.353  0.1398  0.0005 -0.0704
 7488W        W22619  15.734  13.902   1.522  0.0995 -0.0032 -0.0315
 7489W        W22620   4.533   1.114   4.902  0.1271 -0.2008 -0.1332
 7490W        W22621  14.676   8.659   3.398  0.0521  0.1431  0.1638
 7491W        W22622   5.553   5.265   9.920  0.2027 -0.0167  0.0131
 7492W        W22623   2.463   3.507  16.246  0.0547  0.2883 -0.2683
 7493W        W22624  11.610  13.822   5.856 -0.1834  0.0402 -0.2531
 7494W        W22625   3.938   2.701  16.937 -0.0744  0.2048  0.0214
 7495W        W22626   1.664   5.995   1.101 -0.0134  0.0481  0.3721
 7496W        W22627   3.082   1.570   3.081 -0.0072 -0.3511  0.2212
 7497W        W22628   2.760   6.967   4.588 -0.3133  0.1192  0.1524
 7498W        W22629  17.256  12.882  13.259 -0.0283  0.0298  0.1503
 7499W        W22630  16.131  13.487  12.492 -0.0113  0.0364  0.1943
 7500W        W22631   8.531  15.881  16.455 -0.0450  0.1835  0.0309
 7501W        W22632   4.303   5.096   2.606 -0.0692  0.0316 -0.2963
 7502W        W22633  15.689   1.215  12.102  0.1189 -0.0080  0.2062
 7503W        W22634   2.025  14.577   3.762 -0.1922  0.1422  0.1315
 7504W        W22635   5.528   5.052  14.038  0.2587  0.2237  0.1040
 7505W        W22636  10.216   7.773   3.175 -0.0851 -0.4308  0.1930
 7506W        W22637   8.786  15.768  12.265 -0.0375  0.2610  0.1525
 7507W        W22638   5.220  14.549   0.846 -0.0494 -0.0420 -0.0524
 7508W        W22639  12.869   6.034  13.244 -0.2051  0.0852  0.1445
 7509W        W22640   4.622  13.507   3.046 -0.0866 -0.0169  0.1855
 7510W        W22641   9.732   8.980  14.013  0.2698  0.1073  0.2328
 7511W        W22642  13.330  13.480  13.269 -0.0299  0.1041  0.0659
 7512W        W22643  15.682  16.030  13.649  0.1034 -0.0256  0.1152
 7513W        W22644   0.219   8.831  14.145 -0.1886 -0.1614 -0.3797
 7514W        W22645   4.267   3.867   1.598  0.3094 -0.1074 -0.2938
 7515W        W22646  14.895   1.536   2.642  0.0401  0.0313  0.1906
 7516W        W22647  15.297   2.932   0.797 -0.0054 -0.0948  0.2171
 7517W        W22648   1.822  15.739   0.866  0.1368  0.0277  0.1071
 7518W        W22649   7.859   1.530   2.750 -0.2452  0.0038  0.1118
 7519W        W22650   2.409  14.683   0.812  0.2915  0.1850  0.1455
 7520W        W22651   9.256   6.542  10.484 -0.1446 -0.2127  0.1977
 7521W        W22652   1.642   2.242   2.480 -0.0211  0.1329  0.0679
 7522W        W22653  13.630  16.436   2.196  0.1119 -0.3382 -0.1416
 7523W        W22654  13.848   4.226  16.370  0.2457  0.0257 -0.3133
 7524W        W22655  17.099   2.676  11.857 -0.0055 -0.2506 -0.0690
 7525W        W22656   2.993   1.156   4.823  0.2006 -0.3455 -0.0075
 7526W        W22657  15.172   3.748   3.455  0.1095 -0.1708  0.2803
 7527W        W22658  16.748   9.187   1.030  0.1791 -0.0108 -0.0515
 7528W        W22659   8.930  10.821   2.643  0.2942  0.4653  0.1961
 7529W        W22660  10.506   7.801   0.201  0.1930  0.0393  0.1117
 7530W        W22661   8.553   7.870   4.720  0.1615 -0.2037  0.2834
 7531W        W22662   2.683  17.226   2.330 -0.2415  0.0723  0.0183
 7532W        W22663   1.276   9.396   3.900 -0.1413  0.0661  0.0260
 7533W        W22664   2.296  14.711  11.507  0.0998  0.0074  0.1014
 7534W        W22665  15.569  12.999  16.611  0.2854 -0.0296  0.0538
 7535W        W22666   5.217   1.106  15.442 -0.2629 -0.3238 -0.1491
 7536W        W22667   1.219   6.997  12.496 -0.1693 -0.2042 -0.3699
 7537W        W22668   2.595   4.667   1.490 -0.0584  0.0776 -0.1301
 7538W        W22669   6.090  16.704   1.340  0.2128  0.0899  0.1603
 7539W        W22670  12.680   0.054  15.558  0.0333 -0.0496 -0.1422
 7540W        W22671  16.694   5.448  13.461 -0.0752 -0.4220 -0.0035
 7541W        W22672   1.760  16.241   0.888 -0.0555 -0.0097 -0.0935
 7542W        W22673   5.822   9.733  13.391 -0.0872 -0.1138  0.1388
 7543W        W22674   7.472   7.635  11.595 -0.3379  0.0794 -0.0021
 7544W        W22675   2.820   1.153   5.358 -0.1159  0.0512 -0.0372
 7545W        W22676  16.730  11.565  15.901  0.0426  0.0279 -0.1970
 7546W        W22677   1.619   3.763  16.207  0.5612 -0.2121  0.0496
 7547W        W22678  16.533  10.054   3.057 -0.2184 -0.0677 -0.1323
 7548W        W22679  10.523  15.017   6.917  0.0797  0.1353 -0.1287
 7549W        W22680  16.675   5.767   4.889 -0.1366 -0.0503 -0.0834
 7550W        W22681  15.567   5.780   4.697  0.1344 -0.1879 -0.1092
 7551W        W22682  16.663   2.576  14.095  0.2503  0.1351 -0.1750
 7552W        W22683  15.371  15.880   5.910 -0.4376 -0.1403 -0.1027
 7553W        W22684   8.671   3.598  12.807  0.1141 -0.1020  0.0831
 7554W        W22685   6.846   9.647   4.497 -0.1245  0.1943 -0.1843
 7555W        W22686  15.717  16.324   3.608  0.1878  0.4426  0.1283
 7556W        W22687  11.499   2.681  14.879  0.1736 -0.2546 -0.0731
 7557W        W22688  12.580   5.027  14.532 -0.0842 -0.0711 -0.0842
 7558W        W22689  12.940  15.377   5.472  0.2312  0.2250 -0.0415
 7559W        W22690   9.536  12.295  12.442  0.3669  0.0619  0.2931
 7560W        W22691   4.021  13.469   4.933  0.0462 -0.1660 -0.1091
 7561W        W22692   0.405  16.446  14.434 -0.1207 -0.0215  0.0761
 7562W        W22693   9.004   6.671   3.590 -0.4516 -0.0295 -0.1317
 7563W        W22694  15.117   5.863   5.679  0.1342  0.0478  0.2043
 7564W        W22695   9.357   1.213   1.462  0.0667  0.1189 -0.0780
 7565W        W22696   5.424  16.681   5.936 -0.2582  0.0060 -0.1541
 7566W        W22697  12.877   0.110   0.691 -0.1966 -0.1913 -0.1039
 7567W        W22698   4.575   1.960   3.720 -0.2160  0.2206  0.3182
 7568W        W22699   0.896  13.626   5.920 -0.2391 -0.0155 -0.1303
 7569W        W22700  12.628   2.669   5.797 -0.1362  0.0777 -0.1586
 7570W        W22701  15.675   8.310  16.119 -0.1032 -0.3206 -0.0046
 7571W        W22702   3.440   2.962   3.552 -0.1947  0.1939 -0.1433
 7572W        W22703   6.523   2.658  14.533 -0.2421  0.1028 -0.0217
 7573W        W22704   4.485   2.233  12.706  0.4080 -0.0531 -0.2237
 7574W        W22705  10.764  17.425   5.501  0.1498  0.1105  0.1032
 7575W        W22706  10.451  10.621   2.113 -0.0921 -0.0449 -0.1696
 7576W        W22707   9.671   2.340  13.625  0.1488 -0.0285 -0.0176
 7577W        W22708   4.706   4.068  15.725 -0.0880  0.0815 -0.1592
 7578W        W22709  16.853   9.389   3.918  0.0607 -0.1332  0.0053
 7579W        W22710  17.488   0.746   1.502  0.0993 -0.5024 -0.1369
 7580W        W22711   8.018  14.764  12.121 -0.1696 -0.1968 -0.2481
 7581W        W22712   6.448   2.908  12.121 -0.0829 -0.2481  0.2270
 7582W        W22713  13.302  13.364   5.787 -0.1438 -0.2095 -0.3553
 7583W        W22714   8.994   6.885  11.479 -0.1954  0.0220 -0.0923
 7584W        W22715  12.422   9.976  10.659  0.0832 -0.2093  0.1889
 7585W        W22716  13.472   0.153   5.215  0.1607 -0.0103  0.0768
 7586W        W22717   4.141  12.123  16.479 -0.1552 -0.0188 -0.0215
 7587W        W22718  12.027  17.398   5.080 -0.1244 -0.0524 -0.2148
 7588W        W22719  13.554   3.806   1.292 -0.1597  0.0171 -0.0123
 7589W        W22720   5.500   8.296  14.557  0.3225 -0.0107  0.1396
 7590W        W22721   6.850  15.743   3.607 -0.3071 -0.2275  0.0199
 7591W        W22722  11.054  16.362  12.510 -0.0778  0.0011  0.0042
 7592W        W22723   5.489   2.613   3.024  0.2685  0.0332 -0.1491
 7593W        W22724  16.932   7.206  15.005  0.1622  0.1562 -0.2935
 7594W        W22725  11.341  11.457  14.623 -0.3189  0.0589 -0.0308
 7595W        W22726   1.898   1.831   0.787  0.1154  0.0953  0.1144
 7596W        W22727   2.400  16.144  11.696 -0.0386 -0.0923 -0.2835
 7597W        W22728  13.658   9.694   1.151 -0.0123  0.2081  0.0079
 7598W        W22729   4.380  11.022   2.016  0.0537 -0.1151  0.0475
 7599W        W22730  10.799   2.119   2.013 -0.3384 -0.0661  0.2599
 7600W        W22731   8.559   3.410  14.356 -0.0640 -0.5851 -0.1689
 7601W        W22732   2.867   2.222   4.264 -0.0684  0.0133 -0.3424
 7602W        W22733  15.409   7.429   5.914 -0.3716  0.3633 -0.1168
 7603W        W22734  10.840  10.781   4.525 -0.0036  0.0903 -0.1948
 7604W        W22735   5.359   2.100   1.815 -0.1154  0.0695 -0.3062
 7605W        W22736   3.748   4.702   4.069  0.0797 -0.0544  0.0452
 7606W        W22737  10.820   1.133  13.674  0.0228  0.4282  0.0646
 7607W        W22738   3.945   0.970  14.780  0.3150  0.2592  0.2016
 7608W        W22739  11.100  12.203  16.708  0.2021 -0.1885 -0.0271
 7609W        W22740   8.949  14.391  12.219  0.1324  0.1019  0.1083
 7610W        W22741  10.087   1.241  12.170  0.2333  0.0527  0.0497
 7611W        W22742   7.395   2.236   5.086  0.0872 -0.1172 -0.4125
 7612W        W22743   4.862   6.440  14.839 -0.1721 -0.0662 -0.0757
 7613W        W22744  14.817   1.940   0.645  0.2444  0.1644  0.0841
 7614W        W22745  13.054  17.269  12.877  0.3189  0.1737  0.0807
 7615W        W22746   3.343  16.617   2.563  0.1676 -0.3136 -0.0276
 7616W        W22747  12.592   4.795   5.131  0.0971 -0.2682 -0.1766
 7617W        W22748  12.034  17.495   1.358 -0.0255  0.0614 -0.0577
 7618W        W22749   7.897   9.139   4.691 -0.0035 -0.0918  0.2712
 7619W        W22750   4.565   3.706   0.791  0.1653  0.0972  0.2245
 7620W        W22751   4.496  17.009   0.156 -0.0986 -0.2232  0.2559
 7621W        W22752   8.810  17.323  12.376 -0.1931  0.0141  0.3222
 7622W        W22753  15.286  15.939   0.736  0.0643  0.1220  0.1421
 7623W        W22754   3.326   7.803  12.577 -0.0023 -0.0137  0.1988
 7624W        W22755   9.256   8.073   3.088 -0.0184  0.0263  0.0202
 7625W        W22756   7.217   8.695  12.477  0.1846  0.1218  0.0981
 7626W        W22757  15.450   2.889   2.508 -0.1501  0.2474 -0.1406
 7627W        W22758   6.042   7.758   3.962 -0.0076 -0.0124 -0.1190
 7628W        W22759   4.760  15.383   6.208 -0.2432 -0.0027 -0.1395
 7629W        W22760   0.003   1.798   1.656  0.0798 -0.0700  0.0313
 7630W        W22761   7.250  11.843   4.697 -0.1347  0.2277 -0.3853
 7631W        W22762  15.016   0.894  15.589 -0.1413 -0.3124 -0.6393
 7632W        W22763  14.632  14.593   1.828 -0.0439 -0.0994 -0.0380
 7633W        W22764   6.027   4.549   0.614  0.0755  0.1312  0.0306
 7634W        W22765   0.467  12.437   6.536 -0.0509  0.2420  0.1223
 7635W        W22766  12.840   9.719   2.266 -0.0856 -0.2810 -0.3353
 7636W        W22767   6.620  10.864   3.811 -0.1928  0.2815 -0.0928
 7637W        W22768   7.304   6.306   0.279  0.2166 -0.1351 -0.1533
 7638W        W22769   7.314  12.670   0.169 -0.0648  0.0360 -0.2542
 7639W        W22770  11.578   9.138  11.152  0.0371  0.0565 -0.2821
 7640W        W22771  11.943   7.410  11.531  0.4294  0.4492 -0.0385
 7641W        W22772  10.219  10.031   0.381 -0.1383  0.2673  0.0942
 7642W        W22773   2.758  11.257   3.823  0.0376 -0.0057 -0.0455
 7643W        W22774   3.511   0.969  12.876 -0.1002  0.1687 -0.0755
 7644W        W22775   8.989   1.532   5.858  0.1444  0.3568 -0.1045
 7645W        W22776  10.493   1.777   1.580  0.3986  0.1110 -0.2891
 7646W        W22777   9.705   2.421  12.740  0.0545  0.1425  0.1873
 7647W        W22778  15.942  12.420   2.144  0.0730 -0.1005  0.0248
 7648W        W22779  15.515   1.167   4.985 -0.1637 -0.0464 -0.2565
 7649W        W22780  12.795   0.499  12.276 -0.0838  0.1441  0.1207
 7650W        W22781  13.127   2.643  15.104  0.1511 -0.3788  0.1475
 7651W        W22782  11.859  15.728  13.095  0.1999 -0.0113  0.0126
 7652W        W22783  14.019   9.677   4.277 -0.2063  0.0862 -0.3359
 7653W        W22784  13.534   2.463   1.727  0.3501  0.0898  0.2161
 7654W        W22785  17.465   4.184  12.903 -0.1334  0.2342  0.0238
 7655W        W22786   5.970  17.194   0.494  0.0328 -0.0020  0.1568
 7656W        W22787   9.551   7.758  15.268 -0.0708 -0.1298 -0.0469
 7657W        W22788  17.210   0.530   1.871  0.0264 -0.0655 -0.2084
 7658W        W22789   6.687  12.277  14.830 -0.2730 -0.0177 -0.1258
 7659W        W22790   3.071  15.921   4.151  0.1362 -0.2461  0.0963
 7660W        W22791   1.638   8.408  12.143 -0.0559  0.0692  0.2301
 7661W        W22792  12.140   1.197  15.379 -0.2299  0.0629  0.0366
 7662W        W22793  14.420  16.848  16.799 -0.2567 -0.0242 -0.0723
 7663W        W22794  14.707   2.265   5.313 -0.2853  0.2958 -0.0913
 7664W        W22795   0.994   4.258   2.986 -0.0496 -0.3486  0.2119
 7665W        W22796  10.058  16.942  15.219 -0.1411  0.0326 -0.0384
 7666W        W22797  10.940   4.905  10.982 -0.0369 -0.3119  0.0163
 7667W        W22798   7.909  10.481   1.714 -0.0214 -0.1951 -0.2136
 7668W        W22799  10.942   7.005   2.329  0.0462  0.2125  0.2280
 7669W        W22800  15.598   7.201  15.737  0.0707  0.0988 -0.2557
 7670W        W22801   4.179  16.903   1.431 -0.0056  0.0142 -0.0049
 7671W        W22802   3.638   1.085  16.063 -0.1413  0.2734  0.3146
 7672W        W22803  15.619   0.712  14.145 -0.0484 -0.1089  0.2746
 7673W        W22804  16.921   4.685   4.269 -0.1752  0.1050 -0.0704
 7674W        W22805  17.179   8.927  16.581  0.2525 -0.2008  0.1481
 7675W        W22806   5.718   3.650   4.599 -0.1589  0.0276 -0.0699
 7676W        W22807   2.521   6.038   0.987 -0.1974 -0.1072 -0.2117
 7677W        W22808  10.622   0.841   2.484 -0.0586 -0.0521  0.2093
 7678W        W22809  15.325  10.353  14.161  0.4337 -0.1324 -0.2713
 7679W        W22810  16.598   6.294  15.906 -0.1471  0.2731  0.2075
 7680W        W22811  16.437   3.488  16.127  0.0631 -0.1142 -0.0981
 7681W        W22812  17.386  10.516   5.248  0.1117  0.2315 -0.0583
 7682W        W22813  11.565   9.275   5.178 -0.0426 -0.0202  0.1027
 7683W        W22814   5.349  16.908   3.762 -0.1512 -0.0869  0.0629
 7684W        W22815   1.561   6.064   5.409  0.0969 -0.2107  0.0132
 7685W        W22816   8.572   3.997   1.725  0.0152 -0.1658  0.0303
 7686W        W22817  17.583   8.022  15.294 -0.0407 -0.1479  0.2276
 7687W        W22818   9.181   9.299  13.039  0.0420 -0.1054 -0.0389
 7688W        W22819  15.836   9.550  14.759 -0.0500 -0.1311  0.2157
 7689W        W22820   3.936  12.665   2.479 -0.0832 -0.0151 -0.0685
 7690W        W22821  10.417   6.507   4.083 -0.0582  0.2391 -0.1085
 7691W        W22822  10.050   6.650  16.233  0.1040 -0.2633  0.0635
 7692W        W22823  14.621   3.709  13.586 -0.3519 -0.0693 -0.0232
 7693W        W22824   8.881  12.209  14.680  0.4617 -0.0737  0.1256
 7694W        W22825  16.230  10.996   2.620 -0.1372 -0.1165 -0.1179
 7695W        W22826  16.480  13.497  15.324 -0.1281 -0.0160 -0.0030
 7696W        W22827  15.982  10.205   5.963  0.0244  0.1167  0.0031
 7697W        W22828   1.298  16.362   0.720  0.0851 -0.1481  0.0321
 7698W        W22829  11.397   7.784  12.435 -0.1007  0.0014 -0.0438
 7699W        W22830  10.234  14.625  14.684  0.0301 -0.1034  0.3148
 7700W        W22831   3.585   6.362  15.790 -0.2331 -0.2070 -0.1156
 7701W        W22832  11.765  12.168  15.089  0.3350  0.1203 -0.0406
 7702W        W22833   9.713  17.372   5.293  0.0995  0.1325  0.1638
 7703W        W22834   0.827   5.806   1.594  0.0235 -0.2393  0.3031
 7704W        W22835  11.831  15.037  16.366 -0.1077  0.0414 -0.0348
 7705W        W22836  12.917   3.915  11.044  0.1618  0.0900  0.1444
 7706W        W22837   0.541  11.286  12.908 -0.2533  0.3545 -0.2276
 7707W        W22838   4.742  12.254   2.374  0.1667 -0.3315 -0.1621
 7708W        W22839   2.689   2.095   5.105 -0.1573  0.1263 -0.1071
 7709W        W22840  10.808  10.464  13.684 -0.0930  0.2885  0.0415
 7710W        W22841   8.664   8.198  12.070  0.0901 -0.1536 -0.1753
 7711W        W22842  13.756  17.042   2.770 -0.0524 -0.3888 -0.3896
 7712W        W22843  12.465  14.587  16.506  0.0088 -0.1403  0.1883
 7713W        W22844  12.756  10.057   4.890  0.1260 -0.1215  0.0041
 7714W        W22845   3.938  16.185  13.782  0.1078 -0.0290 -0.1133
 7715W        W22846   4.345   9.850   1.017 -0.0132 -0.1181  0.2500
 7716W        W22847   6.454  15.508  12.262  0.1125 -0.0210 -0.0534
 7717W        W22848  14.727   5.918  12.205 -0.1135  0.0449  0.0299
 7718W        W22849   8.165   2.039   0.534 -0.0659 -0.0733 -0.0283
 7719W        W22850  16.671  13.626   4.225  0.0013  0.0848  0.1094
 7720W        W22851  10.718   3.741   4.125  0.2850  0.1229 -0.1632
 7721W        W22852   5.153  15.735   3.656 -0.1720  0.0463  0.0583
 7722W        W22853   6.426   3.163   2.344 -0.1215  0.1206  0.3521
 7723W        W22854   8.078   1.799  13.224 -0.1661 -0.4025 -0.1372
 7724W        W22855   2.177   9.384  12.770  0.1858 -0.1300  0.1671
 7725W        W22856   3.802  14.427   5.255  0.1553 -0.2715 -0.0847
 7726W        W22857   4.228   7.558   4.222  0.0363  0.1489  0.2682
 7727W        W22858  15.603   3.324   2.263 -0.1804  0.1317 -0.0299
 7728W        W22859   5.699   0.432   6.815  0.0597  0.1425 -0.3019
 7729W        W22860  13.615  12.835   0.307  0.1740  0.0200  0.0395
 7730W        W22861   5.459   9.022  11.992 -0.0805 -0.2639  0.0343
 7731W        W22862  15.546  15.190  15.854 -0.0093  0.0415 -0.0909
 7732W        W22863   3.758   9.177  15.757  0.1111 -0.0467  0.4211
 7733W        W22864  14.918   9.555  12.585 -0.0807  0.2721 -0.0975
 7734W        W22865  17.034  14.759  15.394  0.1281 -0.0932  0.0139
 7735W        W22866  10.885   9.787   1.014  0.0108  0.0773  0.0081
 7736W        W22867  12.819  17.224  11.158 -0.0222  0.0518  0.0446
 7737W        W22868   7.919   5.309  15.601  0.4502  0.1884 -0.2510
 7738W        W22869  17.331   8.886  11.549 -0.0645  0.3999 -0.1173
 7739W        W22870   6.718   3.776  13.680 -0.2075 -0.0548  0.2617
 7740W        W22871   7.534   4.462   4.002 -0.2658 -0.0091  0.0168
 7741W        W22872   5.189   8.319  13.589  0.3079  0.1085 -0.2212
 7742W        W22873  10.312   0.415   1.650 -0.3031  0.0202  0.0824
 7743W        W22874  15.929  16.221   6.052 -0.2464  0.0806  0.1036
 7744W        W22875   3.822   0.564  15.625  0.0335 -0.3800  0.2149
 7745W        W22876  17.065   4.595   0.984 -0.1355 -0.1391 -0.1308
 7746W        W22877   8.376   9.820  16.939  0.2718 -0.3192 -0.1307
 7747W        W22878   0.543   3.650   4.932 -0.0975  0.1673  0.2266
 7748W        W22879  12.253   5.908  15.609  0.0787 -0.1712 -0.1731
 7749W        W22880  11.267   0.895   1.778 -0.0139 -0.0569  0.1339
 7750W        W22881   1.286   7.588   3.676  0.0842  0.0087  0.0416
 7751W        W22882  17.258   7.250   3.755 -0.1453  0.2025  0.1270
 7752W        W22883  11.504   9.985   1.627  0.2059 -0.1103 -0.4834
 7753W        W22884  14.703  17.310  13.927 -0.0089 -0.2200 -0.0110
 7754W        W22885   6.887   8.173  16.923  0.1390 -0.3358  0.0044
 7755W        W22886   2.407  11.669  13.486  0.1993  0.2462 -0.0782
 7756W        W22887   5.177  14.116  12.887 -0.3698 -0.0065  0.0811
 7757W        W22888  11.666   5.234   5.233 -0.0757 -0.1126 -0.1739
 7758W        W22889   3.477   8.262   2.150  0.0046  0.0345  0.1096
 7759W        W22890  11.933  13.576   2.335 -0.0768 -0.1347 -0.2970
 7760W        W22891  14.266  14.310  16.357  0.1610  0.1386 -0.0794
 7761W        W22892  12.223  11.026   4.666 -0.1607 -0.1871 -0.1648
 7762W        W22893   0.628   6.321  12.383  0.0177  0.4857  0.0559
 7763W        W22894  15.678   7.574   0.584  0.0182  0.1878  0.0768
 7764W        W22895  12.839   1.893   4.973  0.1525 -0.1112  0.0244
 7765W        W22896   1.868  16.225   0.414  0.0070 -0.0032  0.2304
 7766W        W22897   2.237  13.119  13.641  0.0351 -0.1886 -0.1377
 7767W        W22898  10.957   0.999   1.267  0.2792  0.0732 -0.0964
 7768W        W22899   1.432  16.295   5.565  0.2810  0.1313  0.0747
 7769W        W22900   1.859   3.620   0.566  0.0386  0.3092  0.2514
 7770W        W22901  13.536  12.143   5.254  0.3703 -0.1219 -0.1367
 7771W        W22902  17.142   2.047  11.667 -0.0768  0.2781 -0.0164
 7772W        W22903  15.434  10.822  13.796  0.0660  0.1089  0.1685
 7773W        W22904   0.395  16.072   0.278  0.3933 -0.1567  0.0114
 7774W        W22905  17.077   1.963   0.530 -0.0823 -0.2646  0.1399
 7775W        W22906   3.497   2.827   2.096 -0.0478  0.3768  0.0084
 7776W        W22907   0.971   4.941   4.237 -0.0290 -0.1537 -0.0376
 7777W        W22908  12.401  15.447   1.108 -0.3579 -0.1600 -0.0544
 7778W        W22909  17.614   7.558  15.418  0.0771 -0.1081 -0.1528
 7779W        W22910  15.415   0.139   1.118 -0.0874 -0.2035  0.3334
 7780W        W22911  13.331  12.812   2.042 -0.0911  0.0748  0.1279
 7781W        W22912  12.406  16.340  15.423 -0.0515  0.1878 -0.1358
 7782W        W22913   9.883  17.378   4.373  0.3089 -0.1721  0.0834
 7783W        W22914  16.597  16.368  13.775 -0.0412 -0.1392  0.0151
 7784W        W22915   9.825   1.771   4.462 -0.3608 -0.0901 -0.1933
 7785W        W22916  12.704  15.141  13.903 -0.0320 -0.3798  0.2857
 7786W        W22917   8.763   8.080  15.690 -0.1005 -0.1015  0.2844
 7787W        W22918   3.091   5.595  12.654 -0.0797 -0.1156 -0.1384
 7788W        W22919   4.336   0.795  16.816  0.0433  0.1818  0.0252
 7789W        W22920   2.168   4.400   0.313 -0.0251 -0.1626  0.1273
 7790W        W22921   8.124  16.419  14.852 -0.0599  0.0413  0.1082
 7791W        W22922  13.102  12.232   0.903 -0.4256 -0.2696  0.0930
 7792W        W22923   9.779   4.910   4.040 -0.0776  0.1614 -0.0605
 7793W        W22924  11.746  15.567  16.283 -0.0729  0.0305 -0.0738
 7794W        W22925  11.364  12.680   4.105 -0.0968 -0.1334 -0.1805
 7795W        W22926   4.881   7.951   0.956  0.0142 -0.1064  0.1249
 7796W        W22927   0.573  10.594   1.192  0.2927  0.3423  0.1912
 7797W        W22928   0.185  15.933   1.634 -0.1829  0.1778 -0.1918
 7798W        W22929   0.505  10.504   6.021 -0.0070  0.2396 -0.1539
 7799W        W22930   7.109  13.891   1.922 -0.3293 -0.0611 -0.2478
 7800W        W22931   4.243   2.109   3.369 -0.1181  0.1913  0.0358
 7801W        W22932   5.789  12.204   0.558 -0.2761 -0.2705 -0.0656
 7802W        W22933   3.260  13.918  15.565 -0.1172 -0.2230  0.2226
 7803W        W22934   7.845   3.984  11.496 -0.2211 -0.1876  0.0860
 7804W        W22935   9.500   2.681   2.259 -0.1733 -0.3724  0.4109
 7805W        W22936   4.292   1.509   1.715 -0.0254  0.1986 -0.0851
 7806W        W22937  10.288  10.856   5.478 -0.1291 -0.0567  0.0401
 7807W        W22938  12.595   4.621  13.127  0.0003 -0.2256  0.0720
 7808W        W22939   3.559  13.713  15.230 -0.0948  0.0123 -0.0353
 7809W        W22940   2.469   0.776   1.540 -0.0101 -0.1845 -0.0879
 7810W        W22941   7.497  12.070  14.589 -0.1352 -0.1101 -0.1251
 7811W        W22942   7.844   0.649   5.943  0.1479 -0.0442  0.0312
 7812W        W22943  10.310   0.804  16.103  0.1404  0.3258 -0.0884
 7813W        W22944   1.866  17.703  12.394  0.1427  0.0476  0.1788
 7814W        W22945   2.871   8.737  13.030 -0.0980 -0.1691  0.3325
 7815W        W22946  11.647   9.104   1.184 -0.0531  0.0987 -0.1774
 7816W        W22947   1.851  14.812   1.865 -0.1369 -0.1333 -0.0458
 7817W        W22948  15.737   5.728   0.541 -0.0191  0.1232  0.0320
 7818W        W22949  12.405   0.838   0.664 -0.0652  0.3787  0.1970
 7819W        W22950  12.942  10.375   3.435  0.1701  0.1466  0.0328
 7820W        W22951   2.447  12.282   0.709  0.1922  0.0332  0.2073
 7821W        W22952  17.341   6.502   4.772  0.0992  0.0748 -0.0265
 7822W        W22953  16.608   7.929  16.337 -0.1651  0.0028 -0.1585
 7823W        W22954   6.865   3.324  15.243  0.1539 -0.2695  0.0641
 7824W        W22955   9.755   6.036  15.677  0.1090  0.1061  0.0477
 7825W        W22956  14.019   3.078  16.583 -0.2384 -0.0527  0.0091
 7826W        W22957  13.527   8.524  14.404  0.1278 -0.0687  0.1210
 7827W        W22958   6.674   3.933   1.608  0.0372  0.0229  0.2026
 7828W        W22959   0.824  15.283   1.310 -0.1868 -0.4260 -0.3169
 7829W        W22960  16.954   9.960  14.071 -0.1574 -0.0160  0.3645
 7830W        W22961   1.373  10.286  11.896 -0.1369  0.0770  0.2320
 7831W        W22962   8.106   5.132  16.775 -0.0911  0.0373  0.2037
 7832W        W22963   3.575   9.590   5.209  0.0759 -0.1894 -0.1289
 7833W        W22964   8.931   5.727  16.520 -0.2249  0.1101 -0.1238
 7834W        W22965   4.667   9.826  16.077  0.0515  0.0117 -0.1304
 7835W        W22966   8.835   2.503  15.734  0.2886 -0.2662 -0.1411
 7836W        W22967  12.602   8.486  14.010  0.1164 -0.0969 -0.0431
 7837W        W22968   8.851   9.792   2.684 -0.1814  0.0932  0.2663
 7838W        W22969   0.187   2.482  11.245 -0.1179  0.4824  0.0117
 7839W        W22970   7.466   6.271   4.997  0.3150 -0.2412 -0.0952
 7840W        W22971  16.098   5.305   3.202  0.0732  0.0942 -0.1204
 7841W        W22972   8.693   9.297  11.247 -0.1172  0.2469 -0.0831
 7842W        W22973  17.672   2.085  11.936 -0.0990 -0.1401  0.2526
 7843W        W22974  13.469  11.764   5.772 -0.0558  0.0661  0.1467
 7844W        W22975  17.102  13.177   0.770  0.1993  0.0382  0.0116
 7845W        W22976   9.874   8.319   5.562  0.0063 -0.0898 -0.0048
 7846W        W22977   6.345  17.666   6.370  0.0198  0.0195  0.0817
 7847W        W22978  17.334   6.946   1.599 -0.1003 -0.2402  0.0249
 7848W        W22979   0.363   9.074  16.219 -0.1110 -0.0425  0.3788
 7849W        W22980  15.626   9.765  13.221  0.2160 -0.2141  0.3089
 7850W        W22981   0.894   8.333  12.589  0.1064 -0.1306 -0.1929
 7851W        W22982  12.380   7.823  13.197 -0.1282 -0.2353 -0.0612
 7852W        W22983   0.292  16.643   0.981  0.0699  0.3396  0.2623
 7853W        W22984   6.920  15.216   2.730 -0.0039 -0.1587  0.3259
 7854W        W22985   2.458   0.475   1.135 -0.0777 -0.3844  0.1268
 7855W        W22986   5.058   9.551  16.149  0.0873 -0.1195  0.2949
 7856W        W22987  12.565  10.178  12.953 -0.2781 -0.2878  0.0136
 7857W        W22988   3.081   0.166   4.989  0.0097 -0.1650  0.2240
 7858W        W22989  13.022   9.542   4.130 -0.2229 -0.1394  0.3493
 7859W        W22990  16.555  11.724   5.434 -0.0949  0.0444  0.2559
 7860W        W22991  13.517   6.716  16.876 -0.0313  0.1563 -0.1221
 7861W        W22992  13.920   2.831  10.693 -0.3354 -0.0775 -0.0106
 7862W        W22993   2.386  15.487   4.833 -0.1229  0.1242  0.2512
 7863W        W22994   5.113   2.498   4.963 -0.1346 -0.0154 -0.0782
 7864W        W22995   3.883   8.019   2.299 -0.2172 -0.0974 -0.0640
 7865W        W22996   8.308  16.545  14.368 -0.0817 -0.1856  0.2263
 7866W        W22997  16.916   9.339   0.544  0.0551  0.2498 -0.1573
 7867W        W22998  11.366  10.287   2.556  0.1845  0.0952 -0.0525
 7868W        W22999   3.793  17.252   5.308 -0.0467 -0.0732  0.0099
 7869W        W23000   7.950   9.009  16.130  0.2821  0.0196 -0.0897
 7870W        W23001  11.372  11.466   2.463  0.1803  0.0672 -0.1002
 7871W        W23002  16.151   4.833  14.692 -0.0964 -0.1816  0.0522
 7872W        W23003  12.620  13.858  15.686  0.2501  0.0392  0.0917
 7873W        W23004  16.422   1.230  14.305  0.3669 -0.1115  0.0797
 7874W        W23005  16.906   0.622  14.603 -0.0030 -0.0600 -0.0335
 7875W        W23006  12.610   9.764   5.236 -0.2783 -0.0864 -0.2449
 7876W        W23007   6.441   4.521  13.556  0.0901 -0.0456  0.1520
 7877W        W23008  14.275   9.281  12.998  0.1099 -0.1437  0.1727
 7878W        W23009   2.077   6.721  12.555 -0.3113 -0.0200 -0.2240
 7879W        W23010  17.679   3.288   4.914  0.0596 -0.0592 -0.1519
 7880W        W23011  10.281  16.569  14.164 -0.0208 -0.2877 -0.0897
 7881W        W23012  15.232   6.543  16.843 -0.1435  0.2075  0.0249
 7882W        W23013   0.119  10.163  10.455 -0.1186  0.2656  0.0739
 7883W        W23014   4.066  11.176   5.427 -0.0164  0.1351  0.0643
 7884W        W23015  13.347   2.588   2.963 -0.1220  0.0864 -0.1728
 7885W        W23016  16.644  17.569   0.468 -0.1108 -0.2130 -0.0623
 7886W        W23017   9.805   0.263   6.333 -0.0321 -0.0679 -0.2543
 7887W        W23018  12.117  17.159  11.846 -0.2208  0.0688 -0.1827
 7888W        W23019  13.504   7.017   1.569  0.1375 -0.1066  0.0109
 7889W        W23020  14.251  16.455   5.772 -0.1774  0.0138 -0.0792
 7890W        W23021   3.303   6.185   5.246  0.0313 -0.0536 -0.1908
 7891W        W23022  16.038  12.611  16.001 -0.3629 -0.1775  0.2124
 7892W        W23023   3.594   6.833   3.790 -0.0286 -0.0544  0.0326
 7893W        W23024   5.067   7.216  15.560  0.1212  0.0016  0.0574
 7894W        W23025  14.000   3.170   4.937  0.2058  0.3751 -0.1308
 7895W        W23026  15.186  12.414   3.142  0.3182  0.0271  0.0046
 7896W        W23027  14.951   4.827  16.014  0.0911  0.1657 -0.1566
 7897W        W23028   9.337  11.484  13.881  0.0165  0.1301 -0.0326
 7898W        W23029  10.604  15.667   0.106  0.2926  0.1352  0.0228
 7899W        W23030  15.924   4.768  10.730  0.1697 -0.1222 -0.0750
 7900W        W23031  11.114   7.086   1.143 -0.1296 -0.1420 -0.1979
 7901W        W23032  13.687   2.132   5.727 -0.0600 -0.1279  0.0601
 7902W        W23033   6.486  11.130   5.830  0.0332 -0.1878 -0.1600
 7903W        W23034  17.445   3.126  15.209 -0.0296  0.0874 -0.0081
 7904W        W23035   2.694  11.601   0.780  0.1045 -0.2536 -0.0506
 7905W        W23036  13.091   7.479   3.595 -0.0370 -0.3804  0.1273
 7906W        W23037  17.256   9.396  12.955 -0.1367 -0.1026 -0.0696
 7907W        W23038   4.858   3.525  11.207  0.0281  0.1200 -0.0263
 7908W        W23039   5.167   9.621   5.037 -0.1456 -0.1951  0.0270
 7909W        W23040   7.864  10.944  14.549 -0.2338  0.0372  0.0411
 7910W        W23041  17.596   7.714   2.166 -0.0127 -0.2711 -0.0810
 7911W        W23042  11.071  14.039  13.090 -0.3128  0.3457  0.0197
 7912W        W23043   4.990   5.062  13.159 -0.0568  0.3500  0.1092
 7913W        W23044  15.042   0.443   5.531 -0.0460  0.0087  0.4633
 7914W        W23045  12.250   6.427  15.834 -0.2539 -0.3038  0.0871
 7915W        W23046  12.278  10.198   1.018 -0.1044  0.1635 -0.1325
 7916W        W23047   7.292  15.038  13.837 -0.0678 -0.2334 -0.1924
 7917W        W23048   0.687   1.114   1.851  0.0936  0.2313  0.1887
 7918W        W23049   3.243  16.026   0.357  0.0709 -0.1676  0.1308
 7919W        W23050   0.657  15.639   4.086 -0.2210  0.0105  0.0243
 7920W        W23051   8.139   4.038  15.534  0.1150  0.2759  0.0106
 7921W        W23052  10.933   8.228   2.379 -0.1273 -0.1448  0.0106
 7922W        W23053  10.893   2.112   0.344 -0.1281  0.0947  0.2312
 7923W        W23054  15.311   4.632   3.959 -0.2034  0.1647  0.0470
 7924W        W23055   3.487   2.394   3.689 -0.2501 -0.1751 -0.0782
 7925W        W23056  17.144  16.388  14.569 -0.0405 -0.2545 -0.0088
 7926W        W23057   6.841   5.728   3.441 -0.0181 -0.1869 -0.0069
 7927W        W23058   3.507   4.127  15.515  0.0057 -0.0913  0.1510
 7928W        W23059  13.203   1.391  12.430  0.2570 -0.2490  0.0731
 7929W        W23060  12.910  12.958   5.160  0.0007 -0.4739 -0.0140
 7930W        W23061  11.722   1.267   2.396 -0.0516  0.2085 -0.2226
 7931W        W23062   3.577   4.896  11.410  0.0079  0.4344  0.0366
 7932W        W23063   3.223  13.086   2.970  0.1469  0.3717 -0.3671
 7933W        W23064  11.485  15.871   2.708  0.0779  0.0144  0.3346
 7934W        W23065  15.577  10.007  14.681  0.3040  0.1477 -0.0062
 7935W        W23066  14.303   9.908   0.129  0.1349  0.0523 -0.1811
 7936W        W23067   3.468  14.910   1.159  0.1580  0.2503 -0.0030
 7937W        W23068   7.282   2.751  12.191  0.0900  0.2042 -0.0540
 7938W        W23069  10.704   2.914   0.940 -0.4050  0.1158 -0.1117
 7939W        W23070  11.693   7.777   1.554  0.1710  0.2711 -0.1276
 7940W        W23071  11.126  15.978  12.860  0.0792 -0.3437 -0.0201
 7941W        W23072   1.803   6.374   2.923 -0.0868 -0.3887  0.1866
 7942W        W23073  14.094   3.564   4.679  0.4213 -0.4002  0.1093
 7943W        W23074   1.164  12.293  14.510  0.0428  0.2466 -0.0208
 7944W        W23075   6.841   2.637  11.922 -0.0014  0.3772  0.0189
 7945W        W23076  15.497  14.540   0.057  0.0886  0.2859 -0.4201
 7946W        W23077   9.043  13.990   0.634 -0.1970 -0.4784  0.1733
 7947W        W23078   6.247  17.382   0.891  0.0751 -0.0821  0.0080
 7948W        W23079   3.607  15.395   2.220  0.0548  0.2125  0.1710
 7949W        W23080   0.638   2.827   4.599  0.0144  0.1258 -0.1679
 7950W        W23081   4.909  13.231   6.423 -0.2384  0.1245  0.2434
 7951W        W23082  10.304  11.844   4.470 -0.0758 -0.0638 -0.0966
 7952W        W23083  11.065   8.518   3.848 -0.2105  0.0332 -0.0423
 7953W        W23084   1.472  11.603   1.699  0.1735 -0.3028 -0.0506
 7954W        W23085   2.404   1.670   3.668 -0.1363  0.1263 -0.0150
 7955W        W23086   2.267   0.035  14.859 -0.1272  0.1464 -0.0789
 7956W        W23087   7.592  12.399   2.799  0.2591  0.0334 -0.1184
 7957W        W23088   6.652   6.956  12.326  0.3956  0.1890  0.1763
 7958W        W23089   9.807  16.963  16.219 -0.1864 -0.1052  0.0352
 7959W        W23090   0.910   2.327  13.113 -0.0381 -0.0101  0.1366
 7960W        W23091   0.328   3.724  12.388  0.4258  0.1063  0.0515
 7961W        W23092   0.347  15.664   0.711 -0.0736  0.1339 -0.2157
 7962W        W23093   9.686   6.578   2.922  0.0927 -0.0991 -0.2413
 7963W        W23094   9.237  14.365  12.692  0.1953  0.1030 -0.3372
 7964W        W23095  13.397   5.721   3.015 -0.0595 -0.0737  0.0131
 7965W        W23096  15.997  17.583  13.917 -0.4114  0.0492  0.1115
 7966W        W23097   5.010  13.776  14.252  0.0494  0.1405 -0.0000
 7967W        W23098   8.762  11.040  16.100 -0.1971 -0.0087 -0.0029
 7968W        W23099   8.710   5.398  16.867 -0.0572 -0.4014 -0.0218
 7969W        W23100   3.830  17.230  15.799  0.1347  0.0676 -0.2144
 7970W        W23101  11.842   7.330   4.855 -0.2845  0.2915 -0.1100
 7971W        W23102   6.223   0.571  14.310 -0.0316  0.0338  0.3607
 7972W        W23103   3.508  12.130   1.073 -0.0105  0.1264  0.0288
 7973W        W23104   1.291   1.826  16.026  0.0628  0.0440  0.2028
 7974W        W23105   6.817   5.672  11.344 -0.2469 -0.0816 -0.2190
 7975W        W23106  16.976   0.626  15.865  0.1581 -0.2315  0.1366
 7976W        W23107  10.375  10.789  12.389  0.0214 -0.0717 -0.1455
 7977W        W23108  14.401   3.955   0.028 -0.3145 -0.1708  0.0757
 7978W        W23109  10.167   9.164   4.082  0.2593 -0.1064  0.2611
 7979W        W23110   6.352  16.988  12.181  0.1154 -0.0695  0.0527
 7980W        W23111   3.455  16.689   0.243  0.2044  0.1659 -0.0804
 7981W        W23112   9.660  17.245  15.243  0.0529  0.0775  0.1932
 7982W        W23113  16.779  15.522   6.287  0.4938  0.2332 -0.0540
 7983W        W23114  17.120   6.358  13.834  0.1622  0.0582 -0.0928
 7984W        W23115   9.425   4.020   1.256  0.2817  0.1683  0.2823
 7985W        W23116   4.343   4.116  16.685 -0.0707  0.0529  0.1103
 7986W        W23117   2.749   5.955  11.378 -0.2176 -0.2348  0.0609
 7987W        W23118  10.661   1.654   0.538 -0.1675 -0.0017  0.2528
 7988W        W23119  12.067  14.038   4.369  0.2593 -0.1619  0.1335
 7989W        W23120  10.899   8.657  11.486 -0.0501 -0.1899 -0.3320
 7990W        W23121   1.617   3.294   2.322  0.2080  0.0444 -0.1149
 7991W        W23122  11.476  12.985  13.384  0.0689  0.1239 -0.0986
 7992W        W23123  13.562  10.991  14.578 -0.0985  0.1079 -0.0519
 7993W        W23124   3.691  14.871   2.508  0.0168  0.0583 -0.0943
 7994W        W23125   7.907   6.210  12.459  0.0892  0.0191  0.1323
 7995W        W23126   1.343   6.657  15.235  0.1036 -0.1156 -0.3591
 7996W        W23127  12.870   0.195  16.856  0.0378 -0.0222 -0.4211
 7997W        W23128  17.155   0.185   5.090 -0.1283 -0.2903  0.2363
 7998W        W23129  13.326   2.035   5.348 -0.2457 -0.2659 -0.0355
 7999W        W23130  12.423   0.993   4.601 -0.2614  0.0939  0.1006
 8000W        W23131   4.912  13.239  13.673  0.0042  0.1786 -0.4713
 8001W        W23132  12.972   6.113   3.811  0.0589 -0.1637 -0.1180
 8002W        W23133   3.302   9.771   2.904  0.2074  0.0563 -0.0321
 8003W        W23134  16.697  16.192   2.191  0.0299 -0.0977 -0.2611
 8004W        W23135   5.557   1.078   0.286  0.0684 -0.0391 -0.0536
 8005W        W23136  15.041  10.557   4.849 -0.4607  0.0301 -0.2029
 8006W        W23137   6.540   2.171   6.108  0.0276  0.4312  0.2501
 8007W        W23138   4.651  13.933   0.662 -0.3263 -0.3780  0.1715
 8008W        W23139   0.951  16.484   5.560  0.0368 -0.0617 -0.0772
 8009W        W23140   6.591  16.529  12.635  0.1912  0.2269  0.0104
 8010W        W23141   2.641   8.721   1.813 -0.0063 -0.1977  0.1630
 8011W        W23142  17.148   9.734   4.129  0.1251  0.0803 -0.1729
 8012W        W23143  16.993   7.248  13.906  0.1490 -0.3752  0.0812
 8013W        W23144  16.242  13.298   4.203  0.2290 -0.3376 -0.1010
 8014W        W23145   7.864  17.136   5.277 -0.2757 -0.0862 -0.2228
 8015W        W23146  10.534  12.439  16.113  0.2206  0.1589  0.2820
 8016W        W23147   1.669   1.761   4.599  0.1004 -0.0822 -0.0684
 8017W        W23148  13.025   3.236   2.865  0.1572 -0.0381 -0.0565
 8018W        W23149  12.009   9.333   1.487 -0.0231 -0.2610  0.1346
 8019W        W23150   7.427  17.323   1.012  0.1040 -0.1869  0.2145
 8020W        W23151  17.009   3.305   2.520  0.2186 -0.1247  0.0863
 8021W        W23152  14.320   4.134   5.095 -0.0217 -0.0117  0.0348
 8022W        W23153   4.443  12.583  11.849 -0.1983 -0.0391 -0.3017
 8023W        W23154  13.114  14.917  12.714  0.0339  0.1085  0.0251
 8024W        W23155  12.692   0.078   2.615  0.1534  0.3066 -0.2842
 8025W        W23156   1.521   4.847  16.244 -0.1158 -0.1444 -0.1463
 8026W        W23157   7.650   4.010   4.343  0.0005 -0.2304  0.0260
 8027W        W23158   9.807   6.147   2.102  0.0229 -0.4847  0.2529
 8028W        W23159   8.765   8.600   5.249  0.0304 -0.2495  0.1533
 8029W        W23160  15.295  16.357   4.110 -0.2685  0.1319 -0.0267
 8030W        W23161   7.600  15.566  13.282  0.0941 -0.0768 -0.1218
 8031W        W23162   0.432   5.752  13.716  0.3480 -0.1127  0.0856
 8032W        W23163   2.471   2.666   3.544  0.0085 -0.2206 -0.1136
 8033W        W23164   5.819   4.166  12.054  0.1156  0.1267  0.1206
 8034W        W23165   4.850  15.583   4.399 -0.0585  0.0501  0.0684
 8035W        W23166  15.867   4.069  16.533 -0.0444 -0.0804 -0.1383
 8036W        W23167   7.012   6.165   3.660 -0.0474  0.1891  0.1061
 8037W        W23168  17.173   2.070   3.264 -0.0404  0.0546 -0.0283
 8038W        W23169  16.450   8.815   0.792  0.2943  0.2487  0.2748
 8039W        W23170  12.555   0.633  14.174 -0.1504 -0.0217 -0.2897
 8040W        W23171  11.274  17.691  13.866 -0.0938  0.0317  0.1271
 8041W        W23172   5.370  15.788   1.174  0.0492 -0.0854  0.0649
 8042W        W23173   0.442   5.363   2.438  0.2554  0.0063 -0.0154
 8043W        W23174   5.914   3.856   0.456 -0.1507  0.1456 -0.3621
 8044W        W23175  11.209   2.549  16.781  0.2153  0.1123  0.0200
 8045W        W23176  15.871  16.114   4.625  0.1172 -0.0904 -0.1583
 8046W        W23177   0.047   5.846   3.654 -0.0493  0.2135  0.0189
 8047W        W23178   4.021   3.631  12.251 -0.0073  0.1290  0.0651
 8048W        W23179   5.286  11.859  15.550  0.0078 -0.1618  0.2284
 8049W        W23180   5.076  15.518  14.671 -0.3410 -0.2886  0.0613
 8050W        W23181  12.743  12.456  15.470 -0.2948  0.1786 -0.0100
 8051W        W23182   4.050   4.731   1.586  0.0722  0.0112  0.3466
 8052W        W23183   1.053  11.369  13.922  0.0862 -0.1476 -0.2033
 8053W        W23184   2.095  13.667   0.322 -0.3456 -0.4127 -0.2062
 8054W        W23185  14.114   5.377   1.769 -0.0040 -0.2032  0.0297
 8055W        W23186  13.293  15.768  15.705  0.0285  0.4904  0.2146
 8056W        W23187   3.112  14.467  14.258  0.2691  0.2015  0.2420
 8057W        W23188   7.819  11.200   4.991 -0.1237 -0.1815 -0.1691
 8058W        W23189   4.433  16.214   4.200 -0.2697  0.4338  0.1590
 8059W        W23190  15.250   1.985   2.440  0.1892 -0.0796  0.1458
 8060W        W23191  15.665  15.044  11.958 -0.2637  0.0242  0.1281
 8061W        W23192  13.884  12.540  13.494  0.0310 -0.2059 -0.0413
 8062W        W23193   1.960   6.334  13.609 -0.3805  0.0411 -0.1546
 8063W        W23194  15.943  10.530   2.768  0.0288 -0.2907  0.1903
 8064W        W23195  16.890   3.526   2.127  0.0692  0.3805 -0.1394
 8065W        W23196   8.056  16.790  13.827  0.1058 -0.0423 -0.2565
 8066W        W23197   5.923  17.008  16.044  0.1461 -0.2171  0.3738
 8067W        W23198   0.595   5.564  14.188 -0.1195 -0.2144 -0.2145
 8068W        W23199   8.959   2.767   3.964 -0.0894  0.0240 -0.0035
 8069W        W23200   6.434   7.981   2.667 -0.2409  0.3468 -0.0912
 8070W        W23201  15.393   8.191   1.843  0.1857  0.0568  0.3796
 8071W        W23202  14.800   7.561   2.500  0.1125  0.3259 -0.1773
 8072W        W23203  15.671  13.338  14.514 -0.1431  0.0676  0.3242
 8073W        W23204  13.141   7.119  14.292 -0.0840  0.2363  0.1772
 8074W        W23205   9.399  11.247   1.954 -0.0450 -0.0491 -0.1958
 8075W        W23206  11.748   4.273  16.348 -0.0416  0.0623  0.0663
 8076W        W23207  16.988   3.339  11.303 -0.3128  0.0160 -0.2607
 8077W        W23208  12.731  13.252  16.277 -0.0000 -0.4269  0.1242
 8078W        W23209   8.290   8.006   0.133  0.0525 -0.2470  0.0845
 8079W        W23210   8.855   4.435  13.264 -0.2412 -0.0238 -0.1566
 8080W        W23211  17.283  14.833  16.544  0.0053  0.2605  0.0659
 8081W        W23212  12.947   8.624   6.136 -0.1668  0.0392 -0.4088
 8082W        W23213   0.792  14.881  16.038  0.1224  0.2282  0.0235
 8083W        W23214   9.225   5.563   3.288  0.1325  0.2213  0.1536
 8084W        W23215  16.675  15.830   2.934 -0.0474  0.0682  0.0707
 8085W        W23216  14.494  14.442  15.048  0.1145  0.0699 -0.3972
 8086W        W23217   6.335  11.190  16.413  0.3178  0.4947 -0.1383
 8087W        W23218  17.375  16.992   1.473 -0.0447 -0.2381  0.1560
 8088W        W23219  15.401  17.232   4.224  0.1712  0.0610  0.1800
 8089W        W23220  15.497   6.082   1.864 -0.1941 -0.0915  0.0323
 8090W        W23221   2.532   6.392  12.938  0.1456  0.2163 -0.0422
 8091W        W23222   4.583  14.173  16.635  0.1813  0.0223  0.1843
 8092W        W23223   1.376   8.824  11.816 -0.2658  0.0356  0.1092
 8093W        W23224   2.587  13.715  12.384  0.3820 -0.0255 -0.2010
 8094W        W23225   7.348   9.720   3.002  0.1668  0.3577 -0.2381
 8095W        W23226   1.589   0.142  11.586  0.2927 -0.1916  0.0156
 8096W        W23227  13.704   5.882   5.440  0.0064  0.0005 -0.2268
 8097W        W23228  15.394   6.935  14.584  0.2070 -0.1521 -0.0146
 8098W        W23229  16.032   7.072   2.364  0.2064 -0.4504 -0.0763
 8099W        W23230   4.091  10.887  16.766 -0.2486 -0.0693 -0.1000
 8100W        W23231  15.558   5.662   1.532  0.3081 -0.2518 -0.1139
 8101W        W23232  14.429   9.098  14.182  0.0515 -0.0446 -0.1480
 8102W        W23233  16.992   0.539   4.573  0.0240 -0.3369 -0.1866
 8103W        W23234   2.010   8.477   4.929 -0.1219 -0.0635 -0.0061
 8104W        W23235   2.627  11.483  11.945  0.1448  0.0528 -0.1201
 8105W        W23236  16.486   8.595  16.433  0.1344  0.1842  0.2837
 8106W        W23237   9.118   4.609  16.885  0.2720 -0.2241  0.3098
 8107W        W23238  16.996   4.107  14.303 -0.1832  0.2613 -0.1672
 8108W        W23239   6.628   2.475  14.979 -0.4282  0.0044  0.0145
 8109W        W23240   3.445   7.905  11.620 -0.0466 -0.1096  0.2876
 8110W        W23241   1.904  15.876  15.922  0.0511 -0.1023 -0.2069
 8111W        W23242  13.157  12.533   5.400  0.2046 -0.0969  0.0204
 8112W        W23243   9.094  12.077  15.152 -0.0170  0.0405  0.0616
 8113W        W23244   4.933   3.909  16.755  0.2251 -0.0004 -0.0836
 8114W        W23245   7.692  16.451   0.305  0.0095 -0.1340 -0.0162
 8115W        W23246   5.123  17.338   3.096  0.2354  0.0346 -0.2185
 8116W        W23247  11.424   2.002  14.487  0.1626  0.1404  0.0747
 8117W        W23248   2.241   3.334  16.713 -0.2284  0.0390  0.2326
 8118W        W23249  16.053   9.520   1.716 -0.2484  0.0529  0.1358
 8119W        W23250  12.395  14.987   0.300  0.0496  0.1038 -0.0502
 8120W        W23251   5.580   7.206  15.291  0.0116  0.0791 -0.0055
 8121W        W23252   0.723   0.294  11.965 -0.2109  0.0636  0.1392
 8122W        W23253  11.028   6.176   1.199 -0.0082 -0.1941 -0.1862
 8123W        W23254  15.160   9.288   4.684  0.1471  0.1294 -0.0950
 8124W        W23255   5.842   6.713   3.088 -0.0770  0.3710  0.2806
 8125W        W23256  12.612   6.992  14.296  0.0805  0.2923  0.1904
 8126W        W23257   4.479   7.154  13.086  0.1870 -0.1166  0.0028
 8127W        W23258   7.191   2.145   4.667 -0.0147  0.3452  0.4371
 8128W        W23259   0.355   1.735   1.330 -0.0703 -0.0773 -0.3003
 8129W        W23260  13.305   5.976   0.319  0.0399  0.1231  0.1242
 8130W        W23261   6.158   1.120  16.128 -0.2250  0.1748  0.1957
 8131W        W23262   6.970  17.367  15.368  0.2452  0.0964  0.1199
 8132W        W23263  16.722  11.171   0.544 -0.0050  0.3582 -0.1269
 8133W        W23264   6.895   5.263   2.300  0.0036  0.1218  0.0904
 8134W        W23265   1.766  14.600   0.239 -0.1143 -0.1967 -0.0442
 8135W        W23266   2.385   7.144  11.668 -0.2957  0.3511 -0.3962
 8136W        W23267  12.693  10.816  11.779  0.2092  0.0195  0.0959
 8137W        W23268   1.269  13.856  14.457  0.0497 -0.0516  0.1664
 8138W        W23269   0.922   1.212   0.587 -0.2585  0.0047  0.0240
 8139W        W23270  11.139  15.529  12.602  0.0898 -0.1108  0.0155
 8140W        W23271   6.946  14.160  16.524 -0.0259  0.0484 -0.2171
 8141W        W23272   4.452  11.574  11.579 -0.0424 -0.1370 -0.2912
 8142W        W23273  17.235   7.702   5.535 -0.1192 -0.1710  0.0865
 8143W        W23274   7.918   5.953   3.438 -0.0580  0.0041  0.2660
 8144W        W23275   4.127   2.278   1.260 -0.5057 -0.0638  0.1680
 8145W        W23276   7.812   2.156  12.820 -0.0500  0.4040  0.1180
 8146W        W23277   3.584   7.184  15.918  0.2035  0.0730 -0.1340
 8147W        W23278   0.144   9.309   1.478  0.3657  0.1922 -0.1049
 8148W        W23279  15.485  15.871  12.943  0.0260 -0.0553 -0.1404
 8149W        W23280  11.645  11.896   4.182 -0.0232 -0.0689  0.0923
 8150W        W23281   2.288   1.108   1.879 -0.1853 -0.1680 -0.1953
 8151W        W23282  14.007   5.206  12.344 -0.0675  0.0580  0.0052
 8152W        W23283   1.626  13.738   2.536 -0.0696  0.2365  0.0192
 8153W        W23284  12.082  10.861  16.847  0.0754 -0.0567  0.1443
 8154W        W23285   7.139  10.605   4.558 -0.0289  0.1039  0.2326
 8155W        W23286   9.858  13.666  13.689  0.1505 -0.1396 -0.2261
 8156W        W23287   9.647   3.118  10.926 -0.0547 -0.2533  0.0023
 8157W        W23288   9.865  12.581   0.192  0.2795  0.3108  0.2760
 8158W        W23289   4.672   7.136   5.665  0.0149 -0.3437  0.1294
 8159W        W23290   8.040  11.584  15.902 -0.1591  0.1490  0.0243
 8160W        W23291   3.600   4.232   4.100  0.2688  0.3150 -0.1709
 8161W        W23292   4.745   9.710  13.651 -0.1579  0.0400 -0.0925
 8162W        W23293  13.546  10.409  11.774 -0.0779  0.1451  0.2127
 8163W        W23294  11.967   0.447   2.082  0.0065  0.1741  0.0456
 8164W        W23295  17.372   9.765   3.266 -0.0681  0.1671  0.1538
 8165W        W23296   8.954   3.878   1.443 -0.1656  0.2599 -0.1948
 8166W        W23297  10.660  14.091   2.463 -0.1809 -0.0830 -0.0452
 8167W        W23298  12.330   8.143  15.319 -0.1352 -0.0726  0.1441
 8168W        W23299   5.585  13.728   5.379  0.0161  0.4993  0.3153
 8169W        W23300   9.925   4.299   2.025  0.1669 -0.1320 -0.1518
 8170W        W23301  11.056   3.670   1.230 -0.0369 -0.1858  0.0261
 8171W        W23302   3.269  10.652   6.129 -0.0770 -0.0520 -0.0069
 8172W        W23303   7.642   5.853   1.212  0.2951  0.1264  0.1350
 8173W        W23304   6.205   8.406   2.800 -0.1398 -0.0453 -0.1223
 8174W        W23305  17.316  17.634   5.469  0.2247 -0.0655 -0.3231
 8175W        W23306  16.977  10.086  13.460  0.0871  0.1870  0.4961
 8176W        W23307  14.028  16.234  14.149  0.1932 -0.2949 -0.2186
 8177W        W23308  14.625   5.353  15.715  0.0735 -0.2403 -0.0396
 8178W        W23309   3.752  15.130  16.124 -0.2777 -0.1154 -0.3882
 8179W        W23310   1.189  17.424   4.299  0.0804 -0.0505  0.1287
 8180W        W23311  14.960   8.851   4.539 -0.5181  0.0678 -0.0430
 8181W        W23312   4.548   7.881  15.953 -0.0843  0.0334  0.0769
 8182W        W23313   2.220  10.727  14.572 -0.1293  0.0774  0.2073
 8183W        W23314   8.494  10.998   4.902  0.0468  0.0056 -0.1784
 8184W        W23315   1.528   4.874  13.281  0.1587 -0.1312  0.2174
 8185W        W23316   9.559  16.833   1.800  0.0870 -0.0475 -0.0829
 8186W        W23317   5.871  12.460   3.439  0.2371  0.0763  0.0266
 8187W        W23318  16.990  11.038   1.461  0.0640 -0.0540 -0.2990
 8188W        W23319  15.815  14.059   6.856  0.1760  0.0695  0.1052
 8189W        W23320  12.006   5.323   1.056 -0.1593  0.0892  0.1549
 8190W        W23321   0.127   3.081   2.782 -0.0487 -0.1724 -0.0130
 8191W        W23322   0.862   8.901   4.726  0.1244 -0.2387 -0.1043
 8192W        W23323   5.854  11.346   1.939  0.2347  0.0681 -0.0041
 8193W        W23324   6.275   4.993   0.624  0.0682 -0.1312 -0.1202
 8194W        W23325   0.836   0.238  15.714 -0.0084 -0.0586 -0.2101
 8195W        W23326  10.660   6.813   4.995 -0.3376 -0.1398  0.0102
 8196W        W23327   1.929   4.196   0.791  0.0947  0.4065 -0.0299
 8197W        W23328   6.859  14.698  16.561 -0.3857  0.1150  0.3245
 8198W        W23329   4.081   5.651   4.869 -0.0981  0.2914 -0.1486
 8199W        W23330  12.021  10.752   2.859  0.0523 -0.0773  0.0958
 8200W        W23331  10.081  13.767  12.283 -0.1977  0.0659  0.1057
 8201W        W23332   2.387   1.008   2.506 -0.2137  0.1545 -0.0303
 8202W        W23333  10.548   2.659   5.069 -0.2281 -0.1311  0.1740
 8203W        W23334  10.020   9.027   5.692 -0.0112 -0.0113 -0.0338
 8204W        W23335  13.979   3.921  15.980  0.0457 -0.3900  0.0471
 8205W        W23336  16.315  16.762   0.274 -0.2094 -0.2459 -0.1053
 8206W        W23337  16.113   0.614   4.293 -0.1694 -0.1329 -0.0846
 8207W        W23338   4.069   7.193  14.032 -0.1113  0.1567 -0.4288
 8208W        W23339  12.693  17.678  12.946 -0.0226  0.1987  0.0454
 8209W        W23340   9.308   1.459   2.213 -0.1631 -0.1373  0.1255
 8210W        W23341   5.178  13.834   3.663 -0.3322 -0.1394  0.1793
 8211W        W23342   8.546   8.155   4.286 -0.1074  0.0585 -0.1502
 8212W        W23343  13.917  13.017   1.410  0.0891  0.0822  0.1121
 8213W        W23344  14.781  13.100   5.713 -0.5675  0.2452  0.1837
 8214W        W23345   8.306  12.808   0.009 -0.0354  0.0177 -0.0503
 8215W        W23346   2.695  16.504   3.705 -0.0626 -0.0374 -0.2532
 8216W        W23347  11.364  10.067  14.411 -0.0457 -0.2394  0.2890
 8217W        W23348   1.686  15.894   2.865 -0.0243 -0.0537 -0.1320
 8218W        W23349   5.523   4.106  13.343  0.0718 -0.1320  0.1111
 8219W        W23350  11.021  16.162   2.076 -0.4499  0.1959  0.2903
 8220W        W23351   4.540   9.096   2.341 -0.1171 -0.0981  0.3032
 8221W        W23352   0.821   6.513   1.218  0.3447  0.1382 -0.1707
 8222W        W23353   8.030   2.288  16.939 -0.0840  0.1578  0.1432
 8223W        W23354   7.895   2.492  10.464  0.1606  0.0406 -0.0939
 8224W        W23355  12.565   8.298   4.571 -0.0097  0.1249  0.0313
 8225W        W23356   2.276  11.588   1.265 -0.0319  0.2032  0.0178
 8226W        W23357   3.349   5.617  14.835  0.1293 -0.0432 -0.2070
 8227W        W23358   0.011   3.925  13.291 -0.1189  0.1927  0.0341
 8228W        W23359   2.878   6.011  15.639  0.0447 -0.2872 -0.1653
 8229W        W23360   5.417   5.305   4.466 -0.1578  0.0839  0.1010
 8230W        W23361   3.787  15.325  14.494  0.4226  0.0892 -0.0582
 8231W        W23362   8.959   8.030  13.530 -0.3374 -0.0371  0.0775
 8232W        W23363   7.735   4.476  13.518 -0.0029 -0.0849  0.2984
 8233W        W23364   9.832   4.314  14.428  0.4091 -0.1042 -0.0212
 8234W        W23365   5.601   3.543  15.857  0.1334 -0.1968  0.1166
 8235W        W23366   4.887   7.163  12.726 -0.1173 -0.2241 -0.0570
 8236W        W23367   5.036  12.407  14.482 -0.1062  0.1719 -0.0353
 8237W        W23368   8.380   2.190  15.678 -0.4844  0.2587  0.0188
 8238W        W23369  11.276  12.674   1.253  0.1067  0.1967 -0.0840
 8239W        W23370   0.504   1.680  15.707 -0.5096  0.1349  0.2812
 8240W        W23371   0.196   7.464  16.099 -0.1393 -0.1622  0.0518
 8241W        W23372  15.733  10.790  12.007 -0.0310  0.4025 -0.2288
 8242W        W23373   1.996   6.865   3.121  0.1377  0.0505 -0.0692
 8243W        W23374   9.335   7.109   0.186 -0.0402  0.1082  0.1218
 8244W        W23375   6.092  17.234  13.073  0.0487  0.2758 -0.0381
 8245W        W23376  17.297   0.405  15.437 -0.0446  0.1579  0.2831
 8246W        W23377   3.904  15.445   4.569  0.1968 -0.2177  0.1310
 8247W        W23378  10.871   5.570  16.911 -0.3374  0.0588  0.0152
 8248W        W23379   1.133  12.294   2.698 -0.2232  0.0800 -0.0578
 8249W        W23380   6.266  16.186   1.545  0.2202 -0.0817 -0.3409
 8250W        W23381   5.849  13.249   1.469 -0.0206  0.1603 -0.5806
 8251W        W23382   2.127   2.296   0.385 -0.1546  0.3046  0.1441
 8252W        W23383   3.796  16.623  13.461  0.1302  0.1638  0.0629
 8253W        W23384  14.049   4.288  10.459  0.0098  0.1996  0.0592
 8254W        W23385  15.404  15.577   3.447  0.1381 -0.1660  0.0582
 8255W        W23386   9.755   9.438  15.908 -0.0449 -0.1533  0.1114
 8256W        W23387  16.662   0.328  15.630 -0.0198 -0.0360  0.0531
 8257W        W23388   2.063  17.601   4.774 -0.1492  0.2970  0.3009
 8258W        W23389  10.684   8.800  11.024  0.0366  0.2211 -0.2801
 8259W        W23390   0.961   5.892  15.845 -0.0277 -0.0285  0.1253
 8260W        W23391  13.305  10.769   5.702 -0.1394 -0.1678  0.0480
 8261W        W23392   0.716   1.027  13.235 -0.1999  0.2922  0.2439
 8262W        W23393  10.989   7.568  15.308  0.1622  0.2264 -0.2364
 8263W        W23394   8.288   6.202   3.246 -0.0979  0.1185  0.0170
 8264W        W23395  16.385  16.200  12.685 -0.0694 -0.3403 -0.2558
 8265W        W23396   1.285   0.121   5.964  0.0748  0.1321 -0.1948
 8266W        W23397  10.380  10.752   1.076 -0.3469 -0.0277  0.0475
 8267W        W23398  10.070  16.432  15.235  0.0988  0.0112 -0.2923
 8268W        W23399   3.725  16.187  15.937  0.1789  0.4572 -0.0411
 8269W        W23400   9.029  14.600  13.119  0.1629  0.0055 -0.1064
 8270W        W23401   5.454  15.403   1.419  0.0423  0.0066 -0.1146
 8271W        W23402  12.088  10.114  11.049  0.0432 -0.0033 -0.1610
 8272W        W23403  16.175   6.553   3.088 -0.2660  0.1772  0.0091
 8273W        W23404  15.270  10.989  11.801 -0.3079 -0.2055 -0.1519
 8274W        W23405   1.827  16.056  13.936  0.2549 -0.0458  0.2519
 8275W        W23406  15.036   9.204   1.846  0.1346 -0.1017  0.0569
 8276W        W23407   6.465   4.112   0.010  0.1206  0.1166 -0.0310
 8277W        W23408   1.260  14.192   2.971  0.2365 -0.2581  0.3138
 8278W        W23409   2.345   8.342   0.920 -0.4053  0.0339 -0.0225
 8279W        W23410  14.778   7.755  16.591 -0.0577  0.0501  0.1055
 8280W        W23411  14.296   4.071  13.972 -0.3212 -0.0266  0.0080
 8281W        W23412  16.465   2.465  14.950 -0.0101 -0.0148 -0.0922
 8282W        W23413   4.234  13.432   3.365 -0.3274  0.1469  0.1393
 8283W        W23414  14.658  11.066   3.133 -0.1412  0.4117 -0.0308
 8284W        W23415   7.118  16.441  12.908 -0.1040 -0.1291  0.3423
 8285W        W23416   9.218  10.413  12.395  0.1799 -0.0026  0.2704
 8286W        W23417   4.126  11.978   3.659 -0.1833  0.2407 -0.2037
 8287W        W23418  17.231   1.086   0.538 -0.0656  0.1112  0.0498
 8288W        W23419  12.374   6.843   0.911 -0.0494  0.3407  0.0527
 8289W        W23420   7.440  13.621   4.232 -0.1411  0.1964  0.1041
 8290W        W23421  15.034   3.454   4.330  0.2848  0.1180  0.0962
 8291W        W23422  13.351   2.885  13.317  0.3451 -0.1355  0.0659
 8292W        W23423   4.945  16.495  16.307 -0.0548 -0.0145 -0.0942
 8293W        W23424   7.988   4.186   3.973 -0.0027  0.2924 -0.1319
 8294W        W23425   4.356  12.258  15.624  0.2310  0.1018 -0.1911
 8295W        W23426  16.803   5.469  15.678  0.0582  0.1754 -0.0280
 8296W        W23427   3.246   3.437   2.656 -0.2001 -0.0662  0.1980
 8297W        W23428  16.975   8.484  11.669 -0.0788 -0.3255  0.3486
 8298W        W23429   8.238  12.456  13.993 -0.0761 -0.0466  0.0640
 8299W        W23430  16.371  11.452   0.736 -0.1548 -0.1455 -0.3300
 8300W        W23431  15.111  14.884   2.597  0.1537  0.0851  0.3000
 8301W        W23432  12.366  12.592   2.125  0.1832 -0.1111 -0.0422
 8302W        W23433   2.963   2.747  15.011  0.2841  0.1584 -0.0595
 8303W        W23434   6.972  11.844   0.791 -0.1164  0.1863  0.1068
 8304W        W23435   7.593  10.498   1.265 -0.2051  0.0181  0.0012
 8305W        W23436   4.644   6.726  15.367  0.0018 -0.1482 -0.0252
 8306W        W23437   0.819   8.564   1.892 -0.1054  0.2259 -0.0044
 8307W        W23438   4.259  15.160   6.019  0.2733 -0.1986 -0.0837
 8308W        W23439   4.371  15.709   4.292 -0.1693  0.1942  0.2158
 8309W        W23440   3.248   0.325  16.406  0.4001  0.1542  0.2164
 8310W        W23441   6.115   5.719  12.390 -0.0412  0.0947  0.0599
 8311W        W23442   7.802   3.434  16.352  0.1748  0.1064  0.0592
 8312W        W23443   4.257   8.324  16.021  0.0577 -0.3236 -0.0310
 8313W        W23444  11.633  12.926  16.041 -0.4813 -0.1903  0.2377
 8314W        W23445   4.279   5.144  15.390 -0.1838  0.2409 -0.1067
 8315W        W23446   2.064   4.312   5.055  0.0421 -0.5463  0.1600
 8316W        W23447   2.518   9.771   4.356  0.1693  0.0930 -0.0623
 8317W        W23448   9.484   7.045  14.606 -0.0183  0.1786 -0.0703
 8318W        W23449   7.368   2.018  14.189  0.0250  0.1467  0.3474
 8319W        W23450   6.482  10.449  13.807  0.1203 -0.2246 -0.1365
 8320W        W23451   4.396   6.788   5.968 -0.0175 -0.3402 -0.0011
 8321W        W23452   8.069  11.202   3.138 -0.2438 -0.2518 -0.1619
 8322W        W23453  12.451  15.703  14.330  0.0393 -0.4140 -0.0904
 8323W        W23454  12.989   5.289   2.036 -0.2444 -0.2540 -0.0422
 8324W        W23455  12.131  11.791  15.112  0.0109 -0.4296 -0.0762
 8325W        W23456  15.359  15.231   4.629 -0.0652  0.0190  0.1904
 8326W        W23457   3.836  10.754  13.439  0.0379  0.3825  0.1046
 8327W        W23458   8.303   7.905  11.778 -0.0792 -0.2558 -0.1872
 8328W        W23459   2.143   9.590   0.722 -0.5026 -0.3080  0.1642
 8329W        W23460  17.618  13.107   2.080 -0.0998 -0.0672  0.0704
 8330W        W23461  16.774  12.393  14.915  0.0712 -0.0784 -0.0612
 8331W        W23462  15.423  14.901  13.157  0.0212 -0.1565 -0.1900
 8332W        W23463  16.307   0.039   4.874 -0.1903 -0.1839 -0.0021
 8333W        W23464  15.776  10.190  16.280 -0.0035 -0.1235 -0.0813
 8334W        W23465   5.961   1.499  16.406  0.1250 -0.1516 -0.0355
 8335W        W23466  10.615   0.432  14.999 -0.2986  0.3054 -0.1556
 8336W        W23467  11.628  13.907   1.042  0.3000 -0.3169 -0.0790
 8337W        W23468  13.749   4.331  16.903  0.0764 -0.1661 -0.1458
 8338W        W23469  14.489  16.488  12.030  0.1654 -0.0315  0.0309
 8339W        W23470   6.059   4.499   3.065 -0.4533 -0.0767  0.0733
 8340W        W23471  13.689   5.954   4.479  0.0027 -0.0083  0.1916
 8341W        W23472   4.045  15.590  15.116 -0.0658 -0.1136  0.0306
 8342W        W23473   7.987   6.016   2.866  0.3620 -0.1241  0.0075
 8343W        W23474  16.369  11.803  15.465 -0.2060  0.1903 -0.0564
 8344W        W23475   9.598   2.439   4.951 -0.2113  0.2046 -0.3078
 8345W        W23476  16.321  16.121   3.492  0.3363 -0.3378  0.0466
 8346W        W23477  10.009  14.434   5.215  0.0615  0.0577  0.0214
 8347W        W23478   2.521  13.318  13.163  0.0875  0.0194  0.2377
 8348W        W23479   9.052  13.903   5.511 -0.0357 -0.1902  0.1073
 8349W        W23480  14.660   7.834   2.950 -0.1261  0.2836 -0.0328
 8350W        W23481   2.561   1.148  11.940 -0.1766  0.1406  0.3409
 8351W        W23482  14.642   7.242   2.866 -0.1624  0.2497 -0.0965
 8352W        W23483   9.498  10.730  13.531  0.0828  0.0072  0.0245
 8353W        W23484  16.293   1.931   0.047  0.0776  0.1672 -0.4029
 8354W        W23485   2.652   7.281   3.604 -0.1370  0.0757 -0.1713
 8355W        W23486   8.736  13.730   4.056 -0.0401 -0.1235 -0.0030
 8356W        W23487  10.259   2.215   5.069  0.2799 -0.2308 -0.4356
 8357W        W23488   3.782   3.336   1.828 -0.2401  0.0446  0.1880
 8358W        W23489   1.547   4.847   5.398  0.1893 -0.0258 -0.0729
 8359W        W23490  11.407  12.773  14.530  0.0010  0.0885  0.1602
 8360W        W23491   7.999  13.739  14.206 -0.2871 -0.0206  0.3147
 8361W        W23492  13.656   7.945   5.720  0.0221 -0.0277  0.0331
 8362W        W23493   0.800   5.559  11.268  0.1339 -0.1473 -0.0853
 8363W        W23494   0.530  17.399  13.402  0.3649  0.1113 -0.0263
 8364W        W23495  15.073   0.483   4.453  0.2744  0.1757  0.0232
 8365W        W23496   0.497  17.177   0.879 -0.0870 -0.0270  0.0097
 8366W        W23497   5.524   0.004   3.373 -0.1219 -0.0138  0.0645
 8367W        W23498  11.732   0.322   1.257  0.0136  0.1621  0.0821
 8368W        W23499   1.498   4.465  14.900 -0.0255  0.1914 -0.0958
 8369W        W23500   9.333   8.680   2.049  0.0448 -0.0391  0.1492
 8370W        W23501  11.235   2.510  16.251  0.1527  0.1624  0.0706
 8371W        W23502  17.086  11.884  14.397 -0.2894 -0.0556  0.0168
 8372W        W23503   7.317   2.255   3.159 -0.0895 -0.0730  0.3115
 8373W        W23504  11.018   6.463   5.145 -0.0404 -0.1244 -0.0879
 8374W        W23505  14.900   1.003   4.366  0.0639  0.2627 -0.0877
 8375W        W23506  11.171  11.585  14.141  0.0125  0.0093 -0.2329
 8376W        W23507   3.978  16.700   3.296 -0.0160  0.4064  0.0444
 8377W        W23508  11.186   8.059  10.903 -0.1042  0.1278  0.1680
 8378W        W23509  10.748   4.636   2.579 -0.1095  0.0333  0.0396
 8379W        W23510  12.899  15.209  14.959 -0.1525 -0.1182  0.2969
 8380W        W23511  10.754   9.276  16.203  0.2223  0.0397 -0.1645
 8381W        W23512  15.221   2.288   5.557  0.3091  0.0323  0.2441
 8382W        W23513   7.744   0.264  15.541  0.3971  0.0133  0.3020
 8383W        W23514   1.324   3.408  14.481 -0.0922  0.2057  0.2353
 8384W        W23515  17.603   7.599  12.620 -0.0771  0.0468  0.0070
 8385W        W23516   2.293   4.621  10.900  0.1212  0.3540  0.0320
 8386W        W23517   3.407   5.451   0.531 -0.1543  0.0087 -0.2358
 8387W        W23518  15.533  17.617  13.709  0.1149 -0.0877 -0.0490
 8388W        W23519  17.494   1.851  16.100  0.0581 -0.5038  0.3131
 8389W        W23520   1.017   3.642  16.454 -0.2699  0.1167  0.0114
 8390W        W23521   2.171   4.795   1.320 -0.1580 -0.0095  0.3388
 8391W        W23522   8.680  16.124  12.666 -0.0213  0.4856 -0.3182
 8392W        W23523  10.953   3.194  14.472 -0.2397  0.1142 -0.0520
 8393W        W23524  14.553  16.370   5.390 -0.3378  0.0681  0.0672
 8394W        W23525   8.373  10.279  12.596 -0.0736 -0.1209  0.0864
 8395W        W23526   9.338  14.281  15.714  0.0263 -0.2761  0.0638
 8396W        W23527  12.291   1.354   3.685 -0.1994 -0.0684 -0.1322
 8397W        W23528   4.084  14.736   2.753 -0.2357  0.2437 -0.3370
 8398W        W23529  17.582   4.029   3.088 -0.2320  0.0623 -0.2164
 8399W        W23530  16.581   5.255  12.985 -0.0930  0.1700 -0.2713
 8400W        W23531   2.109   4.202  13.715 -0.0943 -0.1226  0.0399
 8401W        W23532  10.840  12.749   5.680  0.0697 -0.1532  0.0609
 8402W        W23533   5.915   4.700  14.892  0.1159  0.1874 -0.1624
 8403W        W23534   5.540  11.936   4.980  0.0553  0.1938  0.1404
 8404W        W23535  15.873  16.860  15.006  0.1470  0.0828  0.0470
 8405W        W23536   1.130   6.969   0.271  0.1945 -0.1133  0.0218
 8406W        W23537  11.896   5.836   1.626  0.1191 -0.1645 -0.0865
 8407W        W23538  11.761   2.834  10.707  0.1357 -0.2174 -0.1690
 8408W        W23539   9.571   8.070   0.967 -0.3152  0.2215  0.0792
 8409W        W23540  12.319  10.550   3.920 -0.0975  0.0542  0.1288
 8410W        W23541   2.633   4.830   3.576 -0.1855  0.1512  0.0153
 8411W        W23542   7.340  12.695  15.852 -0.1765 -0.1832 -0.2331
 8412W        W23543  13.323   8.303   3.938 -0.0991 -0.0773 -0.0809
 8413W        W23544   1.083   6.418  11.578 -0.3255  0.0043 -0.0753
 8414W        W23545   3.925  10.716  13.977  0.2267 -0.1643  0.3246
 8415W        W23546  15.527  11.237  14.036 -0.1077  0.0209  0.1486
 8416W        W23547  11.403   5.932  13.052 -0.1497 -0.3206 -0.0946
 8417W        W23548  11.538  16.194  12.562  0.1347 -0.4128  0.3156
 8418W        W23549  12.155   2.819   2.555  0.3004 -0.4194 -0.2022
 8419W        W23550   9.286   6.018   3.556  0.1623 -0.0095 -0.0339
 8420W        W23551  12.560  13.308   3.820 -0.3688  0.0282  0.0565
 8421W        W23552   8.840   9.377  16.145 -0.1828 -0.2871 -0.2054
 8422W        W23553  11.910  12.645   4.803 -0.2601  0.0233  0.0481
 8423W        W23554   1.761  13.374  14.464 -0.0411  0.2734 -0.3039
 8424W        W23555   6.652  15.509  13.146  0.0063  0.1076 -0.1014
 8425W        W23556  12.707   7.014  15.156 -0.2626  0.0761  0.1904
 8426W        W23557  13.475   1.349  16.781  0.2252  0.0053  0.2864
 8427W        W23558   9.161  14.990  16.245 -0.0077  0.1503  0.3597
 8428W        W23559  15.795  16.619   0.086  0.0134  0.3143 -0.1527
 8429W        W23560  12.451  16.093   3.913 -0.0715  0.1435  0.1968
 8430W        W23561  16.283  12.562   3.554 -0.0564 -0.2315 -0.0309
 8431W        W23562   9.928   9.189  12.970  0.1577 -0.1339 -0.0397
 8432W        W23563   1.453  13.095   3.626 -0.1357 -0.2769 -0.2507
 8433W        W23564   0.010  11.566  11.370 -0.1353 -0.3849  0.0831
 8434W        W23565   9.878  17.022  15.683  0.0825 -0.0744  0.0981
 8435W        W23566  15.399   2.032   0.445 -0.1279  0.0954 -0.2527
 8436W        W23567  17.025   2.385  14.999  0.0515  0.0738  0.2587
 8437W        W23568  17.678   6.625   2.789  0.1021 -0.0794  0.1208
 8438W        W23569   1.890  14.436   3.295 -0.2972 -0.3143  0.0613
 8439W        W23570  13.163   1.381  15.141 -0.2197  0.1271 -0.1395
 8440W        W23571   8.208   5.989  11.711 -0.2151 -0.3802 -0.3304
 8441W        W23572  16.135   9.866   0.402  0.0317 -0.0063 -0.0134
 8442W        W23573  12.276   9.361   0.349 -0.2360  0.1818 -0.2414
 8443W        W23574  14.935   1.259  12.731  0.1199  0.1114  0.1386
 8444W        W23575   2.893   4.679  15.232 -0.0517 -0.0333 -0.0468
 8445W        W23576  14.503  14.641  12.663 -0.1272 -0.0582 -0.0673
 8446W        W23577  10.226   6.802   2.903  0.2164 -0.0641  0.0094
 8447W        W23578  12.561  16.936   3.418  0.0598 -0.0002 -0.0368
 8448W        W23579  13.871   7.596  11.525  0.0066  0.2602 -0.3081
 8449W        W23580  12.809  16.126   3.104  0.0405  0.3454 -0.2891
 8450W        W23581   5.394  11.366   2.987  0.0802 -0.0679  0.2645
 8451W        W23582  11.740  11.009   4.587  0.2168 -0.2583  0.0835
 8452W        W23583   5.667  15.191   3.241 -0.0881  0.0631  0.3556
 8453W        W23584  16.309  13.663   2.677 -0.2175 -0.4802 -0.1390
 8454W        W23585   4.427   1.987   1.642  0.0435 -0.2032 -0.1640
 8455W        W23586  14.620   9.738  12.952 -0.2209  0.0524 -0.2609
 8456W        W23587  10.249   9.226  15.576 -0.3353 -0.0716 -0.1194
 8457W        W23588  17.022  12.486   2.816  0.2344  0.0995  0.1924
 8458W        W23589   6.999  10.218   0.091 -0.0358 -0.0204  0.1699
 8459W        W23590   5.247  16.058  12.432  0.0698 -0.3709  0.0633
 8460W        W23591  11.527   0.061   7.050 -0.0407 -0.1934  0.1382
 8461W        W23592   9.621   2.434   6.578 -0.3580  0.2223 -0.0636
 8462W        W23593   0.529   1.600  11.230  0.0219  0.3100  0.1301
 8463W        W23594  12.064  12.303   1.841 -0.0246 -0.1186  0.1409
 8464W        W23595   3.520  10.702   0.578  0.1334 -0.2317  0.0271
 8465W        W23596   5.093  16.654   1.664 -0.0232  0.1211 -0.2097
 8466W        W23597   2.221   2.613  12.115  0.1710 -0.0564 -0.3556
 8467W        W23598  10.476  12.297  13.937 -0.2964 -0.0973  0.1439
 8468W        W23599  11.118  12.180   3.388  0.1330 -0.0200 -0.0527
 8469W        W23600   8.187  10.531   3.786 -0.0495  0.0733  0.0806
 8470W        W23601  16.103   6.044   0.772 -0.2360  0.0372  0.1596
 8471W        W23602   1.504  15.603  14.740 -0.4403 -0.0619  0.1953
 8472W        W23603  13.953  12.295  14.958 -0.0650  0.1352  0.0844
 8473W        W23604  12.905  11.948   3.516  0.0652 -0.4790 -0.1727
 8474W        W23605   8.530   4.036  13.635  0.0939 -0.0445 -0.4488
 8475W        W23606  17.664   7.213   3.312 -0.2199 -0.2071 -0.1190
 8476W        W23607   1.198   1.173  12.254  0.1023 -0.2650  0.1133
 8477W        W23608   1.921   8.989   4.702 -0.0368 -0.1210 -0.1867
 8478W        W23609   7.501  11.233   3.243  0.1208  0.5116 -0.1006
 8479W        W23610  16.129  15.484   5.392 -0.3077  0.2391 -0.1257
 8480W        W23611   6.872   4.439  15.409 -0.2493  0.0374 -0.2158
 8481W        W23612   8.521  13.723  13.969 -0.1355  0.0184  0.0974
 8482W        W23613   2.948  12.296   4.259 -0.1989 -0.0403 -0.3930
 8483W        W23614   1.653   8.430  13.687 -0.0003  0.0926  0.1143
 8484W        W23615   6.705  16.077   1.254  0.3476  0.0827 -0.0775
 8485W        W23616   8.535  16.047   4.770 -0.0860  0.0873 -0.0732
 8486W        W23617   7.727  10.839   3.056 -0.3173 -0.3843 -0.0572
 8487W        W23618  12.607   2.554  11.534  0.1043 -0.0911 -0.1040
 8488W        W23619  15.541   8.498  12.663 -0.0188  0.0450  0.0882
 8489W        W23620   2.668  15.907  13.906 -0.1625  0.2292 -0.0429
 8490W        W23621  13.902   4.735  14.544  0.1587 -0.3064  0.2807
 8491W        W23622   9.437   4.609  14.585  0.0140 -0.3223  0.1294
 8492W        W23623  13.597   4.080  11.731 -0.0240  0.3199 -0.2841
 8493W        W23624   8.890  13.472  16.676 -0.0121  0.1642  0.0442
 8494W        W23625  12.957   7.144   4.944 -0.1394  0.1377 -0.2029
 8495W        W23626   6.429   5.447  12.962 -0.0201 -0.1569  0.2479
 8496W        W23627   0.834  13.855  13.770 -0.2022  0.3369 -0.1345
 8497W        W23628  15.723   8.077  14.713 -0.0948 -0.1139  0.0249
 8498W        W23629  11.698  12.000   2.057  0.0250  0.3966 -0.3072
 8499W        W23630  16.941   9.995   2.005  0.1786  0.0746 -0.0748
 8500W        W23631   4.556   7.259   6.202  0.0266 -0.0564 -0.0922
 8501W        W23632   3.033   5.104  14.982  0.0663  0.0082  0.0802
 8502W        W23633   6.452   8.452  14.501  0.2308  0.0898 -0.0163
 8503W        W23634  17.620   7.860   0.497 -0.1603 -0.1592  0.0119
 8504W        W23635   3.663   2.465  13.625 -0.1694 -0.3100  0.0789
 8505W        W23636  17.394  11.149   3.501 -0.1758 -0.0541  0.0462
 8506W        W23637  15.344  13.479  15.407 -0.2198  0.2668  0.1494
 8507W        W23638   6.580   7.858  12.670  0.0634 -0.0713 -0.1986
 8508W        W23639   9.815  15.850   1.511  0.1267  0.2796 -0.1017
 8509W        W23640  17.712   4.432  15.287  0.1209 -0.0154  0.1539
 8510W        W23641   0.463  14.063  15.945 -0.3599  0.1567 -0.1750
 8511W        W23642   5.961  15.489   3.610 -0.0152 -0.0247 -0.0685
 8512W        W23643   5.036   7.495  16.561 -0.1488 -0.2475  0.0598
 8513W        W23644  17.109   1.202  13.422  0.1738  0.0134 -0.1694
 8514W        W23645   6.026  16.811   2.245  0.0911 -0.0873 -0.1870
 8515W        W23646   2.100   8.804  16.085  0.1352  0.0288 -0.1003
 8516W        W23647  16.817   0.080   4.663 -0.1600 -0.0974 -0.1377
 8517W        W23648  16.224   1.058   5.070 -0.0006  0.1660 -0.0818
 8518W        W23649   4.975   8.663   0.368  0.3883 -0.0393  0.1523
 8519W        W23650  15.535  12.248   3.919 -0.0024 -0.3271  0.0638
 8520W        W23651   6.943  14.582  12.283  0.0981  0.0584 -0.0094
 8521W        W23652   5.639   7.517   0.482 -0.2764  0.2529  0.1235
 8522W        W23653   5.747   7.136   5.656  0.0560 -0.2198  0.1927
 8523W        W23654   9.035  12.670  14.980 -0.0540  0.2109  0.1611
 8524W        W23655  11.132  10.187  13.379 -0.3169 -0.1854 -0.0053
 8525W        W23656   8.089   0.787   3.342  0.0127  0.1134 -0.1529
 8526W        W23657  13.921   6.111  13.175 -0.1557 -0.3557 -0.2310
 8527W        W23658  17.488  16.483   1.522  0.0294  0.2593 -0.1752
 8528W        W23659   1.217   4.394   5.397 -0.1238  0.2437 -0.3569
 8529W        W23660   1.923  15.582   2.486  0.0535  0.0106 -0.1696
 8530W        W23661  10.205   2.133   1.829 -0.0473 -0.0055  0.0964
 8531W        W23662   8.148  11.424  14.524 -0.0252 -0.2968 -0.2914
 8532W        W23663   6.265   1.243  16.696  0.1471  0.3584 -0.1701
 8533W        W23664  14.552   1.449  13.597  0.1590 -0.1518 -0.0042
 8534W        W23665   1.960  14.229  16.912 -0.1541 -0.0449  0.2277
 8535W        W23666  14.748  14.751   3.284 -0.2459  0.1412 -0.0753
 8536W        W23667   2.400  10.852   5.037 -0.0098 -0.0485  0.1784
 8537W        W23668  12.566   2.481  13.437 -0.0512 -0.1183  0.0272
 8538W        W23669   9.251   7.066   2.251  0.2209 -0.1728 -0.0490
 8539W        W23670  16.282  14.666  16.874  0.2205 -0.1570  0.1238
 8540W        W23671   5.963   5.771  15.088 -0.1237  0.1471 -0.0416
 8541W        W23672  14.541  13.331  15.381  0.0030  0.3726  0.2342
 8542W        W23673   0.576  14.053  14.985  0.1738  0.0291 -0.0316
 8543W        W23674   4.360   5.637  15.111  0.0137 -0.1821 -0.2050
 8544W        W23675  12.811  15.665  13.318 -0.0616  0.0918  0.1155
 8545W        W23676  12.303   6.242   2.077  0.3527  0.1466 -0.3072
 8546W        W23677  15.114  14.129  13.350 -0.1824  0.0877 -0.2416
 8547W        W23678   3.222   9.328  15.263 -0.0167  0.0332 -0.3246
 8548W        W23679  11.967   6.785   3.423  0.1534 -0.2124 -0.1179
 8549W        W23680  15.289   6.522   4.143  0.2315  0.0617  0.1197
 8550W        W23681  13.354  16.975  15.577  0.2561 -0.0024  0.0867
 8551W        W23682  16.114  15.837   4.260 -0.0886  0.3402  0.0600
 8552W        W23683  13.624   2.352   0.714 -0.0248 -0.2156 -0.2542
 8553W        W23684   1.501   9.073   3.578 -0.3393  0.0837  0.0835
 8554W        W23685   4.883  13.419  15.492 -0.0734 -0.1452  0.1812
 8555W        W23686   5.881  14.050  14.149 -0.3413  0.0135  0.0020
 8556W        W23687  16.507   3.298   3.214  0.2689  0.0049 -0.1070
 8557W        W23688   0.793   1.272  16.929  0.0536  0.0304  0.0411
 8558W        W23689   1.675   0.565   1.116 -0.0955 -0.1076  0.0344
 8559W        W23690  10.230  14.121  16.439 -0.5394  0.0876 -0.0844
 8560W        W23691   6.257  10.451   6.541 -0.0022  0.2637 -0.0621
 8561W        W23692   3.957   0.787  13.758  0.1080 -0.0626  0.0676
 8562W        W23693   4.700   4.764   2.547  0.0019  0.1693 -0.0400
 8563W        W23694  15.321   7.038  10.695  0.1260  0.0427  0.1057
 8564W        W23695  13.505  11.095   2.279  0.1989 -0.0683  0.1038
 8565W        W23696  17.188   6.405   3.454  0.2385  0.0579 -0.0477
 8566W        W23697  15.248   9.279  13.439 -0.0862  0.0955 -0.1634
 8567W        W23698   6.183  15.893  16.165 -0.3498 -0.1714  0.0439
 8568W        W23699   7.993   9.241   1.723  0.1462 -0.0292 -0.0714
 8569W        W23700  15.360   2.980  11.826 -0.0834 -0.1438  0.0984
 8570W        W23701  15.643  10.802  14.950 -0.2317 -0.3543 -0.3440
 8571W        W23702   1.141   3.860   1.669  0.2392 -0.0264 -0.0614
 8572W        W23703  12.019   3.892   3.547 -0.1568  0.1591  0.0673
 8573W        W23704   6.171   8.056   3.617 -0.2298  0.3179  0.1588
 8574W        W23705   3.431   0.990  12.026  0.0945  0.1262 -0.0692
 8575W        W23706   9.893  17.610   5.880 -0.2467 -0.3386 -0.0663
 8576W        W23707  15.729   3.214  13.474 -0.2996 -0.1315 -0.0750
 8577W        W23708   3.963  16.004   2.085 -0.0226 -0.2104  0.0920
 8578W        W23709   7.884  12.573  15.929  0.3056  0.2377  0.2023
 8579W        W23710  12.875   8.017  13.261  0.0840 -0.2945 -0.1347
 8580W        W23711  13.619   1.888  13.838 -0.0029  0.0112 -0.1666
 8581W        W23712   7.800   2.653   4.357  0.1525  0.2238 -0.3236
 8582W        W23713   3.440  14.248   1.276 -0.0018 -0.1580 -0.0960
 8583W        W23714   3.072   3.784  11.394 -0.1810  0.0104 -0.0674
 8584W        W23715   9.937   5.054  13.949  0.2692 -0.0957 -0.0230
 8585W        W23716   0.007  10.670  12.504 -0.2827  0.3602 -0.0782
 8586W        W23717  17.476   8.895   3.805  0.1040 -0.1011 -0.2976
 8587W        W23718  17.586  13.661   1.147 -0.1821  0.0783  0.3918
 8588W        W23719   0.144  12.120   3.580 -0.4247  0.2634  0.3309
 8589W        W23720   6.305  11.241   2.734 -0.0252 -0.2783 -0.3551
 8590W        W23721  15.143   8.906   5.140  0.2632  0.1034 -0.1614
 8591W        W23722   2.228   9.153  14.281  0.2230 -0.0073  0.1752
 8592W        W23723  11.692   1.836   1.022 -0.0372  0.2420 -0.1085
 8593W        W23724   2.139   5.041  12.587  0.2764  0.1127 -0.0195
 8594W        W23725   9.044  14.787   4.186 -0.0654  0.1583 -0.0790
 8595W        W23726   4.112   7.895  15.774  0.0905 -0.1951  0.1690
 8596W        W23727   5.449   1.372  10.932 -0.0921  0.0714  0.1420
 8597W        W23728   6.022   9.220   5.520  0.1564 -0.4360 -0.1380
 8598W        W23729  17.207   5.761   2.504 -0.2774  0.0068  0.1165
 8599W        W23730  12.978  15.525   4.958  0.0741 -0.2407 -0.0391
 8600W        W23731  13.594  15.909   3.859 -0.0490 -0.1703  0.2233
 8601W        W23732   4.348   6.757  14.348 -0.0254 -0.1627  0.0323
 8602W        W23733  15.601   3.531  15.126 -0.3066 -0.3980 -0.0459
 8603W        W23734  16.432   7.722  13.195  0.2253 -0.0239  0.4222
 8604W        W23735   0.715  11.810   4.369 -0.1546 -0.1555 -0.1509
 8605W        W23736   3.193   1.928   1.079  0.1184 -0.0195  0.0697
 8606W        W23737   4.154  11.644   5.583 -0.4546 -0.0255  0.0414
 8607W        W23738   8.843  14.786   4.949 -0.2860 -0.4156  0.2741
 8608W        W23739  17.255   1.534  13.781  0.0957  0.0026  0.0700
 8609W        W23740  11.177  10.657  11.791  0.0445  0.1137 -0.2671
 8610W        W23741   5.754  15.941   0.942  0.1298 -0.0074  0.2875
 8611W        W23742  10.930   4.007   6.154 -0.1280 -0.1346 -0.0757
 8612W        W23743   0.568   8.999  13.382  0.1684  0.1455  0.1156
 8613W        W23744   8.846   9.023  13.780  0.2063  0.2268  0.0141
 8614W        W23745  10.884   5.379  14.198  0.3134 -0.0019 -0.0549
 8615W        W23746   7.876  10.178   2.134 -0.1967 -0.0645  0.1947
 8616W        W23747  10.152  12.530  15.079 -0.1982  0.2245 -0.0369
 8617W        W23748   1.046   4.790  16.360  0.0805 -0.1856  0.2329
 8618W        W23749   6.858   4.614  13.238 -0.0240 -0.1622 -0.1385
 8619W        W23750   5.861   2.941  14.142  0.5014  0.0311 -0.2990
 8620W        W23751   6.415   2.363  11.328 -0.1090  0.1171 -0.0873
 8621W        W23752   5.323  12.604  11.175  0.0095  0.0581 -0.0877
 8622W        W23753  16.151   4.306  10.613  0.1307  0.1150  0.0886
 8623W        W23754  16.309   7.377   5.095  0.0443 -0.0078 -0.0984
 8624W        W23755  13.365  15.461   1.448  0.0219  0.1605  0.0940
 8625W        W23756  17.198   4.328  11.378  0.1172 -0.2246  0.1329
 8626W        W23757   7.834  13.711  16.559 -0.0636 -0.4072  0.2332
 8627W        W23758   8.978  14.943  14.036 -0.0423  0.0180  0.1063
 8628W        W23759  11.310   1.231   2.139  0.0623 -0.0218 -0.1847
 8629W        W23760  10.058   8.885  12.511  0.0817  0.1517  0.1508
 8630W        W23761  12.830   5.815   4.272 -0.0439  0.1181  0.0838
 8631W        W23762  11.768  11.965   3.621  0.3085  0.0175  0.0602
 8632W        W23763   2.011  10.990  16.637 -0.1888 -0.2865 -0.0844
 8633W        W23764   5.328   0.545   2.681 -0.1723  0.0723  0.2189
 8634W        W23765  10.929  16.855  14.771  0.0882  0.2060  0.0056
 8635W        W23766  14.733   4.939  15.439  0.1337  0.0090  0.0170
 8636W        W23767  14.955   3.078  14.943 -0.0169 -0.2853 -0.2437
 8637W        W23768   3.298   0.958   3.984  0.0100  0.1356 -0.2551
 8638W        W23769   1.575  16.688   3.848  0.1152 -0.3360 -0.1056
 8639W        W23770   9.881   8.536   3.198 -0.0984 -0.0715 -0.1351
 8640W        W23771   5.971   6.243  12.620  0.2015  0.1514 -0.2396
 8641W        W23772  16.505  12.971  16.761  0.0043 -0.0818  0.0174
 8642W        W23773   6.240   3.423   1.259 -0.2457  0.0548 -0.1614
 8643W        W23774   2.618  15.394  16.381  0.2003  0.2189  0.2722
 8644W        W23775   9.199  16.502  12.844  0.2423  0.0973 -0.0306
 8645W        W23776  14.024   8.131  16.711  0.0098  0.0084 -0.1777
 8646W        W23777  13.136   1.593   4.550  0.0067  0.1874  0.0258
 8647W        W23778  14.630   8.478  11.200 -0.1386  0.3405  0.2806
 8648W        W23779  12.901  10.312   5.385  0.1378 -0.0864  0.1164
 8649W        W23780   4.924   9.109   1.229  0.1551  0.0979  0.0419
 8650W        W23781   8.921  12.479  15.561 -0.0869 -0.0218  0.0458
 8651W        W23782  15.479   7.943   0.299  0.4528  0.0937 -0.1011
 8652W        W23783  16.578  12.119   2.824  0.0759  0.2216  0.2450
 8653W        W23784  16.399  16.964  15.049 -0.0088  0.1728 -0.2481
 8654W        W23785  13.295  15.910   3.295 -0.0706 -0.4278  0.2077
 8655W        W23786  15.174  14.771   0.366  0.0552 -0.1323 -0.0954
 8656W        W23787   0.756   4.028   4.718  0.0488 -0.0396  0.1512
 8657W        W23788  11.761  12.004   4.686 -0.2175 -0.1517 -0.2482
 8658W        W23789   2.468   8.190   4.805  0.0973  0.1401 -0.4966
 8659W        W23790  15.734   3.855  12.339 -0.0559  0.0599 -0.0662
 8660W        W23791   0.038   9.321  12.760 -0.1461 -0.2594 -0.1348
 8661W        W23792   2.206   5.881  12.116  0.3458  0.1168  0.0213
 8662W        W23793  11.886   6.254  15.530 -0.1080 -0.0652  0.1144
 8663W        W23794   6.414   1.226  12.371 -0.1143 -0.1270 -0.2758
 8664W        W23795   4.467   2.239   4.663 -0.2408  0.1281  0.1664
 8665W        W23796   4.641   1.005  13.735  0.1804  0.0490  0.0206
 8666W        W23797  12.286  14.252  15.528 -0.0805  0.1456 -0.1311
 8667W        W23798   9.211  10.730   1.003 -0.1547  0.0577  0.1987
 8668W        W23799   3.850   4.359   3.502 -0.1813  0.2136  0.0824
 8669W        W23800  16.236  13.921  15.612 -0.0752  0.0583 -0.1760
 8670W        W23801  14.496   6.404   5.833  0.0047  0.1424  0.3114
 8671W        W23802  12.418  11.975   2.813  0.3234 -0.1953 -0.1560
 8672W        W23803  10.373  12.457  12.093  0.1341 -0.0681  0.0732
 8673W        W23804  17.445   8.559  16.252  0.1310  0.0696  0.0316
 8674W        W23805   2.152   3.205  15.831 -0.0925 -0.0121 -0.0653
 8675W        W23806   3.161   7.366   5.053 -0.1157  0.3236  0.1743
 8676W        W23807  13.657  12.587   5.056 -0.2958 -0.0305  0.1637
 8677W        W23808   5.489  16.560  16.564 -0.2706  0.2454  0.0792
 8678W        W23809  13.061  12.669  12.354 -0.2336 -0.1252 -0.2110
 8679W        W23810  12.559  16.823  16.155  0.1285 -0.0219 -0.1074
 8680W        W23811   5.900  17.322  12.110 -0.0268 -0.0997  0.0381
 8681W        W23812   1.675  11.798  16.082 -0.3050  0.2684 -0.0513
 8682W        W23813   6.464  12.068  16.423 -0.0072  0.0481 -0.0263
 8683W        W23814  17.265  10.415  16.371 -0.2613 -0.1054  0.0308
 8684W        W23815   4.035  10.304   2.373 -0.2013  0.0438  0.0665
 8685W        W23816   7.094  10.193   3.170  0.0138 -0.2622 -0.0378
 8686W        W23817   4.005  15.926   1.566  0.0255 -0.0177  0.3525
 8687W        W23818  11.738   9.714  15.166  0.0593 -0.0112 -0.0016
 8688W        W23819   3.892  14.180   2.080  0.3024  0.3411 -0.0621
 8689W        W23820  11.073   4.282  12.928 -0.2375  0.0056 -0.0778
 8690W        W23821   7.552   8.278   3.944 -0.0124 -0.0811 -0.2355
 8691W        W23822   7.367   0.787   4.755 -0.0783  0.0154 -0.0552
 8692W        W23823   4.893  16.497   4.149  0.1108 -0.1564 -0.0936
 8693W        W23824  17.584  15.898  11.352 -0.1075 -0.1089 -0.2135
 8694W        W23825   8.751  13.847   1.090 -0.1384  0.2152 -0.1000
 8695W        W23826   2.384  10.450   0.953 -0.2003 -0.3467  0.0461
 8696W        W23827  11.261  10.721  14.921  0.0736 -0.0437  0.0506
 8697W        W23828   5.672   3.362   0.630  0.2479 -0.1854  0.1036
 8698W        W23829  14.851  16.361  14.707  0.0285  0.1105  0.1090
 8699W        W23830   6.254   0.804  12.647 -0.2272 -0.2537  0.1669
 8700W        W23831  16.386   7.317  12.838 -0.0958  0.0035  0.1782
 8701W        W23832   6.764  12.736   3.400  0.0990  0.2559  0.1165
 8702W        W23833  16.468  14.189   3.288  0.2341 -0.1877  0.3417
 8703W        W23834  15.526  16.861   0.522 -0.1129  0.1366  0.1215
 8704W        W23835  16.228  15.944  14.812 -0.0927 -0.1170  0.0480
 8705W        W23836   6.232   7.574  13.830 -0.0089 -0.0892  0.4084
 8706W        W23837   8.077  12.437   1.830  0.1129  0.0154  0.0481
 8707W        W23838  11.976   5.704  13.299  0.2997  0.0402 -0.0062
 8708W        W23839   4.348   2.814   3.902 -0.0362 -0.2187 -0.0238
 8709W        W23840   6.503  10.810  15.518 -0.0268 -0.0548  0.0507
 8710W        W23841   8.080   9.902   2.558  0.4260  0.2010 -0.4240
 8711W        W23842   6.978  14.509   1.693  0.1946  0.0984  0.0401
 8712W        W23843  13.030   1.117   6.553 -0.0466 -0.0117  0.0504
 8713W        W23844   9.084   8.798   4.396  0.1089 -0.0455  0.0519
 8714W        W23845  11.299   7.749  16.347 -0.0803  0.2112  0.4420
 8715W        W23846  12.219  12.563   2.616 -0.1156 -0.2420 -0.1936
 8716W        W23847  11.575  15.473  13.509 -0.0539  0.1239 -0.1506
 8717W        W23848   0.051  11.492   1.962  0.1279 -0.1690  0.1487
 8718W        W23849   0.776   5.624  13.260  0.1588 -0.1932 -0.2469
 8719W        W23850  12.195   5.709  11.088  0.0281  0.0341  0.0249
 8720W        W23851  17.123  11.763  13.438 -0.2878  0.1879 -0.1180
 8721W        W23852   8.733   6.035  13.771  0.0648  0.1619 -0.0720
 8722W        W23853  16.120  11.808   1.028 -0.0640 -0.4099  0.0969
 8723W        W23854  11.180   3.939  12.501 -0.2635  0.1970  0.3113
 8724W        W23855  14.113  10.662   4.057 -0.1537  0.0453 -0.0086
 8725W        W23856  10.702   7.819  16.163  0.2063 -0.3077  0.0530
 8726W        W23857   1.229   6.557   2.743 -0.1962  0.0359 -0.2950
 8727W        W23858  15.107   2.245   4.247  0.3825 -0.2619 -0.1354
 8728W        W23859   2.046  15.068   5.676  0.0671 -0.0325 -0.2010
 8729W        W23860  12.915  15.961   3.629  0.1828  0.0728  0.1208
 8730W        W23861   1.597   1.872  13.595  0.0636  0.1930  0.0323
 8731W        W23862  14.807   3.591  14.987 -0.0255 -0.0638 -0.0488
 8732W        W23863   9.395  11.391   5.342  0.0827 -0.1772 -0.2757
 8733W        W23864   9.102  12.409   2.926 -0.1490 -0.0242  0.0133
 8734W        W23865  13.444   7.534  14.573 -0.1927  0.0102  0.1256
 8735W        W23866   0.414   2.998   1.046 -0.2473  0.0021 -0.2045
 8736W        W23867   9.474   4.492  12.137  0.0485  0.0500  0.0038
 8737W        W23868  13.962   5.233   1.072  0.0064 -0.2683  0.2109
 8738W        W23869   0.051   4.664  15.797 -0.1840  0.2963 -0.0662
 8739W        W23870   3.361  16.336  15.155  0.1155  0.0097  0.1549
 8740W        W23871   0.250  15.155   0.536 -0.1057 -0.0095 -0.1506
 8741W        W23872  16.025   5.601  14.246 -0.1157 -0.0349  0.3009
 8742W        W23873   7.562  10.434   4.462 -0.2533 -0.0624  0.1122
 8743W        W23874  15.181  12.615  16.597  0.1246  0.2885 -0.2403
 8744W        W23875   9.901  15.976  13.030 -0.0800  0.1675  0.1777
 8745W        W23876   2.345   4.742  15.101  0.0421 -0.2853 -0.2192
 8746W        W23877   4.212  11.996   0.344 -0.1621  0.0620 -0.1008
 8747W        W23878   1.687  13.458   1.030  0.1484  0.1791  0.0669
 8748W        W23879  10.320  14.590  16.887  0.1359  0.2934 -0.0692
 8749W        W23880   4.974  10.183   0.450 -0.0884 -0.2034 -0.0066
 8750W        W23881   9.748   8.781  14.529 -0.1625  0.1825 -0.3112
 8751W        W23882  12.829  16.641  13.418 -0.0354 -0.0554 -0.0462
 8752W        W23883   4.878  12.867  14.106 -0.0818  0.2662  0.0055
 8753W        W23884  12.551  12.450   3.644  0.4414 -0.0815  0.1603
 8754W        W23885   0.271  12.590   0.415  0.0177  0.0023 -0.2064
 8755W        W23886  10.763   3.602  13.181  0.0991  0.1066  0.0188
 8756W        W23887  14.038   8.668  15.463 -0.0637 -0.1315  0.0476
 8757W        W23888  10.466  15.517  16.080 -0.4203 -0.0139 -0.0592
 8758W        W23889   9.394   6.931  13.025 -0.1035  0.1983  0.0235
 8759W        W23890  16.314  15.286   1.028 -0.0279  0.1541  0.0699
 8760W        W23891   0.624  16.068   6.005  0.1250 -0.1165  0.0274
 8761W        W23892   8.225  17.359   4.809  0.1500 -0.2186  0.2249
 8762W        W23893   7.585   1.975  15.884 -0.0044  0.1900  0.0494
 8763W        W23894  17.691  12.000   1.998 -0.0403 -0.0458 -0.0470
 8764W        W23895   6.009  15.965   4.530 -0.0883  0.0223 -0.0714
 8765W        W23896  10.230  13.858   3.403 -0.1635  0.0460 -0.0245
 8766W        W23897   8.784   0.762  11.092 -0.0037 -0.0435 -0.0417
 8767W        W23898   6.456   7.532  16.480  0.0038  0.1568 -0.1862
 8768W        W23899   5.250   9.800  12.622 -0.0817 -0.1462 -0.0364
 8769W        W23900  10.232  17.127   4.601  0.0747 -0.0664 -0.2172
 8770W        W23901   8.735   6.485  16.141 -0.4343 -0.2389  0.0802
 8771W        W23902   6.226   7.521  15.843  0.2349  0.0353  0.0369
 8772W        W23903   0.477  13.886   2.005 -0.1137 -0.0783  0.4398
 8773W        W23904   0.372  15.237   1.597  0.0530  0.3414  0.3571
 8774W        W23905   3.489   6.751   0.148 -0.0601 -0.1566 -0.0756
 8775W        W23906  10.996   9.079   3.924 -0.0527 -0.0243  0.0386
 8776W        W23907   7.098  13.368   2.124 -0.0887 -0.3267 -0.1820
 8777W        W23908   5.674   1.554   5.290  0.0768  0.2955 -0.0887
 8778W        W23909  14.899   9.886   1.320  0.2704 -0.3396  0.0333
 8779W        W23910   7.774   2.039   3.063 -0.1780 -0.0645 -0.1023
 8780W        W23911   9.871  10.162   2.702  0.2203 -0.0419  0.1348
 8781W        W23912   8.687  16.814   2.367  0.0874  0.1341 -0.1391
 8782W        W23913   0.776   4.872   1.154  0.1509 -0.0459 -0.3546
 8783W        W23914  10.282   2.587   0.910 -0.0029  0.0328  0.1767
 8784W        W23915   4.570  17.649   2.120  0.1061 -0.1256  0.2505
 8785W        W23916  14.130   6.031   5.725  0.2508  0.2093 -0.1183
 8786W        W23917   4.042   2.242   1.890  0.2239  0.0277  0.0919
 8787W        W23918  11.163  15.554  16.800  0.0718  0.2213  0.1347
 8788W        W23919   6.799  13.953  15.248 -0.2344  0.1820  0.0908
 8789W        W23920  16.180  11.568  12.062  0.0312 -0.0443 -0.0230
 8790W        W23921   8.529   2.446  16.767  0.1074  0.1296 -0.0355
 8791W        W23922  10.285  13.727   4.531  0.2426 -0.0501  0.0880
 8792W        W23923  15.923  17.633  11.696 -0.1301  0.0697 -0.0760
 8793W        W23924   4.197  13.723   0.556 -0.0280  0.1803  0.1664
 8794W        W23925   3.409   9.612  11.544  0.2182  0.2198 -0.1957
 8795W        W23926  12.480  11.017  13.475 -0.2493 -0.2082  0.3160
 8796W        W23927   9.804  13.498   0.336 -0.2145 -0.1078 -0.1642
 8797W        W23928  12.313   5.276   2.105 -0.0982  0.1464  0.2303
 8798W        W23929  11.744   8.630  12.223  0.1037  0.0336 -0.3455
 8799W        W23930  11.546  13.893   5.367  0.2716  0.2204 -0.0597
 8800W        W23931   8.013  13.887   3.023 -0.0995 -0.0735  0.0543
 8801W        W23932   9.009   7.910   4.171 -0.0015 -0.1197  0.0564
 8802W        W23933  12.372  10.475   3.096 -0.0593 -0.1584  0.0034
 8803W        W23934   1.575   3.731   3.103  0.2157 -0.0587 -0.1417
 8804W        W23935  15.757  14.089   6.351  0.0576  0.0038 -0.1404
 8805W        W23936   6.734   3.495   1.254 -0.0987  0.0935  0.4398
 8806W        W23937  10.496  16.248  12.375  0.0916 -0.1563 -0.2466
 8807W        W23938   4.110   4.824  12.863 -0.1006 -0.2424  0.0848
 8808W        W23939   1.551   2.784  15.021 -0.1066  0.0923 -0.0242
 8809W        W23940  17.474  15.607   3.100 -0.2335 -0.2377 -0.1650
 8810W        W23941   5.388  12.711  13.299  0.2532  0.1237 -0.0362
 8811W        W23942  16.762   4.496  16.243  0.2820  0.1403  0.0810
 8812W        W23943  14.677   5.715   1.340 -0.2480  0.1468 -0.0787
 8813W        W23944   2.423   1.003   3.102 -0.3893  0.0424 -0.0760
 8814W        W23945   5.941  12.144  16.549 -0.1266  0.0136 -0.1778
 8815W        W23946   2.597   4.855  11.335 -0.2483 -0.2757 -0.4943
 8816W        W23947  17.022  13.868   5.577 -0.0009  0.1814 -0.2584
 8817W        W23948   0.725   2.110   0.380 -0.0654  0.3776 -0.4121
 8818W        W23949  12.453  14.629   3.544 -0.4029 -0.2299 -0.3707
 8819W        W23950  13.918  14.362   2.207 -0.1888  0.0136  0.1412
 8820W        W23951  11.623  14.664  12.371  0.2196 -0.0557  0.0363
 8821W        W23952  16.234   9.465  11.526 -0.1834  0.0751  0.4167
 8822W        W23953  14.281   0.270   1.425 -0.1467 -0.2188 -0.3733
 8823W        W23954  13.630   4.607  11.704 -0.0882  0.0453  0.0878
 8824W        W23955   7.995  10.167   3.436 -0.0468  0.1037  0.4123
 8825W        W23956   3.282   1.320   4.382 -0.1692  0.1009  0.0408
 8826W        W23957  13.847   9.043  13.015 -0.2206 -0.1210  0.1374
 8827W        W23958   4.596  13.516   4.985 -0.0233  0.1087 -0.2843
 8828W        W23959  17.413   1.513  13.189 -0.1916 -0.1531 -0.0338
 8829W        W23960   6.460   9.131  13.829 -0.0822 -0.1214 -0.1546
 8830W        W23961  10.872   7.513   1.406 -0.2402 -0.0950  0.1137
 8831W        W23962  13.837   7.625  12.575 -0.1782 -0.0017  0.2295
 8832W        W23963  14.430   7.972  13.365  0.2400 -0.1318  0.0509
 8833W        W23964   4.964   5.295  10.825  0.1393  0.1445 -0.1522
 8834W        W23965   2.848  11.518   1.326 -0.1772 -0.2270 -0.0708
 8835W        W23966  14.775  14.462   6.328 -0.4265  0.2650  0.4156
 8836W        W23967  12.814  12.769   4.661 -0.4235  0.0641 -0.0976
 8837W        W23968   3.313   8.855   2.996  0.2286  0.1188 -0.1025
 8838W        W23969  13.222   9.901   5.260 -0.3940 -0.2579  0.0062
 8839W        W23970  13.688  13.880   5.459 -0.1871  0.4037 -0.5627
 8840W        W23971   9.331   5.703   1.457 -0.2418  0.0055  0.2438
 8841W        W23972  14.403   5.791  13.067 -0.0935 -0.2318  0.3910
 8842W        W23973   8.191   1.762   4.912  0.0282 -0.0677  0.0835
 8843W        W23974  15.677  13.102   2.730  0.0325  0.1325 -0.2463
 8844W        W23975  13.268   9.470  12.152  0.2350  0.0771 -0.1338
 8845W        W23976   7.601  12.503  16.771  0.1491 -0.3211 -0.2245
 8846W        W23977  11.845   4.096   2.654 -0.1266 -0.0139 -0.1986
 8847W        W23978   6.735  13.433   2.664  0.1402  0.0299  0.0690
 8848W        W23979  16.320   7.227   1.226 -0.0682 -0.1314  0.1878
 8849W        W23980   2.283  16.680   1.689 -0.0317  0.2760  0.1015
 8850W        W23981  17.234   3.160  15.727 -0.0543  0.0981  0.0515
 8851W        W23982   0.273  11.883   0.018  0.1818  0.0789  0.0724
 8852W        W23983  14.212   2.038  15.541 -0.0912 -0.0939 -0.4450
 8853W        W23984   6.970   0.128  15.064  0.2841  0.3862 -0.0678
 8854W        W23985  11.961  10.779  13.348  0.0804 -0.1026 -0.0706
 8855W        W23986   1.246   2.437   0.917  0.0225 -0.0890  0.0356
 8856W        W23987   9.016  12.365   6.227 -0.3390  0.1063  0.0221
 8857W        W23988  12.791   2.648  12.004 -0.0874 -0.6003 -0.1765
 8858W        W23989  10.897   1.864  13.822 -0.2126 -0.0361  0.1209
 8859W        W23990   8.609   4.539  11.886  0.0161  0.0522  0.1393
 8860W        W23991   8.313   8.783  12.152 -0.0822  0.0024  0.2181
 8861W        W23992   1.909  16.192   5.243  0.1222 -0.0435  0.1905
 8862W        W23993  12.460  10.611  13.216  0.1145 -0.2212  0.0987
 8863W        W23994  13.235   3.953   4.857 -0.5250  0.2702  0.1301
 8864W        W23995  14.223   7.410   4.676  0.1098 -0.1831  0.0850
 8865W        W23996  17.324  14.824   3.226  0.1080  0.0323 -0.1188
 8866W        W23997   2.742  11.629  11.460 -0.1607 -0.1568 -0.3921
 8867W        W23998   5.626  17.458   2.917 -0.0048  0.1973 -0.0394
 8868W        W23999   4.226   1.317  12.517  0.1020  0.1124  0.0478
 8869W        W24000  10.881   5.135   0.342  0.3465 -0.2935  0.0129
 8870W        W24001   2.662   3.702   2.598  0.0675  0.0275 -0.1160
 8871W        W24002  10.664  17.482   3.796 -0.1464 -0.1734  0.1387
 8872W        W24003  16.918  12.321   5.885  0.0886  0.1740 -0.0651
 8873W        W24004  11.488  13.599   2.657  0.0849  0.3455  0.0953
 8874W        W24005  11.736   2.390  16.783  0.0166 -0.1551  0.1418
 8875W        W24006   0.339   9.985  16.524  0.1568 -0.2839 -0.0867
 8876W        W24007   4.919   6.581   4.782 -0.1051 -0.0715 -0.1209
 8877W        W24008   4.966  13.194  16.306 -0.1036  0.1100  0.1655
 8878W        W24009  17.376  14.598   1.439  0.1568  0.1995 -0.3587
 8879W        W24010   0.856  16.094  15.691  0.3192  0.0154 -0.0990
 8880W        W24011   9.848   0.735  16.362  0.1351 -0.2144 -0.1437
 8881W        W24012   9.691   2.235  14.568  0.4753 -0.1211 -0.2298
 8882W        W24013  11.612   0.285  12.979  0.0281  0.1059  0.2856
 8883W        W24014  11.388   7.513   1.253  0.1304 -0.1619  0.0422
 8884W        W24015   0.934  15.838  16.907  0.0556  0.1083  0.2196
 8885W        W24016   2.201  12.510  13.995 -0.0273 -0.1357 -0.0895
 8886W        W24017   9.108  11.483   3.798 -0.1016 -0.0205 -0.1214
 8887W        W24018  11.731   6.727  12.290 -0.4845  0.0296  0.0373
 8888W        W24019  15.595   3.150  16.637  0.0614 -0.1899  0.0973
 8889W        W24020  12.380   6.838   1.451  0.0641  0.0998 -0.1569
 8890W        W24021   4.118   9.974   0.240 -0.1618 -0.3486  0.0105
 8891W        W24022   0.722   5.464  11.757 -0.0786  0.0757  0.2220
 8892W        W24023   5.277  14.096   4.113 -0.1895 -0.1787 -0.1163
 8893W        W24024  14.425  13.909   0.239  0.0536  0.1472  0.0478
 8894W        W24025   9.785  15.867   6.238 -0.0917  0.2582  0.0423
 8895W        W24026  13.453  16.001  12.935  0.1282  0.1935 -0.1225
 8896W        W24027  10.133  11.349  16.456  0.4739 -0.1674  0.0742
 8897W        W24028   4.477  12.079  15.132  0.0963  0.0910  0.0114
 8898W        W24029   7.077   6.179   5.549  0.0008  0.0469 -0.0804
 8899W        W24030  13.474   1.169  14.833 -0.2982  0.0399 -0.1210
 8900W        W24031   4.929  13.303  14.380 -0.1292 -0.1234  0.3075
 8901W        W24032  13.477   9.190  15.819  0.0689  0.1644  0.5840
 8902W        W24033  15.331   3.014   4.079 -0.0498  0.0237 -0.1848
 8903W        W24034   2.808  16.491  11.747  0.1516  0.2305 -0.0406
 8904W        W24035   8.946  13.247   0.268  0.0621  0.0321  0.2927
 8905W        W24036   6.194   4.456  12.021  0.4979 -0.0696  0.1701
 8906W        W24037   8.259  16.132   1.868 -0.3471 -0.0538  0.0875
 8907W        W24038  15.332   7.456   1.472  0.1168  0.0814  0.2035
 8908W        W24039   9.863  13.485  11.919 -0.3700 -0.3266  0.2013
 8909W        W24040   1.808   7.120  14.044  0.2237 -0.0515 -0.0246
 8910W        W24041  10.202   5.702  16.274 -0.0515  0.0519 -0.2587
 8911W        W24042  11.182  15.678   3.974  0.1096  0.1075 -0.0069
 8912W        W24043  14.122   7.334  15.295  0.2306 -0.2614 -0.3261
 8913W        W24044   3.508   7.026   3.235  0.0653  0.1785  0.0717
 8914W        W24045   0.216  10.839   0.022 -0.2775  0.3811 -0.3710
 8915W        W24046   9.490  11.821  12.501 -0.3480 -0.0013  0.1129
 8916W        W24047   6.166   6.490   4.568 -0.0097 -0.2471  0.0106
 8917W        W24048   8.680   3.859  14.145 -0.1539  0.0011 -0.0040
 8918W        W24049   4.466   5.818  12.728 -0.1299  0.1294  0.3537
 8919W        W24050   9.959  10.916  13.281  0.0609 -0.1878 -0.0491
 8920W        W24051   4.178   5.330  14.018 -0.1124  0.0862 -0.0782
 8921W        W24052   3.376   7.453  10.559  0.1708 -0.0160 -0.3343
 8922W        W24053  11.649  13.913  14.615  0.1474 -0.0940  0.0821
 8923W        W24054  16.902   1.101  14.359 -0.1548  0.0414  0.2572
 8924W        W24055  13.915   5.004   1.494  0.4973 -0.2758 -0.2195
 8925W        W24056  14.032   8.657   4.523  0.1310  0.1511  0.1742
 8926W        W24057   5.685  15.444  13.464 -0.1597 -0.0767  0.3121
 8927W        W24058   1.688  10.441  14.675 -0.0855  0.0349 -0.1497
 8928W        W24059   6.364  17.130   6.592  0.1398  0.0081 -0.0148
 8929W        W24060   1.978   0.818  14.773 -0.2660 -0.1897  0.0849
 8930W        W24061  16.235   5.325   0.029 -0.0229  0.0855  0.1794
 8931W        W24062   6.648  11.668   3.347 -0.0605  0.1305  0.2090
 8932W        W24063   5.140  12.935   0.235 -0.0540 -0.0518 -0.3634
 8933W        W24064   7.248  15.485  12.902  0.0798 -0.4394 -0.0789
 8934W        W24065  13.597   7.287  14.071 -0.3120 -0.0251  0.0074
 8935W        W24066   7.831  12.726  13.999  0.0271  0.1040 -0.2105
 8936W        W24067   4.720   6.674  16.679 -0.0811  0.3156 -0.0563
 8937W        W24068  11.123  15.005   3.672  0.0145  0.2445  0.3358
 8938W        W24069  12.713  11.568  11.112 -0.0757  0.4173  0.1858
 8939W        W24070  16.803  14.999  13.269 -0.3169 -0.3189 -0.1305
 8940W        W24071   4.054   8.474   1.182  0.0792 -0.1131  0.1160
 8941W        W24072  11.003  15.743   6.810  0.0745 -0.1709  0.0073
 8942W        W24073   0.387   0.740   3.980  0.1213  0.1183  0.1345
 8943W        W24074   3.313  12.828   5.850 -0.2345  0.1323 -0.1092
 8944W        W24075  10.385   3.079   3.905 -0.1839  0.0320 -0.0055
 8945W        W24076   9.866  16.917   3.666  0.1364  0.0550  0.0826
 8946W        W24077   5.221   1.825  14.742 -0.2098  0.3118  0.2271
 8947W        W24078  14.617   4.473   3.459  0.2168 -0.3001  0.1813
 8948W        W24079   1.355   1.485   2.720 -0.2530  0.1364 -0.2196
 8949W        W24080   8.596  13.254   2.856  0.0689  0.2407 -0.1007
 8950W        W24081   2.330   7.045   5.191  0.0049  0.0678  0.0755
 8951W        W24082  13.378   9.387  16.330  0.2320 -0.3206  0.1199
 8952W        W24083   5.492  10.050  13.683  0.0549  0.0643 -0.0020
 8953W        W24084   5.222  15.263   0.319  0.2263 -0.1750 -0.0312
 8954W        W24085  11.817  14.721  13.438 -0.0518 -0.0061 -0.0511
 8955W        W24086  16.042   8.983  13.965  0.2258 -0.0829  0.0753
 8956W        W24087  14.124   7.649   3.591  0.2618 -0.1580 -0.0882
 8957W        W24088  16.026   3.391   1.993  0.0384 -0.1838  0.1471
 8958W        W24089  17.110   0.614   2.406  0.1110 -0.0755  0.4274
 8959W        W24090  11.859  10.564  10.326  0.0645 -0.1784 -0.0725
 8960W        W24091  11.185   3.341   0.833 -0.2599 -0.1010  0.1369
 8961W        W24092   9.409  13.872   2.901  0.1022 -0.0689 -0.0737
 8962W        W24093   6.946   6.730  12.686  0.0981  0.0736  0.0484
 8963W        W24094   4.552  16.770  12.737  0.4241 -0.1178  0.0253
 8964W        W24095   5.771   3.607   1.112  0.1622  0.2010 -0.4692
 8965W        W24096  14.761   6.521   1.298  0.0217  0.2605  0.1870
 8966W        W24097   1.941   7.438   2.791  0.1456  0.1676  0.3001
 8967W        W24098   6.099  10.767  16.015  0.3582  0.1832  0.0654
 8968W        W24099  14.375   4.060  15.037 -0.3820 -0.0697  0.0955
 8969W        W24100   3.836  12.380   5.442 -0.0025 -0.0836 -0.1311
 8970W        W24101  12.983   2.234   0.934  0.0317 -0.4662 -0.1832
 8971W        W24102  15.774  11.212  11.675 -0.1277  0.2147  0.3662
 8972W        W24103  12.560   1.170   5.632 -0.0279 -0.2091  0.1173
 8973W        W24104  13.194  14.428  12.197  0.1314 -0.2814  0.1045
 8974W        W24105   5.684   3.574   2.011 -0.0807 -0.1032 -0.0182
 8975W        W24106  12.814  16.980   2.928 -0.0396 -0.0130 -0.0540
 8976W        W24107  17.670  10.237  12.217 -0.0401 -0.0837 -0.0194
 8977W        W24108   7.519  11.038  15.364 -0.0146 -0.1037  0.0691
 8978W        W24109   8.217  17.665   0.003  0.1384  0.1477 -0.0045
 8979W        W24110   9.625   0.006  16.660  0.0356 -0.0211  0.2045
 8980W        W24111   6.021  13.900   5.377 -0.1747 -0.3147 -0.0689
 8981W        W24112  17.198  15.705   4.772 -0.2124 -0.3667  0.1450
 8982W        W24113   7.198  12.180   5.275  0.2220 -0.1653  0.0750
 8983W        W24114  14.518   4.934   3.354 -0.0690  0.0012 -0.2057
 8984W        W24115   4.217  13.081   2.347 -0.1389 -0.0035  0.0321
 8985W        W24116   9.737   9.058   4.423  0.0788 -0.0124  0.0249
 8986W        W24117   8.900  17.448   2.876 -0.2255 -0.0010  0.1648
 8987W        W24118   4.972  15.590   5.790  0.0622  0.2217 -0.0896
 8988W        W24119   9.990  14.098  12.622  0.3079  0.0659 -0.0728
 8989W        W24120  15.965  12.380  13.917 -0.1956  0.1874 -0.0070
 8990W        W24121  14.808   2.636  12.555  0.0602  0.1201 -0.1581
 8991W        W24122   6.010   2.882  16.485 -0.1760 -0.2725 -0.0299
 8992W        W24123  15.750   2.956   1.243 -0.1084  0.1942  0.0198
 8993W        W24124   4.596  12.929   2.050 -0.0070  0.1785 -0.1021
 8994W        W24125  12.151  14.761   1.906 -0.2035  0.2034  0.0761
 8995W        W24126   1.583  17.013  12.886  0.1048  0.0214 -0.4293
 8996W        W24127   7.508  13.250  13.537  0.0712  0.1606  0.0025
 8997W        W24128   7.309   8.515  10.954 -0.0654  0.1038 -0.2245
 8998W        W24129  14.093   3.114   0.129  0.0059 -0.2153 -0.3749
 8999W        W24130   7.663   2.703  15.122  0.1782 -0.1442 -0.3209
 9000W        W24131   6.529  10.867  13.205 -0.1238  0.3023  0.2059
 9001W        W24132   7.405  11.216  12.016 -0.0119  0.2236  0.1615
 9002W        W24133  14.086   5.633   4.595 -0.2490 -0.0949 -0.0234
 9003W        W24134  11.661   4.093   1.006 -0.3351 -0.0996 -0.1222
 9004W        W24135   3.210   8.467  14.779 -0.1780 -0.2715 -0.1115
 9005W        W24136  13.952   4.942   3.425 -0.1848 -0.0291 -0.1082
 9006W        W24137  12.240  15.548   3.255  0.1248  0.0076 -0.4111
 9007W        W24138  13.368   7.670  11.503  0.4190  0.0849 -0.0983
 9008W        W24139   6.852   9.661   3.242  0.1565  0.1468  0.5634
 9009W        W24140   2.831   9.878  12.258 -0.0249 -0.3110  0.1684
 9010W        W24141  11.566  11.532  11.884 -0.1918  0.0118  0.0402
 9011W        W24142  10.707   2.570  11.594 -0.0236 -0.4698 -0.1089
 9012W        W24143   1.055   5.970   0.367 -0.1368 -0.1406 -0.1247
 9013W        W24144   2.700   3.904   0.943 -0.2124 -0.0539 -0.0975
 9014W        W24145  10.523   7.155   4.710  0.0435 -0.0982 -0.3476
 9015W        W24146   9.012   2.767  14.364  0.2009 -0.0609 -0.4238
 9016W        W24147  12.933   2.722  14.212  0.2201  0.3961  0.0486
 9017W        W24148   8.904  15.245   4.033  0.0750 -0.0824 -0.0319
 9018W        W24149  10.476  15.783  13.034 -0.4880  0.1315  0.1924
 9019W        W24150  15.421  12.743  15.228  0.0566  0.1209  0.0980
 9020W        W24151  12.899  17.602  14.817 -0.3202  0.1258 -0.3020
 9021W        W24152   1.191   4.494  14.195 -0.0874  0.1923 -0.0749
 9022W        W24153   8.404   1.532  16.776  0.0151  0.0386 -0.0335
 9023W        W24154   6.093   3.567   5.872 -0.0488  0.0365 -0.0111
 9024W        W24155   3.196   6.346  12.420  0.0636 -0.2103 -0.0020
 9025W        W24156  11.803  16.663   2.379 -0.1401  0.0487 -0.0515
 9026W        W24157   4.380   2.821  16.025 -0.5167  0.1525  0.2196
 9027W        W24158   0.478  16.119  13.395  0.0293  0.2544  0.0779
 9028W        W24159  16.275  16.474   2.282 -0.1076  0.3663 -0.2024
 9029W        W24160   8.230  13.482   5.305 -0.0331  0.2510 -0.1939
 9030W        W24161   4.434  10.706  15.259 -0.0189  0.1024  0.0487
 9031W        W24162   0.941   4.075  11.428  0.0396 -0.2430  0.1382
 9032W        W24163   7.840  13.528  15.716  0.2024 -0.0170 -0.0719
 9033W        W24164  16.165   6.559  15.988 -0.0555 -0.0189  0.0813
 9034W        W24165   8.704   9.273   0.513  0.0413 -0.0610 -0.0939
 9035W        W24166   0.330  16.071   2.719  0.0215 -0.5862  0.2304
 9036W        W24167   1.652  12.669  14.316  0.2208  0.0653  0.2912
 9037W        W24168  11.396   8.745  12.697  0.1472  0.2319 -0.0314
 9038W        W24169   7.554   6.245   3.653 -0.1090 -0.0925  0.0695
 9039W        W24170  13.000   4.042   6.111  0.2830  0.2625 -0.0550
 9040W        W24171  13.176   2.286   5.784  0.0721  0.1167 -0.1791
 9041W        W24172   3.289   4.019   2.950  0.1957 -0.2898 -0.2817
 9042W        W24173  11.837   9.400   4.032  0.1131  0.3618 -0.0500
 9043W        W24174  14.865   5.756  15.740 -0.2782  0.1272 -0.0270
 9044W        W24175  15.290   8.799  15.849 -0.0071 -0.2477  0.1950
 9045W        W24176   9.665   1.726  16.143 -0.1454  0.0237 -0.3115
 9046W        W24177  14.230  11.014  14.069  0.2141  0.5268  0.0121
 9047W        W24178   0.275   9.622  16.010 -0.0856  0.1546 -0.0325
 9048W        W24179  12.114   8.128  16.430 -0.2028 -0.2775 -0.2628
 9049W        W24180  14.220  11.576  12.650  0.0334 -0.0522  0.0573
 9050W        W24181  14.377  17.713   4.518 -0.0337  0.3032  0.0584
 9051W        W24182   0.981   2.557   1.699  0.1723  0.3642  0.1908
 9052W        W24183   6.658   6.158  11.386 -0.0029 -0.0765 -0.0985
 9053W        W24184  15.396   6.503  12.757 -0.0234 -0.0312  0.0600
 9054W        W24185  15.891  11.875   3.982  0.3918 -0.1571 -0.0094
 9055W        W24186  10.705   8.851  11.923 -0.0749 -0.2439  0.2147
 9056W        W24187   3.312   0.180  12.528  0.2443 -0.0003 -0.0955
 9057W        W24188   8.407   9.915  16.060  0.1209 -0.0223 -0.1835
 9058W        W24189  13.181   3.492  16.840 -0.0823 -0.3416  0.2818
 9059W        W24190  17.696  17.365   2.827  0.3173  0.0507  0.6232
 9060W        W24191   5.444  16.595   4.988  0.0285 -0.2467 -0.0153
 9061W        W24192  10.091   2.624   0.052 -0.2331 -0.0288  0.2837
 9062W        W24193   0.650   8.516   0.112  0.1233  0.0002 -0.1172
 9063W        W24194   8.993   3.796  12.452 -0.0600  0.3373 -0.1123
 9064W        W24195  15.673   2.016  12.724 -0.1280  0.2131 -0.1226
 9065W        W24196   9.273   5.244   1.606 -0.1495 -0.1770  0.2620
 9066W        W24197   6.809   9.969  16.016 -0.2998  0.0046  0.0482
 9067W        W24198   9.145   3.664   2.378 -0.1731 -0.2883 -0.2580
 9068W        W24199   5.347  10.903  16.360 -0.1053  0.0933  0.1834
 9069W        W24200   8.634   0.319   4.531 -0.2855 -0.2485  0.0387
 9070W        W24201   3.293   8.730  11.078 -0.0426  0.0098 -0.1126
 9071W        W24202  17.379   9.042  14.017  0.0222  0.0094 -0.0675
 9072W        W24203  10.247   1.261   1.259 -0.1013 -0.2498  0.0155
 9073W        W24204   1.687   4.352   5.355  0.1000 -0.1865 -0.0045
 9074W        W24205  12.655   7.392   2.647  0.1290  0.1160 -0.0804
 9075W        W24206   4.570   0.769   2.102  0.1523 -0.1714  0.1850
 9076W        W24207   2.844   7.161   2.636  0.3143  0.1558 -0.3002
 9077W        W24208  10.121   9.344   2.738 -0.3778 -0.0780 -0.0720
 9078W        W24209   2.311  13.814  11.398  0.3127  0.1606 -0.0539
 9079W        W24210  17.585  16.497  12.624 -0.0410 -0.0595 -0.0262
 9080W        W24211  16.940   7.759   4.340  0.2813  0.0254  0.1233
 9081W        W24212  14.988  12.673   0.860  0.1334 -0.0556 -0.2186
 9082W        W24213  14.624   3.060  12.769  0.0005 -0.0319  0.0175
 9083W        W24214   8.314   4.850   4.992  0.0822  0.0847 -0.0900
 9084W        W24215   1.496  15.146   1.731 -0.2808 -0.1502 -0.3318
 9085W        W24216   2.074  10.976  13.981  0.0192 -0.0189  0.1592
 9086W        W24217  14.699  16.588   0.129 -0.2718 -0.1521  0.1618
 9087W        W24218   6.553   5.096   1.558 -0.0346  0.3760  0.0084
 9088W        W24219  13.649  13.715  15.990 -0.1295 -0.0416 -0.1168
 9089W        W24220   0.168  16.929  11.323  0.1493  0.0512 -0.0879
 9090W        W24221   3.639   1.332   0.162 -0.0237 -0.0355 -0.3608
 9091W        W24222  13.110  11.038  16.136 -0.3483 -0.0425 -0.0114
 9092W        W24223   1.715   8.217   5.307 -0.0907 -0.1207  0.0072
 9093W        W24224  13.516  15.262  13.339 -0.0182  0.1520 -0.1742
 9094W        W24225  10.408  15.020   1.623  0.1996 -0.1986  0.0018
 9095W        W24226   7.158  17.625   0.656  0.0464  0.0318 -0.1170
 9096W        W24227   7.031  12.366  15.931 -0.2856 -0.0369 -0.1724
 9097W        W24228  14.024  16.823  15.036  0.1006 -0.1089  0.2810
 9098W        W24229   1.718   2.671   1.735 -0.0274 -0.1658  0.1944
 9099W        W24230   3.018   9.239  12.259 -0.0270 -0.1609 -0.2020
 9100W        W24231  17.030   6.801  11.846  0.2524  0.0953  0.4879
 9101W        W24232  10.724  15.383   0.463 -0.1154  0.0202  0.2996
 9102W        W24233   9.220   6.549  14.426  0.0373 -0.0647 -0.0754
 9103W        W24234  12.432   2.236   0.201  0.1777 -0.3855 -0.0064
 9104W        W24235  12.622   7.012  12.404 -0.0133 -0.3567 -0.3066
 9105W        W24236  16.504  13.701   0.996  0.0355  0.0853 -0.2444
 9106W        W24237   1.864   7.474  13.203 -0.1492 -0.2321  0.1487
 9107W        W24238   0.162   5.320  14.533 -0.2699  0.0105  0.1082
 9108W        W24239  10.537   9.095  16.885  0.2721 -0.0718 -0.1593
 9109W        W24240   8.224  15.205   3.550  0.0785 -0.0687 -0.0965
 9110W        W24241   3.436   3.779   0.336 -0.1061  0.0863  0.2359
 9111W        W24242   6.240   0.265   2.728  0.0990 -0.1874 -0.1175
 9112W        W24243  16.985   6.664  11.415  0.1546 -0.0521  0.0078
 9113W        W24244   5.404   7.034   2.931  0.0036  0.0092 -0.1427
 9114W        W24245  10.206   9.062  16.404 -0.2581 -0.0412  0.0470
 9115W        W24246  10.744  13.688  14.290 -0.0640 -0.0290 -0.1461
 9116W        W24247  17.102   7.251  13.376  0.0437  0.2479 -0.2069
 9117W        W24248  15.095   9.712   5.823 -0.0781  0.3654 -0.1551
 9118W        W24249   3.539  10.389   1.774  0.3566  0.0919  0.0475
 9119W        W24250   6.327  15.261   5.893 -0.0661  0.1192  0.1119
 9120W        W24251   0.297   8.398   5.755  0.1203 -0.0460  0.1448
 9121W        W24252   7.432   4.425  14.312 -0.0580  0.3088  0.1236
 9122W        W24253   4.610   2.826   4.329 -0.0822 -0.1916 -0.0035
 9123W        W24254  13.220  10.431  15.483  0.0700  0.1111  0.1871
 9124W        W24255   3.149   1.418   0.004  0.1187  0.1415 -0.2814
 9125W        W24256   8.445   9.413  15.891 -0.0534  0.2941  0.2306
 9126W        W24257   3.764  11.024  16.046  0.2223  0.1817  0.1257
 9127W        W24258  15.792  11.234  12.206  0.0996 -0.1451  0.0146
 9128W        W24259  13.467  10.430  12.482 -0.2857  0.0491  0.3444
 9129W        W24260  10.727   6.060   2.761 -0.4635  0.0048  0.1439
 9130W        W24261   0.679   1.606   4.928 -0.2757 -0.0744  0.1037
 9131W        W24262  11.796   5.361   1.867  0.0173  0.1016 -0.1364
 9132W        W24263   8.172   6.543   6.087  0.0564 -0.2876  0.1520
 9133W        W24264  15.300   3.247   3.239 -0.1949 -0.4210 -0.0189
 9134W        W24265  14.691  14.376  13.070  0.2364 -0.1224  0.0270
 9135W        W24266  11.127  11.204  11.143  0.1596  0.0690  0.0246
 9136W        W24267  10.878   0.211   5.389 -0.0955  0.1181 -0.1676
 9137W        W24268   6.309   4.747  12.445 -0.1553  0.0085  0.3500
 9138W        W24269   7.700   5.570   3.052  0.0939 -0.0581 -0.0199
 9139W        W24270   2.308   8.721   2.185 -0.1160  0.1378 -0.0019
 9140W        W24271  11.991   6.410   4.678  0.1415  0.1240 -0.0818
 9141W        W24272   5.010   8.561   3.105  0.0631  0.3587 -0.0975
 9142W        W24273  13.675  14.202  16.911 -0.0562 -0.0134  0.1100
 9143W        W24274   9.514  13.054   2.403 -0.0373 -0.2101 -0.1038
 9144W        W24275   0.258   4.247   0.758  0.5353  0.0022  0.1787
 9145W        W24276   9.890   1.345   5.561  0.1172 -0.0119  0.4457
 9146W        W24277  14.328   7.396  15.921  0.0386  0.1461 -0.0568
 9147W        W24278  14.023   7.316   0.351 -0.0441 -0.2914 -0.1824
 9148W        W24279   0.160  16.345  16.299  0.2484  0.4930  0.2697
 9149W        W24280   3.992  12.086   1.284  0.2091 -0.1924 -0.1460
 9150W        W24281   6.461  15.946  12.938 -0.2034  0.0901 -0.0220
 9151W        W24282  15.490  17.423   3.053 -0.2156 -0.0899  0.2743
 9152W        W24283   2.215   9.924   5.236 -0.1337  0.0078  0.2799
 9153W        W24284  16.422   3.905  11.838 -0.2029 -0.1942 -0.1928
 9154W        W24285   2.684   9.973   1.882 -0.1422  0.2456  0.0971
 9155W        W24286   1.202   6.922  13.001 -0.1347 -0.2738 -0.0339
 9156W        W24287  14.315  13.231  16.230 -0.0046 -0.0986 -0.0041
 9157W        W24288   8.179  12.342   0.088 -0.0838  0.0099 -0.1762
 9158W        W24289   3.128  14.929  14.348  0.0405  0.3631  0.2438
 9159W        W24290  15.652   4.531   4.322  0.0408 -0.2174  0.1609
 9160W        W24291   3.707   3.681   5.457 -0.1639  0.2014 -0.1059
 9161W        W24292  11.213   1.994  16.378  0.1068  0.2496 -0.1493
 9162W        W24293   2.509  13.111   4.432  0.2090  0.0785 -0.0190
 9163W        W24294  11.247  12.524  12.998 -0.1094  0.0365  0.1336
 9164W        W24295  12.345   3.482  12.074 -0.0752 -0.2244  0.2943
 9165W        W24296   9.108  17.665   2.115 -0.2019  0.0033 -0.0520
 9166W        W24297  15.745   5.227  13.137 -0.1056  0.3113 -0.2175
 9167W        W24298  11.607   0.727   4.282 -0.0299 -0.1269  0.0377
 9168W        W24299   1.002  12.891  16.581 -0.1108 -0.1336  0.3703
 9169W        W24300   8.487   2.778  10.771  0.0040  0.1930 -0.1405
 9170W        W24301   8.620   9.813  10.843 -0.0751 -0.1344  0.0688
 9171W        W24302  15.216   4.415   0.156 -0.1970  0.1246 -0.1011
 9172W        W24303   0.022  17.673  16.144  0.0466 -0.2063 -0.0529
 9173W        W24304   3.699   6.823   5.833  0.2007  0.1062  0.2066
 9174W        W24305   9.110   9.841  11.052 -0.1763  0.2001  0.0995
 9175W        W24306  16.867  13.090   0.337 -0.2282  0.0011  0.0360
 9176W        W24307  14.990   0.008  12.132  0.0922 -0.0242 -0.0401
 9177W        W24308  12.449  15.528   2.534 -0.0120  0.0875 -0.3256
 9178W        W24309   2.780   5.521  10.955 -0.0957 -0.0143  0.0428
 9179W        W24310   8.684   4.730  12.382  0.2084 -0.0046 -0.1343
 9180W        W24311  14.563  11.959   4.976 -0.1146 -0.2314  0.0614
 9181W        W24312   5.233  17.682   1.551 -0.0533  0.0519  0.1038
 9182W        W24313  16.607   5.444  14.313 -0.3199 -0.0539  0.2231
 9183W        W24314  16.378   9.486  12.363  0.2284  0.0006  0.3486
 9184W        W24315   6.572  12.550  12.507 -0.0346  0.1262  0.0354
 9185W        W24316  10.159  13.040  14.238 -0.2500 -0.2442  0.0141
 9186W        W24317   2.813  16.899   4.530 -0.0098  0.1088 -0.2735
 9187W        W24318   6.132  11.275   6.180 -0.1092  0.1450  0.0946
 9188W        W24319  17.688   4.490   2.885  0.0967 -0.1659  0.0531
 9189W        W24320   2.878   2.222  14.282 -0.0952  0.3411 -0.0888
 9190W        W24321  12.884  15.789   2.758 -0.0562 -0.1911  0.1303
 9191W        W24322   2.700   3.071  13.249 -0.0617 -0.2704  0.2935
 9192W        W24323  13.460   6.243  15.982  0.0914  0.0582 -0.0622
 9193W        W24324   5.525   7.481  12.291  0.1999 -0.1468 -0.1661
 9194W        W24325   8.425   3.565  12.262 -0.0356  0.1514 -0.0696
 9195W        W24326   6.618  12.500  16.249 -0.4395 -0.1063  0.3143
 9196W        W24327  12.935   5.070  12.055 -0.1361  0.1248 -0.5506
 9197W        W24328   8.445   9.525   3.965 -0.0020 -0.1433  0.0285
 9198W        W24329   3.345  15.831   0.842 -0.2286  0.0365 -0.0093
 9199W        W24330  11.004  10.914  15.324 -0.2034 -0.1481  0.1999
 9200W        W24331   4.851   5.256   2.511  0.2149  0.0291  0.0423
 9201W        W24332   0.660   7.640  12.249  0.2119 -0.0265  0.2881
 9202W        W24333   2.825  16.967  15.667  0.1739 -0.0054  0.0763
 9203W        W24334  11.576  10.289  16.243 -0.0034 -0.1882 -0.0217
 9204W        W24335   7.797   7.478   0.442 -0.3266  0.0446 -0.3351
 9205W        W24336  15.697  17.258   3.815 -0.0047 -0.0283 -0.3796
 9206W        W24337  11.087  11.862   2.311  0.2510 -0.0740  0.1588
 9207W        W24338   0.382   4.779  12.804 -0.0624  0.2548 -0.2355
 9208W        W24339   9.484   4.144   0.686  0.0492  0.2677 -0.1043
 9209W        W24340   8.815  17.019   3.586 -0.1556 -0.0368  0.1849
 9210W        W24341  14.771  16.011  16.503 -0.0038 -0.0268 -0.1304
 9211W        W24342   4.293   8.271  11.067 -0.1184 -0.2103 -0.1303
 9212W        W24343  15.813   0.370   3.479 -0.0135 -0.0684 -0.0502
 9213W        W24344  15.746   0.166   3.025  0.1809  0.0290  0.1965
 9214W        W24345   5.364  16.744  13.288 -0.1428 -0.0573  0.2663
 9215W        W24346  16.625  15.200   5.195 -0.1420  0.1629  0.0591
 9216W        W24347   5.188   3.241   0.598 -0.0832 -0.0640  0.1158
 9217W        W24348   8.691  11.515   1.180  0.2654 -0.2777 -0.2521
 9218W        W24349   3.123   8.557   3.373  0.4002  0.0848  0.0691
 9219W        W24350   1.382  10.762  11.216 -0.2456  0.1156 -0.1659
 9220W        W24351  15.080   1.594   0.482  0.1947 -0.0666 -0.1638
 9221W        W24352   2.632  11.910  12.820  0.1495  0.0933  0.1425
 9222W        W24353   0.455   6.456   0.216 -0.0722  0.1399 -0.1575
 9223W        W24354   0.219  15.669  11.705 -0.1140 -0.2912 -0.0479
 9224W        W24355  15.293   7.904  12.051 -0.1938 -0.1580 -0.2778
 9225W        W24356   2.631  15.720   1.532 -0.0791  0.2048  0.1956
 9226W        W24357  10.770  17.429   2.221  0.0618 -0.0040 -0.3475
 9227W        W24358  13.237   4.202   1.293  0.2016 -0.3285 -0.0983
 9228W        W24359   3.456  13.963  14.751  0.0310  0.1173  0.2938
 9229W        W24360  10.382   8.333  15.383 -0.0332  0.1492  0.2728
 9230W        W24361  12.044  12.068  16.182 -0.0860  0.1168 -0.0162
 9231W        W24362  10.991  16.240   3.620 -0.1424  0.0543 -0.0030
 9232W        W24363  15.669   6.065  11.136 -0.2558  0.0480  0.1762
 9233W        W24364  11.856   0.836   4.756  0.2813  0.0608  0.0832
 9234W        W24365  10.160  11.631   5.369  0.0630 -0.1318  0.1365
 9235W        W24366   7.292   1.851   2.062 -0.1362 -0.2443 -0.3720
 9236W        W24367   6.553   1.777   3.256 -0.2633 -0.1352 -0.1394
 9237W        W24368   0.768   1.828  16.105  0.0749  0.1624 -0.0799
 9238W        W24369   2.616  17.146  16.150  0.1850 -0.4969 -0.0371
 9239W        W24370  14.179   9.795   5.113  0.3256  0.0172 -0.0538
 9240W        W24371  12.157  17.714  11.740  0.1812 -0.1203 -0.0869
 9241W        W24372   9.931   8.489  13.530  0.1993  0.0561 -0.0667
 9242W        W24373   0.864   5.098   3.141 -0.3179 -0.1412 -0.1193
 9243W        W24374  16.918   0.219   0.737  0.3767  0.1083  0.3583
 9244W        W24375  12.215   2.371  15.543 -0.2987  0.0474  0.1335
 9245W        W24376   3.444   9.235   1.031  0.4319 -0.3271 -0.1347
 9246W        W24377   5.357  16.631   4.100 -0.0325 -0.1886 -0.1555
 9247W        W24378   5.556   9.546  16.228 -0.1131 -0.1362  0.0730
 9248W        W24379  14.803   5.662   0.102  0.1904 -0.1298 -0.0615
 9249W        W24380  11.826   4.171   1.609 -0.0439 -0.2971 -0.0466
 9250W        W24381   9.110  14.246  13.763 -0.1042  0.1833  0.0962
 9251W        W24382  14.277   3.443   3.170 -0.0743 -0.1229 -0.1536
 9252W        W24383  13.974   3.346   1.500  0.2734 -0.1469 -0.4041
 9253W        W24384   0.228   6.548   0.676  0.5205 -0.1203 -0.1304
 9254W        W24385   0.444  13.879   1.140  0.6464  0.1220  0.0999
 9255W        W24386   9.282   5.120   2.865 -0.0621  0.1290 -0.0244
 9256W        W24387  13.963   0.495  16.518  0.1386 -0.1866  0.2637
 9257W        W24388  11.348  14.003  11.706 -0.1607 -0.1059 -0.1030
 9258W        W24389  14.661  17.198  13.311  0.0822 -0.0769 -0.0773
 9259W        W24390   8.348   2.413   0.849  0.0883  0.1426  0.0419
 9260W        W24391  17.324  11.397  14.052  0.0093  0.1376 -0.2265
 9261W        W24392   3.206  10.423  16.209  0.0006 -0.1198 -0.0474
 9262W        W24393   8.162  11.711   5.313  0.0326  0.0116  0.1261
 9263W        W24394   8.097  14.356   4.006 -0.1104 -0.2792  0.0872
 9264W        W24395   8.282   9.963  12.999 -0.2236 -0.0725 -0.2614
 9265W        W24396   4.224  12.580   2.907 -0.0339  0.0825  0.1267
 9266W        W24397   9.096   2.742  15.413  0.0305  0.0439  0.0349
 9267W        W24398   4.465  12.297   5.528  0.1255 -0.1472  0.0975
 9268W        W24399   3.767  15.894   4.730 -0.0190 -0.0082 -0.3849
 9269W        W24400   8.297   8.573   5.116 -0.1171  0.2367 -0.3021
 9270W        W24401  11.294   5.936  16.252 -0.0291 -0.0182 -0.0361
 9271W        W24402   4.345  15.634  12.436  0.2198  0.0703  0.0987
 9272W        W24403   2.175   3.896  11.211  0.0788  0.0053  0.1586
 9273W        W24404   9.994  10.667   1.316  0.0192  0.0003 -0.1496
 9274W        W24405   8.032   7.563  15.252 -0.0367 -0.0678  0.0474
 9275W        W24406   4.178   3.823   1.041  0.0071 -0.2414 -0.3210
 9276W        W24407   7.119   6.417  15.317  0.0224 -0.0967  0.2651
 9277W        W24408   5.695   9.613  13.926  0.0999 -0.1471 -0.1029
 9278W        W24409   0.559  14.916  16.537  0.0313 -0.2206  0.2337
 9279W        W24410   4.552   1.543   0.193  0.1012 -0.1017  0.1769
 9280W        W24411   3.779   9.377   0.068 -0.0927 -0.1555 -0.1675
 9281W        W24412  15.415   0.563   4.797  0.2499 -0.3977  0.3136
 9282W        W24413   9.475   2.273  16.585  0.4418 -0.0805 -0.1123
 9283W        W24414   9.050  14.040   3.744 -0.1981 -0.3491  0.0476
 9284W        W24415  13.417   5.112   3.379  0.2514 -0.0660 -0.1681
 9285W        W24416   4.949   5.406   4.148 -0.4196  0.0017 -0.2054
 9286W        W24417   4.181   8.185   3.269  0.1111 -0.2824 -0.0348
 9287W        W24418  15.188   4.161  15.682 -0.1450 -0.2975  0.2099
 9288W        W24419   4.536   7.854   3.331  0.0309  0.0341  0.1098
 9289W        W24420   8.860   9.295  14.627 -0.1372  0.1439 -0.0396
 9290W        W24421  14.995   7.937  13.485  0.3585  0.1000 -0.0134
 9291W        W24422   9.748  13.511  15.040  0.2204  0.0442  0.1635
 9292W        W24423  17.548  17.657   3.224  0.1534 -0.0445  0.2651
 9293W        W24424   6.517   7.967   5.681 -0.1489  0.1449  0.0146
 9294W        W24425   5.308   3.958  11.533  0.1301  0.2414  0.0874
 9295W        W24426   6.808   7.894   3.001  0.2885  0.2207 -0.1858
 9296W        W24427   0.119   2.407   5.261  0.3359 -0.0254  0.1181
 9297W        W24428   0.175  11.783   4.707  0.1234  0.4330 -0.1058
 9298W        W24429   7.219   6.430   3.311 -0.2349  0.1224 -0.0926
 9299W        W24430   5.508  16.656  15.521  0.1471  0.0720  0.1033
 9300W        W24431  10.882   9.334   0.179 -0.0142 -0.0640 -0.4357
 9301W        W24432   1.964   7.063  13.498 -0.1153 -0.0483  0.3664
 9302W        W24433  17.218   3.444  16.577  0.0154  0.0776 -0.0580
 9303W        W24434   4.991   7.013  16.923 -0.0420 -0.0127  0.2785
 9304W        W24435   1.990  12.288   6.091  0.0851  0.1358 -0.0231
 9305W        W24436  11.206   7.607   4.221  0.1887  0.1450 -0.1267
 9306W        W24437   3.052   4.090   3.335 -0.1239 -0.1205  0.1476
 9307W        W24438  15.941   5.240  15.173  0.2773 -0.3696 -0.2294
 9308W        W24439   9.765   5.844   1.696 -0.1448 -0.0523 -0.0279
 9309W        W24440  16.706  10.616  13.375  0.2673 -0.0766  0.1039
 9310W        W24441   6.313  10.703  16.571 -0.0779  0.0715  0.0577
 9311W        W24442  12.214   8.723  14.836 -0.2539  0.1638  0.2055
 9312W        W24443   7.179  14.329   2.186  0.3415  0.0443  0.1760
 9313W        W24444   0.285   2.528  15.940 -0.1281 -0.4597  0.0338
 9314W        W24445  12.438  13.514   2.016  0.3910  0.1055 -0.2720
 9315W        W24446  17.374   9.072  14.877 -0.1300  0.0602 -0.1344
 9316W        W24447  12.583   0.819  15.196 -0.3048 -0.2596  0.0768
 9317W        W24448  11.974   9.108   2.925 -0.1539  0.1196  0.2830
 9318W        W24449  10.732  15.391   6.526 -0.2489  0.0014 -0.0784
 9319W        W24450   8.213   4.043   2.691 -0.0992 -0.0023 -0.3136
 9320W        W24451   3.365  15.462   3.271 -0.2104  0.0413  0.0349
 9321W        W24452  16.377   9.471   1.259 -0.0175  0.2203  0.1594
 9322W        W24453  13.862   6.823   0.416  0.2170  0.1050 -0.2477
 9323W        W24454  11.626  10.606  12.262  0.1278 -0.1210 -0.0728
 9324W        W24455   3.709   7.164  11.531 -0.3724 -0.0219  0.0302
 9325W        W24456   2.993   1.115   0.353  0.1831  0.1071 -0.1557
 9326W        W24457  10.210   8.460  16.643 -0.0875 -0.3570  0.2789
 9327W        W24458  10.058  10.795  12.774 -0.1444 -0.1538  0.3012
 9328W        W24459   2.297   2.324  16.326  0.3663 -0.0622  0.0367
 9329W        W24460   5.700  16.192  16.129  0.1855 -0.0088 -0.3193
 9330W        W24461   6.640  10.977   2.522  0.1535  0.0835  0.1843
 9331W        W24462   4.553   6.444  15.821 -0.2024 -0.3402 -0.1019
 9332W        W24463  16.844  13.899   4.629 -0.0748 -0.2559  0.1112
 9333W        W24464   4.982   7.294   1.517 -0.1554  0.5259  0.1757
 9334W        W24465  10.725   6.896  11.503  0.3532  0.0568  0.0698
 9335W        W24466   8.640  15.333  14.074  0.1406 -0.0841 -0.0512
 9336W        W24467   6.572  11.087   1.715  0.0685  0.1890 -0.0342
 9337W        W24468  15.378   5.508  12.837 -0.0318 -0.0001  0.0574
 9338W        W24469   3.189   6.306  11.489  0.2795 -0.0290  0.0742
 9339W        W24470   4.719   6.706  11.862 -0.1346 -0.0902 -0.2973
 9340W        W24471   8.263  14.047  13.630  0.1134 -0.1353  0.0614
 9341W        W24472   9.452  16.044  11.997  0.3555 -0.2942  0.0201
 9342W        W24473   2.249  12.550   2.354 -0.1895 -0.4785 -0.0693
 9343W        W24474  15.236  11.607  13.886  0.3263  0.0520 -0.1010
 9344W        W24475  14.654   0.952   1.905 -0.2145 -0.1924 -0.3189
 9345W        W24476   3.007  12.493   1.750 -0.1182 -0.1174 -0.0618
 9346W        W24477  12.701  15.265  11.837  0.0230  0.0111  0.3744
 9347W        W24478   1.480   0.465   0.681  0.1135 -0.3664 -0.0040
 9348W        W24479   3.212   8.635  13.436  0.2853  0.0634 -0.0602
 9349W        W24480   3.274  15.451  16.420  0.0785 -0.1131  0.0696
 9350W        W24481  16.822   4.768   1.998 -0.1195 -0.1354  0.1710
 9351W        W24482   9.692   1.953  14.115 -0.0549  0.1200 -0.0889
 9352W        W24483   8.601   2.438  14.253 -0.2584  0.0785  0.0781
 9353W        W24484  17.487  10.027  14.519 -0.0954 -0.0670  0.4083
 9354W        W24485   8.001   0.104  14.025 -0.2609 -0.0978 -0.0278
 9355W        W24486   3.250   2.818  15.423 -0.0715  0.1384 -0.0613
 9356W        W24487  17.310  15.761  16.883  0.1295 -0.0080  0.0464
 9357W        W24488   0.904   6.707   5.218  0.0093  0.1469 -0.1707
 9358W        W24489   2.674   2.110  11.721  0.2176  0.1566  0.1641
 9359W        W24490   6.710   4.822   1.952 -0.4797  0.2136  0.0234
 9360W        W24491   4.362   4.057   3.639  0.0009  0.0650  0.1169
 9361W        W24492   9.219  17.525   5.089  0.1019  0.4172  0.0361
 9362W        W24493   2.744  15.966   3.742  0.0475  0.1117  0.2211
 9363W        W24494   4.827   0.232   2.421  0.2473  0.0071 -0.0500
 9364W        W24495   8.823  13.840  11.728 -0.2912 -0.0644 -0.0758
 9365W        W24496   0.322  17.689   0.825 -0.3384 -0.1122  0.5630
 9366W        W24497  12.624   1.334   3.318  0.0888 -0.0014 -0.0878
 9367W        W24498   0.257   3.342  16.821  0.0876 -0.2602 -0.1402
 9368W        W24499   9.535  13.968   0.179 -0.0260 -0.2712  0.0766
 9369W        W24500  15.105   8.636  11.138  0.0196  0.0881  0.0910
 9370W        W24501   5.975  13.380  11.583  0.2004  0.1801  0.0550
 9371W        W24502   9.203  17.164   4.419 -0.0638  0.0710  0.1857
 9372W        W24503   6.021  14.551   1.175  0.1515  0.1327 -0.1096
 9373W        W24504  16.335   5.056   4.822  0.1805  0.0184 -0.0336
 9374W        W24505   1.309  12.915  16.071 -0.0833  0.4882 -0.1413
 9375W        W24506  12.789   3.290   4.474  0.1247 -0.2439  0.1589
 9376W        W24507   1.921  17.211   6.145  0.0668  0.0382 -0.0667
 9377W        W24508   8.448   0.073  13.247 -0.4329  0.2200 -0.3913
 9378W        W24509   9.527   8.116  11.773 -0.2247  0.0316  0.1508
 9379W        W24510   4.152  14.221  12.120 -0.1395 -0.1290 -0.0464
 9380W        W24511   5.770  10.269  13.204 -0.0561  0.1049  0.1334
 9381W        W24512   1.464  13.092   4.746  0.1388 -0.0500 -0.2644
 9382W        W24513  15.368   9.772  16.823 -0.0550 -0.0992  0.1451
 9383W        W24514  12.213   1.460   1.556  0.2225  0.1734 -0.0318
 9384W        W24515  14.553  11.202   0.124  0.2506 -0.4340  0.1152
 9385W        W24516   1.327   4.706   2.702  0.0837 -0.0317 -0.0345
 9386W        W24517   6.505  15.297   1.797  0.0049 -0.3430  0.0626
 9387W        W24518  12.126   2.310  13.457 -0.2903 -0.0187 -0.2209
 9388W        W24519  10.665  10.928   3.046  0.1140  0.1673 -0.3165
 9389W        W24520  12.291   3.512   4.521  0.3333 -0.1794 -0.4091
 9390W        W24521   6.618  13.771   3.843  0.0383 -0.1556 -0.0589
 9391W        W24522   7.829   6.418   3.266  0.0099 -0.1202  0.0343
 9392W        W24523   8.997  11.022   0.469 -0.0300  0.1299 -0.1965
 9393W        W24524   8.639  10.962   4.233 -0.2236 -0.0924 -0.1343
 9394W        W24525  14.471   3.630  14.063 -0.3222 -0.1248 -0.0527
 9395W        W24526   4.315  11.112   0.232  0.0197  0.1418 -0.3387
 9396W        W24527   8.424  14.632   6.397 -0.0911  0.1814  0.0215
 9397W        W24528   9.481   9.717  11.536  0.0065  0.0839 -0.0797
 9398W        W24529   6.716  16.244   0.381 -0.1080  0.1721 -0.2489
 9399W        W24530  14.125  10.549  16.422  0.0860 -0.1131 -0.1266
 9400W        W24531  17.129   5.777   4.024 -0.1762  0.1299 -0.1223
 9401W        W24532  16.640   9.217   4.730  0.1076  0.0902 -0.0148
 9402W        W24533   5.549   8.175  14.027 -0.0085  0.0359 -0.1248
 9403W        W24534  17.418   1.659   0.726 -0.0414  0.0990 -0.1295
 9404W        W24535   2.907   8.140   1.715  0.1753 -0.1947  0.1744
 9405W        W24536   6.235   2.972   2.770 -0.0223  0.0067 -0.0447
 9406W        W24537  14.911   1.474   4.176  0.0816 -0.5739  0.3448
 9407W        W24538   2.302  11.869   2.853  0.0164 -0.1372 -0.0272
 9408W        W24539  17.290   2.744  14.880 -0.3176 -0.1153  0.2344
 9409W        W24540   2.251  17.014  16.443  0.0404 -0.2904 -0.0059
 9410W        W24541  14.531   7.254  14.595 -0.2674 -0.2466  0.0881
 9411W        W24542  14.251   5.892   0.043 -0.2581  0.3427 -0.0856
 9412W        W24543  10.750   4.289  14.909 -0.0607  0.2632  0.3772
 9413W        W24544  14.568   2.126  11.887  0.0916  0.0028  0.1513
 9414W        W24545  10.700  10.151   1.882  0.1034 -0.1390  0.0924
 9415W        W24546   5.711   9.190   0.880 -0.0707 -0.0504 -0.3513
 9416W        W24547   9.522   5.265  12.487  0.1636 -0.0959  0.4276
 9417W        W24548  12.105   7.642   5.188 -0.0617  0.1978  0.1770
 9418W        W24549  10.258  15.908  15.333  0.2781 -0.1338  0.0775
 9419W        W24550   8.409   7.036   1.868 -0.0629 -0.1086 -0.0759
 9420W        W24551  10.304  16.767  15.635  0.3439 -0.3124 -0.2522
 9421W        W24552   7.159  12.415  14.514  0.1370 -0.0533  0.0799
 9422W        W24553   9.650   2.969   3.624 -0.0437 -0.2707  0.0819
 9423W        W24554   1.239  14.102   5.126 -0.0068 -0.3093 -0.2197
 9424W        W24555   1.763   4.149  12.062  0.0925 -0.3544 -0.0760
 9425W        W24556   6.183  11.433   0.940  0.2059 -0.5068 -0.0638
 9426W        W24557   4.578   2.558  13.650 -0.0378 -0.1704  0.0445
 9427W        W24558  16.523   7.006  13.772  0.2623 -0.0711 -0.0037
 9428W        W24559   5.345   1.879   3.639 -0.1095  0.1084  0.1317
 9429W        W24560  13.396   5.450  14.299  0.2087  0.1087  0.2050
 9430W        W24561   5.473  11.673   0.390 -0.0137 -0.0633 -0.1149
 9431W        W24562   0.444   2.201  10.453  0.1085 -0.0467  0.3125
 9432W        W24563   7.051   5.730  12.886  0.1658 -0.1904  0.1978
 9433W        W24564   3.186   5.931  14.106  0.0413  0.2332  0.0137
 9434W        W24565  17.391  10.561   1.442 -0.0070 -0.1620  0.1666
 9435W        W24566   1.919  12.448  13.116  0.0857 -0.0034  0.0481
 9436W        W24567  11.630   4.865   2.033 -0.0636  0.2020  0.2548
 9437W        W24568  15.526   7.845  11.610  0.0881 -0.1161 -0.1454
 9438W        W24569   3.148  11.037  14.623  0.2332  0.0169 -0.1333
 9439W        W24570   6.169  16.537  12.261 -0.1357 -0.0785 -0.3295
 9440W        W24571  12.658   9.551  14.680 -0.3043 -0.0541 -0.2621
 9441W        W24572   6.269   2.533  11.812 -0.4194  0.0910 -0.0260
 9442W        W24573  10.909   3.542  11.119  0.3068 -0.3697 -0.0575
 9443W        W24574   2.831  10.092  15.392  0.1436 -0.0625 -0.1435
 9444W        W24575   2.701  16.260   1.419  0.1367  0.1370  0.0321
 9445W        W24576   1.752   5.581   1.556 -0.0237 -0.0138 -0.1560
 9446W        W24577  13.124   2.036  16.328  0.3569 -0.1621 -0.0446
 9447W        W24578  12.855   9.951  14.294 -0.0674 -0.1618 -0.0899
 9448W        W24579   5.591   7.958   0.184 -0.2047 -0.0711 -0.3095
 9449W        W24580   5.288   0.954  16.692 -0.0664 -0.0708 -0.0700
 9450W        W24581  11.717   5.218  11.531 -0.0689  0.2977 -0.0139
 9451W        W24582   0.371  13.309   3.763 -0.1840  0.1070 -0.2531
 9452W        W24583   3.699  12.718  11.764  0.1941 -0.1581  0.2260
 9453W        W24584   5.285  14.695   5.500  0.0299 -0.1548  0.0978
 9454W        W24585   3.363   7.005  16.592 -0.0571  0.2421 -0.1017
 9455W        W24586  13.891   1.522   3.249  0.0106 -0.0742  0.2036
 9456W        W24587   7.197  12.991   4.144 -0.2073 -0.1921 -0.0652
 9457W        W24588  17.379  14.113  12.507  0.0708 -0.1408  0.3688
 9458W        W24589  15.396  17.394  11.357  0.0726  0.0060  0.0239
 9459W        W24590   9.248  15.294   5.566  0.1663  0.0929  0.2550
 9460W        W24591   0.009   7.390   0.319  0.1502  0.2849  0.0387
 9461W        W24592   2.849  14.666   0.733 -0.3981  0.1257 -0.0551
 9462W        W24593   6.009  11.010  14.456 -0.1490 -0.2683  0.0099
 9463W        W24594  13.066   4.998  16.447  0.3013  0.1189  0.1461
 9464W        W24595  13.265  13.804  14.868 -0.3471  0.3158  0.0446
 9465W        W24596   0.071  15.660   0.301 -0.1910 -0.1260  0.1570
 9466W        W24597   0.349   6.945   3.700 -0.0348 -0.0236  0.0962
 9467W        W24598  16.672   6.578  12.928  0.2064  0.2026 -0.0020
 9468W        W24599  16.005  14.629   2.019  0.2385 -0.1824 -0.0710
 9469W        W24600  13.364  10.630   3.675 -0.2835  0.0248  0.1804
 9470W        W24601   6.046   7.557   2.057  0.1524 -0.0226 -0.1298
 9471W        W24602  17.059   9.630  13.709 -0.2024 -0.1465 -0.0951
 9472W        W24603   4.123   2.512  15.459  0.1658  0.1411 -0.2067
 9473W        W24604   5.480  10.251  12.737 -0.1239 -0.3954 -0.3056
 9474W        W24605  12.312   5.428   5.857  0.0326  0.2259  0.1338
 9475W        W24606  13.959   2.198   0.336  0.3717 -0.2774 -0.2277
 9476W        W24607   3.319   0.494  12.950  0.0355 -0.4098  0.4003
 9477W        W24608   4.611  11.766   3.616  0.0220  0.3251  0.5376
 9478W        W24609  16.670   8.895   3.783  0.0026  0.2586 -0.2132
 9479W        W24610   7.871  11.281  13.487  0.1618  0.1724  0.1918
 9480W        W24611   8.846   6.778   6.280  0.0939 -0.1161  0.1384
 9481W        W24612   2.955  17.102  12.671  0.2709 -0.1856 -0.0242
 9482W        W24613   3.037   9.010   1.208 -0.0960 -0.1087  0.0671
 9483W        W24614   1.499   3.409  16.535  0.0866  0.0769  0.3076
 9484W        W24615  12.748   2.679   2.262 -0.0427  0.1835  0.0500
 9485W        W24616   0.360  10.179   3.720 -0.1241  0.1521 -0.0730
 9486W        W24617  16.864  17.586   5.346  0.2625 -0.0297  0.3290
 9487W        W24618  11.465   2.677   4.201  0.2115  0.0806  0.0734
 9488W        W24619   2.120   7.638   4.233 -0.1663 -0.2480  0.1476
 9489W        W24620  12.446   4.156  15.390  0.0459 -0.0502  0.0513
 9490W        W24621  14.161   5.998  12.701 -0.1151 -0.0471  0.0296
 9491W        W24622  12.938   1.108   5.314 -0.0990  0.1086  0.0065
 9492W        W24623  13.424   2.520   5.427 -0.1491 -0.1435  0.1572
 9493W        W24624  14.724  11.401   4.346  0.1191  0.2345  0.1059
 9494W        W24625   5.080   8.927   4.017 -0.1620  0.1812 -0.3244
 9495W        W24626  12.408   3.578  15.147  0.1150 -0.0946  0.0132
 9496W        W24627   7.681  10.252  14.733 -0.0566 -0.0257  0.0006
 9497W        W24628  15.455   8.017   5.160 -0.2985 -0.1247  0.1046
 9498W        W24629   0.379   4.961   1.450 -0.1052 -0.0762 -0.0286
 9499W        W24630  13.392  11.622   4.038 -0.0491  0.0781 -0.0611
 9500W        W24631  15.889   8.296  13.422  0.1700 -0.1631 -0.2690
 9501W        W24632   8.635   4.033  15.156 -0.1903  0.2140 -0.2073
 9502W        W24633   3.609   9.668  15.847  0.0980  0.0223 -0.1564
 9503W        W24634   3.210   4.517  12.687 -0.1237 -0.3033 -0.0290
 9504W        W24635   0.553   4.783   0.714  0.0938 -0.1752  0.0638
 9505W        W24636   9.958   3.554  12.038 -0.2217  0.2523 -0.3871
 9506W        W24637  16.104  13.078   5.749 -0.0775  0.0669  0.1167
 9507W        W24638  12.163   0.949   1.593  0.1288 -0.0664  0.1815
 9508W        W24639   7.161  13.052   3.605 -0.1836 -0.1488  0.2509
 9509W        W24640  10.022   1.119   5.973  0.0113 -0.1033 -0.0320
 9510W        W24641  16.297  11.242   4.464  0.1973 -0.1354 -0.1328
 9511W        W24642  10.111  14.109   0.052  0.3658 -0.1714  0.1798
 9512W        W24643  13.910  11.799   3.894  0.3181  0.2483  0.1274
 9513W        W24644   7.030   4.405   0.842  0.0906 -0.1632  0.1507
 9514W        W24645  13.634   5.649  16.287  0.1778  0.1794  0.0419
 9515W        W24646   1.832   0.401   4.653  0.0120  0.0209  0.3155
 9516W        W24647   6.107  17.520   4.477 -0.0067 -0.3279  0.2172
 9517W        W24648   9.059   2.026   2.421  0.1986  0.5029 -0.3918
 9518W        W24649  16.076  12.634   1.692  0.5270 -0.1634 -0.1088
 9519W        W24650   0.289   9.768  14.630  0.0828  0.2136 -0.1601
 9520W        W24651   4.345   5.330   3.109  0.0057 -0.0639 -0.1301
 9521W        W24652  12.083  11.699  15.613  0.2421 -0.0858  0.1917
 9522W        W24653  15.753   2.528  12.746  0.2916 -0.0479  0.2119
 9523W        W24654  14.718  12.424   3.593  0.0005 -0.0021  0.3024
 9524W        W24655   7.617  17.409   2.376  0.0878  0.1062  0.0655
 9525W        W24656  12.262   9.306  11.498 -0.2591  0.3014  0.1868
 9526W        W24657  17.621  10.338  11.708  0.0824  0.1523 -0.1344
 9527W        W24658   0.353   4.174  10.114 -0.0385 -0.1404  0.1157
 9528W        W24659  15.561   3.019   0.272 -0.1487 -0.2153 -0.1747
 9529W        W24660   0.821  17.547   0.680  0.0160 -0.2513  0.1181
 9530W        W24661  17.441  16.245   1.937 -0.0602 -0.0096  0.2705
 9531W        W24662  14.965   2.875   5.471 -0.1596  0.2858 -0.3572
 9532W        W24663  15.329  17.091   5.499  0.1558 -0.0013 -0.2028
 9533W        W24664   8.715  10.823   1.894  0.0754 -0.4139 -0.0753
 9534W        W24665   2.379   8.269  12.956 -0.2379 -0.1441 -0.0296
 9535W        W24666   6.109   1.631  12.302 -0.3193 -0.1803 -0.2445
 9536W        W24667   1.787   1.694   3.575  0.0784 -0.0668 -0.0781
 9537W        W24668   0.175  11.082   3.372 -0.0590  0.0648 -0.1554
 9538W        W24669  15.930   7.153  13.011  0.0131  0.2254 -0.1751
 9539W        W24670   7.661   0.385   4.945  0.3457  0.1397  0.1342
 9540W        W24671  10.168   7.326   3.352 -0.0963 -0.1182 -0.0572
 9541W        W24672   3.973  14.881   4.636  0.0370  0.2040 -0.2162
 9542W        W24673   4.028   2.488  12.826 -0.0685 -0.0749  0.3787
 9543W        W24674   7.231   9.396  15.608  0.1164 -0.1595  0.0501
 9544W        W24675   1.005   7.225   0.728  0.1686  0.5159 -0.1195
 9545W        W24676  14.449  12.595  14.878 -0.2367 -0.0613  0.4301
 9546W        W24677  17.125   3.839  11.307  0.0447 -0.4392 -0.3413
 9547W        W24678   6.756   0.629  11.734  0.0275 -0.0952 -0.0355
 9548W        W24679  13.583   1.117  12.159  0.1442 -0.0902 -0.3552
 9549W        W24680  14.113   8.190  14.899  0.2898  0.1780 -0.0767
 9550W        W24681  11.348   6.824  12.026 -0.0642  0.1934  0.0794
 9551W        W24682   7.672   7.035   4.139  0.2850 -0.2448 -0.2677
 9552W        W24683   5.558   7.282   3.339 -0.1197  0.1469 -0.1622
 9553W        W24684   4.072   6.117  16.909  0.2269  0.0895  0.1787
 9554W        W24685  13.801  16.078   5.159  0.1218 -0.0700 -0.1939
 9555W        W24686  14.667  12.898  13.434 -0.1680 -0.1760 -0.0494
 9556W        W24687  17.317  13.741   1.584 -0.0135 -0.2054  0.0175
 9557W        W24688  15.795  16.284  11.794 -0.0150 -0.0051  0.2970
 9558W        W24689   5.777  11.796   0.861  0.0935  0.0484 -0.2272
 9559W        W24690  17.340   0.808  15.063 -0.3782  0.2288  0.0966
 9560W        W24691  16.988   5.020   3.844 -0.0931  0.0182 -0.1091
 9561W        W24692  10.898   3.840   2.033 -0.3506  0.0488 -0.1566
 9562W        W24693  11.154   0.213  16.266 -0.0824 -0.3208  0.1097
 9563W        W24694   6.202  10.076  13.349  0.1718  0.0241 -0.0809
 9564W        W24695   0.044   1.401   5.620 -0.1882  0.0525  0.1159
 9565W        W24696   5.966   4.644   5.158 -0.1421  0.0687  0.0732
 9566W        W24697   8.726  12.770  14.107  0.4313  0.2141  0.3096
 9567W        W24698  10.161   1.108   3.300  0.1517 -0.0382 -0.0419
 9568W        W24699   7.974   7.834  10.753  0.0728 -0.1832  0.1408
 9569W        W24700  11.032  13.086  13.622  0.0563 -0.2371  0.0198
 9570W        W24701   4.893   4.613   5.282  0.0297 -0.2190 -0.1550
 9571W        W24702  16.624   0.329   5.122 -0.2445 -0.1565 -0.0050
 9572W        W24703  12.566  10.589  16.859  0.0559  0.0724  0.1156
 9573W        W24704   6.493   7.038  15.599 -0.0253 -0.0018 -0.0726
 9574W        W24705   5.662   4.099  11.085 -0.0040  0.0588  0.2017
 9575W        W24706   3.035   2.637   4.521  0.1846 -0.1383 -0.1297
 9576W        W24707  16.459   3.613  13.567  0.2952  0.1077 -0.2629
 9577W        W24708   5.998   2.499  13.708  0.3151  0.1437 -0.0734
 9578W        W24709  13.250   8.533  11.763 -0.3441 -0.3373  0.1501
 9579W        W24710   4.255  12.436  16.083  0.2768 -0.1572 -0.1004
 9580W        W24711   0.397  14.910   4.136 -0.0043  0.0069  0.0337
 9581W        W24712   8.422  13.819  14.491  0.0698  0.1687  0.0712
 9582W        W24713   5.682   8.398  12.737  0.3304 -0.1703  0.0372
 9583W        W24714  10.878  16.843   2.931 -0.0294  0.4802  0.2492
 9584W        W24715  16.791  15.423   1.177  0.0098  0.3493 -0.0778
 9585W        W24716  12.178  12.919   5.540  0.2464  0.0049 -0.1555
 9586W        W24717   5.292  17.082  12.197 -0.0390  0.0097  0.1769
 9587W        W24718   5.651  15.221   4.952 -0.0584 -0.2785  0.1427
 9588W        W24719   5.783  15.937   5.322  0.1913 -0.3546 -0.0015
 9589W        W24720  15.906  16.129  12.931 -0.1135  0.0161 -0.3137
 9590W        W24721   1.591  16.272  12.276  0.0233 -0.0359 -0.1918
 9591W        W24722   2.859   5.098  16.682  0.2958  0.2967  0.3560
 9592W        W24723  12.228   8.465   1.901  0.1429  0.0685  0.0555
 9593W        W24724  14.890   4.483  15.203 -0.1426 -0.1503 -0.0251
 9594W        W24725  15.897  11.974  15.252  0.2616  0.1035 -0.1308
 9595W        W24726  10.257  13.076   1.637 -0.3060  0.0863  0.3009
 9596W        W24727   8.702   3.278   4.717  0.0474  0.4834  0.1547
 9597W        W24728   0.571   6.392  11.884 -0.1508 -0.0740  0.3489
 9598W        W24729  14.870   3.529   0.414  0.1694 -0.0982  0.0559
 9599W        W24730  12.312   5.179  11.458 -0.1139 -0.0509 -0.1113
 9600W        W24731  17.194   8.062  14.931  0.0511  0.0033  0.0603
 9601W        W24732  11.488   9.130  14.897  0.0375  0.0577  0.0534
 9602W        W24733   3.876  12.870   1.505  0.3482  0.3304  0.0508
 9603W        W24734   4.020  15.975  16.254  0.3702 -0.0067  0.2760
 9604W        W24735   7.465   1.800   4.899 -0.2468  0.0220  0.0288
 9605W        W24736  17.121   3.996   4.545 -0.1349  0.2103 -0.0128
 9606W        W24737  10.055   6.611   2.025  0.0021  0.1538 -0.2295
 9607W        W24738  13.291  12.746  11.636 -0.0233  0.0515  0.3028
 9608W        W24739   7.311   8.763  15.325  0.1152 -0.1025  0.0452
 9609W        W24740  11.725   5.464   3.368  0.2869 -0.2846 -0.0511
 9610W        W24741   2.481  13.909   4.854  0.1255  0.0749 -0.1751
 9611W        W24742   2.871  12.112  14.340 -0.2687 -0.1140 -0.1369
 9612W        W24743   4.352  17.238  12.775  0.0735  0.0982  0.0938
 9613W        W24744   9.655   3.399   3.439  0.0960  0.2981 -0.1946
 9614W        W24745  13.360  14.331  14.891  0.1141  0.4052 -0.0895
 9615W        W24746   6.624   9.536  13.215 -0.2307 -0.0054  0.1513
 9616W        W24747   7.908   6.231   1.005 -0.0206  0.0121  0.3743
 9617W        W24748   9.788   9.483  13.812  0.1810 -0.2650  0.0493
 9618W        W24749   8.522  17.649  11.690 -0.0803  0.2488 -0.1688
 9619W        W24750   4.245  17.224  16.634  0.1522  0.0408  0.1942
 9620W        W24751   9.121   4.796  16.093  0.0480 -0.3451  0.1049
 9621W        W24752  12.546   0.627   1.340  0.1065  0.0347  0.0861
 9622W        W24753  15.530  11.990   4.378 -0.0029 -0.0463  0.1696
 9623W        W24754  15.083   1.900  16.435 -0.1664  0.1734  0.2146
 9624W        W24755  17.470  11.654  14.880 -0.0215  0.1533  0.2767
 9625W        W24756   7.147  15.560  16.378 -0.2829  0.0577  0.2078
 9626W        W24757   2.354  15.119   2.564 -0.1643 -0.2283 -0.0770
 9627W        W24758   4.368  12.090  13.180 -0.0335 -0.1439  0.2446
 9628W        W24759  11.414   7.467   3.421  0.2639  0.2530 -0.2201
 9629W        W24760   0.705   4.230  14.258  0.1663  0.0895  0.0376
 9630W        W24761   1.021   5.288  16.490 -0.0281 -0.1195  0.1782
 9631W        W24762  12.293   3.119  12.383  0.2356  0.2437  0.3469
 9632W        W24763  12.047   2.546   0.265  0.1183 -0.0580  0.0909
 9633W        W24764   1.894  12.395   4.406  0.0384  0.1500  0.1872
 9634W        W24765   5.603   0.903   1.778 -0.1542 -0.1130  0.3001
 9635W        W24766  16.111   0.520   3.043  0.2275  0.0469 -0.0649
 9636W        W24767  13.695   0.217  12.646 -0.0717  0.0507 -0.1126
 9637W        W24768   3.570   1.216   2.071  0.0914  0.0432  0.2130
 9638W        W24769  11.498  15.269  15.916 -0.0738  0.0009 -0.0004
 9639W        W24770   9.501   8.160   4.615 -0.2093 -0.1357  0.1155
 9640W        W24771  10.910  14.661   0.041 -0.0888  0.0551  0.0884
 9641W        W24772  13.648   0.110  16.335  0.1886 -0.1314 -0.0669
 9642W        W24773   2.939   4.950   5.569  0.0386 -0.1101 -0.1815
 9643W        W24774   8.099   5.564  14.205  0.1294 -0.1738  0.2958
 9644W        W24775  12.795   0.768   4.846 -0.0597 -0.0430  0.1377
 9645W        W24776   4.513   2.527   3.463  0.1008 -0.1677  0.0659
 9646W        W24777  16.187  12.294  12.660  0.2298 -0.1562 -0.2292
 9647W        W24778  13.507   7.342   0.308 -0.0083  0.0091 -0.1242
 9648W        W24779   4.400   7.055   4.149 -0.2623  0.1366  0.0300
 9649W        W24780   5.480   3.126   4.362 -0.2398  0.0206  0.0160
 9650W        W24781  15.583   0.221   5.373 -0.1203 -0.1516 -0.3600
 9651W        W24782   4.684  17.232  15.735  0.0060  0.1806 -0.1198
 9652W        W24783  17.385  11.522  15.734 -0.1036  0.1385 -0.3281
 9653W        W24784   6.369  12.596   5.170  0.3155  0.0581  0.1324
 9654W        W24785   0.460   7.131  14.393  0.0585  0.1124 -0.0231
 9655W        W24786  13.483  15.439   5.413 -0.1706  0.1616  0.0881
 9656W        W24787  11.823  14.522   4.170  0.3207  0.2453 -0.0728
 9657W        W24788  14.930  15.274   5.038 -0.1489 -0.0778 -0.0044
 9658W        W24789   0.489  13.760   4.944 -0.1025 -0.0294 -0.1134
 9659W        W24790   8.670  12.018  15.491 -0.0011  0.0473  0.0748
 9660W        W24791  10.792  14.407   4.207  0.0615 -0.0423 -0.0479
 9661W        W24792   1.994   8.379  16.872  0.0672 -0.0808  0.1144
 9662W        W24793   8.164   9.709   0.957 -0.1862  0.0727 -0.1190
 9663W        W24794  14.332   8.931  16.497  0.2113 -0.0061  0.0424
 9664W        W24795   1.074  16.881  14.932  0.1000  0.0328 -0.1183
 9665W        W24796   2.939   0.871   1.238  0.3935  0.1194 -0.2364
 9666W        W24797   3.973   1.999  12.845 -0.0123  0.2035 -0.0115
 9667W        W24798  16.969  12.017   4.919  0.1700  0.1286 -0.0783
 9668W        W24799  11.499  15.891   2.184  0.1175  0.1168  0.0059
 9669W        W24800   8.967  12.079   0.237 -0.2197  0.0898 -0.3047
 9670W        W24801   5.308   1.205   5.193 -0.0731  0.0883  0.1023
 9671W        W24802  16.258  17.043  14.573 -0.1234  0.1925 -0.1083
 9672W        W24803   3.630  10.768  16.560 -0.0515  0.0118 -0.0419
 9673W        W24804   7.993   6.461  16.382 -0.0245 -0.1515 -0.2257
 9674W        W24805   4.374   1.242  11.706  0.3474  0.4028 -0.0424
 9675W        W24806   2.414  11.509   4.150  0.0209  0.0458 -0.0713
 9676W        W24807   0.572   4.672   2.948 -0.1310  0.0207  0.0468
 9677W        W24808  16.460   3.247   6.376  0.0099  0.1478  0.0207
 9678W        W24809  15.438  16.576   5.393 -0.1555  0.3814 -0.3092
 9679W        W24810   0.080   3.444  12.075  0.0532 -0.0496 -0.0205
 9680W        W24811   6.925   2.019  14.485  0.1356 -0.0048  0.1124
 9681W        W24812  15.824  11.464   5.844 -0.0315  0.0545  0.0783
 9682W        W24813   7.513  13.132   0.429 -0.1387 -0.0236  0.1757
 9683W        W24814  12.971   6.172   1.479  0.0141 -0.1773 -0.1036
 9684W        W24815   7.913  11.632   2.965 -0.0058  0.0027 -0.1235
 9685W        W24816  16.428  16.878  13.660  0.0218  0.0863 -0.0158
 9686W        W24817   8.779   4.090   3.876  0.1034 -0.3032  0.0820
 9687W        W24818  17.257   5.424   3.688 -0.0136 -0.0235 -0.0921
 9688W        W24819   9.486   6.078  13.909 -0.2331  0.1676 -0.1883
 9689W        W24820   8.219   2.811   0.001  0.0046  0.0470 -0.0960
 9690W        W24821   4.525  11.518  15.814 -0.1816 -0.0402  0.2954
 9691W        W24822   1.076  12.823   1.801  0.2025 -0.2833  0.1876
 9692W        W24823  13.031   2.145  15.037 -0.1522  0.1938  0.2317
 9693W        W24824  11.287   2.054   1.790 -0.1170  0.1510  0.1554
 9694W        W24825  17.133   6.789  13.124  0.0350 -0.1464  0.0209
 9695W        W24826  14.995   1.622  14.894  0.0381 -0.1415  0.1698
 9696W        W24827   8.040  13.427  15.241 -0.0665  0.0772 -0.1371
 9697W        W24828   6.278   3.306  11.276  0.1241  0.0602 -0.1493
 9698W        W24829   1.662  16.084  16.348 -0.2012  0.1351  0.0776
 9699W        W24830  10.390   3.362   4.618 -0.0569  0.2551 -0.0222
 9700W        W24831  16.565  14.015   5.417 -0.1588 -0.0666 -0.1722
 9701W        W24832  12.579   2.665   4.857 -0.1844 -0.0573 -0.1103
 9702W        W24833  16.851   4.269   3.389 -0.1212 -0.1659 -0.2660
 9703W        W24834   4.203   1.146  13.465  0.1276 -0.3831 -0.3704
 9704W        W24835   0.441  10.563   2.041  0.0029  0.1226  0.0091
 9705W        W24836  14.052  17.479   5.784 -0.0488  0.0992  0.0290
 9706W        W24837   1.291   3.309   4.624  0.2068  0.4626  0.2395
 9707W        W24838   0.820  12.246  15.364  0.0445 -0.0198  0.1897
 9708W        W24839   1.406  12.660  13.334 -0.0898 -0.0286 -0.0525
 9709W        W24840  14.235   4.926  14.160  0.1106  0.0681  0.0012
 9710W        W24841   9.782   7.053   3.584 -0.1165 -0.1163  0.0608
 9711W        W24842  12.703  13.683   5.665 -0.0538 -0.2140  0.1209
 9712W        W24843  10.215   4.952  16.647  0.3218 -0.0276 -0.0122
 9713W        W24844   6.718  11.364  12.137  0.1036 -0.3190  0.0195
 9714W        W24845  11.701  13.651   4.961  0.2335 -0.4209  0.1097
 9715W        W24846  11.114  16.152   0.996 -0.0198  0.1491  0.2882
 9716W        W24847  11.154  16.041  16.800  0.1943  0.1556  0.1581
 9717W        W24848   5.929   3.408   5.001  0.0925 -0.3258  0.1440
 9718W        W24849   5.813   2.796  13.304  0.1365 -0.0351  0.0493
 9719W        W24850   7.386   1.677   4.394 -0.1497 -0.2197  0.0953
 9720W        W24851  15.707  15.335  11.514  0.1003 -0.4348  0.1816
 9721W        W24852   5.403   3.162  16.717  0.0651 -0.0259 -0.0027
 9722W        W24853  11.055  10.872  15.830  0.1313  0.0962 -0.2745
 9723W        W24854   1.403  13.201  12.347 -0.1489 -0.1630 -0.1136
 9724W        W24855   6.224   2.434   0.471 -0.1106  0.0259  0.0061
 9725W        W24856  15.160  11.745   4.147 -0.2446 -0.1174 -0.1832
 9726W        W24857  14.822   3.088   0.837  0.1059 -0.0756 -0.0504
 9727W        W24858   2.211  13.986   2.655 -0.1257 -0.2810 -0.1568
 9728W        W24859  16.500  12.923   1.948  0.2157  0.1334  0.3429
 9729W        W24860  10.692   8.878   1.425  0.0691  0.0222  0.1108
 9730W        W24861   2.707   5.708  12.276 -0.1202 -0.1370 -0.1274
 9731W        W24862  14.997   4.857   0.256  0.3509  0.1498 -0.2744
 9732W        W24863   7.610   0.038   1.892 -0.1821  0.1126  0.1393
 9733W        W24864  17.076  12.866  15.746  0.0401 -0.2775 -0.0449
 9734W        W24865   6.859   5.525   4.779 -0.1059  0.2806 -0.0183
 9735W        W24866   6.019  17.438   3.446  0.2107  0.0819  0.0720
 9736W        W24867   9.027   4.836  14.630  0.2613  0.0323  0.1183
 9737W        W24868  15.415   1.303  16.618 -0.0115  0.1262  0.1324
 9738W        W24869  16.533   2.748   4.818  0.1935  0.0859 -0.1489
 9739W        W24870   5.382  17.258  16.869  0.0777 -0.0323  0.2418
 9740W        W24871  12.827   6.591   3.104  0.1648  0.0099 -0.2507
 9741W        W24872   0.775   7.733   5.423 -0.0897  0.0674  0.0649
 9742W        W24873   5.792   7.001   0.644 -0.0597 -0.0848  0.1062
 9743W        W24874  14.209   2.871   3.242 -0.2857 -0.1983 -0.0257
 9744W        W24875  12.114   3.955   1.245 -0.3684  0.1963  0.2918
 9745W        W24876  13.338   2.023   2.098  0.1678 -0.0735 -0.0528
 9746W        W24877  14.438   3.530   1.423  0.1757  0.1615 -0.0654
 9747W        W24878  14.436   3.351  11.311 -0.1402  0.1229  0.3422
 9748W        W24879   8.974  17.488   5.796  0.0155  0.1804 -0.1834
 9749W        W24880  11.492  16.262   5.234  0.0442 -0.1902 -0.1519
 9750W        W24881   7.623   6.916   5.779 -0.3360  0.1104  0.1111
 9751W        W24882  15.801   4.016   2.865 -0.1771 -0.0226  0.2560
 9752W        W24883  14.961   1.230   1.570 -0.0541 -0.0151 -0.1303
 9753W        W24884   6.733  13.816  14.426 -0.2244 -0.2662  0.0332
 9754W        W24885   1.406   5.078   3.089 -0.0706  0.1101 -0.1029
 9755W        W24886  13.190   1.752  15.905 -0.3486  0.0533  0.2319
 9756W        W24887   2.006   9.611  12.068 -0.2331  0.2585  0.1660
 9757W        W24888  12.811  16.172   1.309 -0.1577 -0.1168 -0.1109
 9758W        W24889   9.637   1.145  16.779  0.2821  0.2753  0.0449
 9759W        W24890   8.871   2.227   0.152  0.2047  0.3220 -0.3308
 9760W        W24891  10.951  10.005  12.439 -0.1270 -0.2447  0.0540
 9761W        W24892   7.730   0.632   1.211  0.2580 -0.0288  0.2835
 9762W        W24893  12.097   1.329   4.710  0.2951 -0.0964 -0.2169
 9763W        W24894   5.677  15.644   4.617 -0.0919  0.4980  0.0324
 9764W        W24895  12.756  14.805   3.177 -0.3250  0.0894  0.1164
 9765W        W24896  17.057   8.885   5.296 -0.3740  0.2263 -0.1783
 9766W        W24897  16.716  15.369  15.468  0.1801 -0.1807 -0.1874
 9767W        W24898  16.947  17.074  12.546  0.2707  0.0895 -0.0731
 9768W        W24899  12.761   4.174   5.074 -0.4038  0.0767  0.0380
 9769W        W24900   6.250   3.741  11.465  0.0617  0.0972 -0.0067
 9770W        W24901   2.211   6.499  14.784  0.0866 -0.0957 -0.1509
 9771W        W24902   6.273   2.575  14.097  0.1737  0.0222 -0.4170
 9772W        W24903  13.878   2.616  16.876 -0.0280 -0.2108 -0.3021
 9773W        W24904   2.680   4.447   2.048 -0.0612 -0.1353 -0.0006
 9774W        W24905   9.266   9.194   4.657 -0.0229  0.3515  0.3435
 9775W        W24906   7.909   5.393   2.631 -0.0900  0.0238  0.2447
 9776W        W24907  10.055   4.321   3.290 -0.2743  0.1915  0.0192
 9777W        W24908  13.221  16.524  15.361  0.2275  0.0160 -0.0428
 9778W        W24909  11.371   5.211  15.884  0.0122  0.2318  0.2176
 9779W        W24910   7.955  16.580   5.669  0.4000  0.1868 -0.1104
 9780W        W24911  16.540   0.682  11.250  0.5085 -0.1106  0.0317
 9781W        W24912  14.176   5.031   0.193  0.0723  0.0590  0.1217
 9782W        W24913   6.735   6.549  13.127 -0.1928  0.1096  0.2432
 9783W        W24914  11.878  15.855   3.596 -0.1149  0.1754  0.4293
 9784W        W24915   7.308   4.191  16.133 -0.1301  0.0901 -0.3029
 9785W        W24916   0.251  11.124  15.416 -0.1376 -0.0210  0.0948
 9786W        W24917  12.502   6.569  16.255 -0.1585 -0.0548  0.0634
 9787W        W24918   7.291   3.461   3.097  0.0528  0.0727 -0.4007
 9788W        W24919   9.742   9.559   4.263  0.2025  0.1386  0.0048
 9789W        W24920   2.298  17.577  14.389 -0.1219 -0.1525 -0.0799
 9790W        W24921   3.082   8.459   5.977 -0.1916  0.0973  0.0691
 9791W        W24922  16.337   0.878   0.493 -0.2455 -0.1485 -0.1690
 9792W        W24923   4.209  14.618   0.333 -0.0022 -0.0634 -0.1530
 9793W        W24924  14.045   9.444  13.426 -0.1835 -0.1606  0.2250
 9794W        W24925   1.151   7.819   1.297 -0.0646  0.0072 -0.1503
 9795W        W24926  15.254  11.977   0.342  0.3752  0.0093 -0.2957
 9796W        W24927   7.340   6.970   1.072  0.1227 -0.1321  0.0766
 9797W        W24928  12.373   6.058   0.765 -0.2523 -0.2228  0.0652
 9798W        W24929  14.807   3.637  11.613 -0.2742  0.0685  0.2585
 9799W        W24930   4.393  13.326   4.601 -0.0497 -0.1623 -0.0013
 9800W        W24931   0.134   0.231  13.316 -0.0683 -0.1164  0.1532
 9801W        W24932   6.313   0.056  16.115 -0.0634  0.2504  0.0384
 9802W        W24933   3.920  11.573   2.899  0.0296 -0.3032 -0.1580
 9803W        W24934  15.975  13.502  15.444  0.3295 -0.4236  0.0617
 9804W        W24935  14.321  16.411   3.938  0.1270  0.0876  0.0118
 9805W        W24936   6.883   1.514   3.549 -0.0520 -0.0653  0.2256
 9806W        W24937   5.351  12.225  12.145  0.3281  0.1388  0.0854
 9807W        W24938  16.660  17.614  11.320 -0.1633 -0.2716  0.1769
 9808W        W24939  17.270   0.776  13.521  0.2341  0.1541 -0.3806
 9809W        W24940   3.287  13.553   2.734  0.0718  0.0240  0.2023
 9810W        W24941   4.788   8.618  12.276  0.2387  0.0082  0.0992
 9811W        W24942   9.048   6.451  15.278  0.3110 -0.0328 -0.0598
 9812W        W24943   0.175   7.066  11.042  0.0877  0.1115 -0.0738
 9813W        W24944   6.888   5.698  16.013  0.1068 -0.1856  0.2997
 9814W        W24945   4.047   9.075  15.079  0.0502 -0.1519 -0.0934
 9815W        W24946   5.035   6.995   6.176  0.1877  0.1632 -0.1038
 9816W        W24947   4.899  11.027   1.782  0.1719  0.1568  0.2018
 9817W        W24948  13.442   4.344  13.834  0.1002  0.2079 -0.1684
 9818W        W24949  11.961  12.545  14.599  0.1647 -0.1974  0.1890
 9819W        W24950   6.607  14.985   0.046  0.1442  0.1100  0.1462
 9820W        W24951  13.890   6.333   2.963  0.2667 -0.0077 -0.0275
 9821W        W24952  14.454  10.865   4.418 -0.3049 -0.1814  0.1041
 9822W        W24953   4.804   1.938   2.633 -0.0052  0.3474  0.1015
 9823W        W24954   5.327  15.028   4.172  0.0864  0.0251 -0.2255
 9824W        W24955   5.734   6.190   4.552 -0.0270 -0.2004 -0.0709
 9825W        W24956  11.232   8.345  14.050  0.0545  0.1689  0.0948
 9826W        W24957   5.153  11.869  13.539  0.2555 -0.0298  0.1947
 9827W        W24958  10.808  17.361  11.979  0.2021  0.0150 -0.0251
 9828W        W24959   7.700   0.662   1.707 -0.0099  0.2521 -0.2119
 9829W        W24960  14.263  11.904   2.266 -0.4694 -0.1313  0.0136
 9830W        W24961   6.868  17.200   3.565  0.2828 -0.1438  0.1789
 9831W        W24962  12.815   5.951  16.859  0.2334  0.0864 -0.0962
 9832W        W24963   9.025   9.348   2.701  0.1015 -0.0313  0.0586
 9833W        W24964  16.348   6.274   4.737  0.1629  0.2443  0.1176
 9834W        W24965  15.727  14.393  16.325 -0.0287  0.0411 -0.0747
 9835W        W24966   6.492  11.610   0.501 -0.0288 -0.3514  0.3061
 9836W        W24967   7.396   6.236  14.950  0.0187  0.1580  0.0360
 9837W        W24968   0.968  10.841  15.169  0.0128  0.0868 -0.0592
 9838W        W24969  10.821  12.127  13.604 -0.0784 -0.0663  0.1478
 9839W        W24970  11.555   7.416   2.920  0.0914  0.0202  0.2244
 9840W        W24971  13.960  15.441   3.200  0.2258 -0.0994  0.0342
 9841W        W24972  16.013   5.827  15.510 -0.3232  0.1212  0.2425
 9842W        W24973   3.508   7.503  16.536  0.0299 -0.0270  0.1189
 9843W        W24974  16.655  13.254   1.236 -0.0066  0.2841 -0.0114
 9844W        W24975   2.818  14.689   5.128  0.2460  0.2741  0.1306
 9845W        W24976   3.541   2.346   1.595  0.2501 -0.1410 -0.1804
 9846W        W24977  11.335  15.502   5.721 -0.0889 -0.0398 -0.0048
 9847W        W24978   8.627  13.613   5.632  0.3663  0.2134 -0.0426
 9848W        W24979   6.803  17.613   4.260 -0.1008 -0.2553  0.1888
 9849W        W24980   6.420  11.220   3.208 -0.0783 -0.2745 -0.0087
 9850W        W24981  16.708  16.444   4.571 -0.1308 -0.0703  0.0323
 9851W        W24982   9.038  13.301   4.299  0.0737  0.0986 -0.0885
 9852W        W24983  15.884   3.134   5.641 -0.1887 -0.0757  0.1659
 9853W        W24984   0.286   2.589  12.392  0.0116 -0.1198  0.4026
 9854W        W24985   2.392   3.710  10.793 -0.3116  0.3440 -0.0206
 9855W        W24986  14.938   7.607  15.221 -0.0386 -0.3629 -0.2754
 9856W        W24987   8.978  10.189   0.280  0.1667 -0.2906  0.1096
 9857W        W24988   1.694   3.284   3.326  0.1170 -0.1822  0.0650
 9858W        W24989  11.609  15.760   0.047 -0.0146 -0.0238  0.0307
 9859W        W24990   5.752   9.196   2.831 -0.0976 -0.2018 -0.1806
 9860W        W24991   3.777   2.634   2.590 -0.2985  0.1166  0.1604
 9861W        W24992   7.949  12.567  16.462 -0.0826  0.0042 -0.0973
 9862W        W24993   0.670   4.082  14.847 -0.0655  0.0919  0.0196
 9863W        W24994   8.908  13.072  16.318  0.2750  0.2346 -0.0210
 9864W        W24995   6.722   4.404  12.084 -0.0478 -0.1859 -0.3025
 9865W        W24996  15.608  11.850  12.387  0.3313  0.0638  0.2059
 9866W        W24997  15.753  10.886   2.514  0.0315  0.1944  0.5022
 9867W        W24998   8.821  11.873  16.284  0.1154 -0.0529 -0.0344
 9868W        W24999   7.674   0.983   2.118  0.0526  0.0860  0.3893
 9869W        W25000   5.871   9.826   2.442 -0.2132  0.1443  0.0693
 9870W        W25001   7.709  15.060   3.883 -0.4110  0.0709  0.0667
 9871W        W25002   9.797  17.173  14.767 -0.1790 -0.0699  0.3483
 9872W        W25003  12.786   5.983  12.706 -0.0876  0.1998  0.0776
 9873W        W25004  12.409   4.515  13.623  0.0726 -0.1746 -0.1102
 9874W        W25005   1.475   0.702  16.398  0.0502 -0.0194  0.0866
 9875W        W25006   5.652   6.797  16.389 -0.0211  0.1402 -0.1078
 9876W        W25007  13.196   0.990  15.491  0.1168  0.0213 -0.1381
 9877W        W25008   0.854   8.519   2.955 -0.2133  0.1288  0.1624
 9878W        W25009  10.386  10.334   5.777 -0.0750 -0.0633  0.2050
 9879W        W25010  12.288   8.152   0.199 -0.2449  0.0475 -0.2539
 9880W        W25011   8.981  12.955   2.798 -0.0805 -0.2492 -0.0315
 9881W        W25012   2.687  14.248  12.071 -0.1894  0.1429  0.1864
 9882W        W25013  11.934   0.430  14.408  0.0605 -0.0485 -0.1435
 9883W        W25014  13.561   3.540  11.863  0.0334 -0.0107  0.2358
 9884W        W25015  16.545  15.274  16.040 -0.1161  0.2281  0.1727
 9885W        W25016  13.707   9.827   4.976 -0.2969  0.2292 -0.2619
 9886W        W25017  15.685   3.930   1.384  0.2889 -0.2272 -0.0096
 9887W        W25018  14.503  15.114   1.144 -0.0937 -0.2641  0.0081
 9888W        W25019  10.758   9.641  12.122 -0.0019  0.0630  0.3389
 9889W        W25020  15.128  11.816   3.075 -0.0211  0.3092 -0.3648
 9890W        W25021  14.022  12.403  15.790  0.2398  0.2832  0.2895
 9891W        W25022   8.053  16.046   0.435  0.1063 -0.1555 -0.0078
 9892W        W25023   4.520  14.469  12.595  0.1006 -0.0199 -0.1080
 9893W        W25024  17.267   1.518   1.686 -0.1939 -0.0298  0.1144
 9894W        W25025  17.635   8.488   0.577  0.1296 -0.0204  0.1659
 9895W        W25026  10.518   4.498  15.792 -0.0691 -0.0888 -0.1220
 9896W        W25027   4.740   6.554  14.049 -0.1312 -0.1286  0.0705
 9897W        W25028  13.324  17.137   4.007  0.1946 -0.1056 -0.1946
 9898W        W25029   5.483  14.877  12.662  0.0615 -0.1758  0.0097
 9899W        W25030   0.335  17.387  15.847  0.0525  0.0035 -0.1725
 9900W        W25031  15.929   4.956   2.920  0.1572 -0.0430  0.1520
 9901W        W25032   9.931   3.551  16.337  0.0396  0.0662  0.0627
 9902W        W25033   0.717  15.733  13.575 -0.0042  0.0584 -0.3061
 9903W        W25034   9.236   9.110   3.997  0.0025  0.1361  0.0982
 9904W        W25035   8.511   9.967  15.199 -0.2625 -0.0545 -0.1765
 9905W        W25036  13.680   7.843   1.985 -0.3261 -0.1654  0.1165
 9906W        W25037  12.088  17.544   3.467  0.0405  0.1418 -0.3015
 9907W        W25038   5.559  14.181  13.228  0.1768  0.2878 -0.0402
 9908W        W25039   7.816   9.375   0.209 -0.0179 -0.0309  0.0858
 9909W        W25040  11.567   6.012  11.830 -0.2270 -0.4551  0.1958
 9910W        W25041  16.626   1.628  16.072  0.0083  0.0707 -0.0208
 9911W        W25042   6.873  10.560  15.140 -0.0831  0.2068  0.0005
 9912W        W25043  15.947   5.974  11.557  0.0260  0.2327  0.3233
 9913W        W25044   4.350   1.771  12.503 -0.0067 -0.1224  0.1618
 9914W        W25045  12.494  11.489  13.219  0.3042  0.0417  0.2910
 9915W        W25046  11.319  14.489  15.229 -0.0476  0.1030 -0.1772
 9916W        W25047  14.729   6.242  15.614 -0.1015  0.0352  0.3323
 9917W        W25048  16.780  16.216   0.940 -0.1029 -0.0429 -0.0540
 9918W        W25049  17.491  17.580  14.632 -0.0382 -0.1209  0.2490
 9919W        W25050   0.029   5.225   0.575 -0.0728 -0.0559  0.1647
 9920W        W25051   6.847   6.176   3.075 -0.0920 -0.2891  0.0423
 9921W        W25052   7.101   5.943   4.805  0.4786  0.0199  0.1522
 9922W        W25053  15.407   5.399  11.944 -0.0501  0.1101 -0.0407
 9923W        W25054   1.582  16.954   2.871  0.1616  0.2343 -0.1982
 9924W        W25055   1.563  10.385  15.789 -0.0244 -0.0313  0.1393
 9925W        W25056   0.557  11.028   1.889  0.1455  0.1339  0.0029
 9926W        W25057  15.100  15.884   4.257 -0.0955 -0.1040 -0.1406
 9927W        W25058   0.171   8.062   2.952  0.0574  0.0390 -0.0375
 9928W        W25059   9.837   6.256  16.800 -0.0884  0.0073 -0.1654
 9929W        W25060   8.843   4.674   4.749  0.0035 -0.3308 -0.0350
 9930W        W25061   9.062  10.407   4.616 -0.1509  0.1063  0.1064
 9931W        W25062  14.215   6.827  13.007 -0.0296 -0.1527 -0.0792
 9932W        W25063   7.786   2.087  14.446  0.0153  0.1800  0.1558
 9933W        W25064   7.497   6.783   3.707  0.3053  0.1950  0.1591
 9934W        W25065   5.618   8.723  11.630  0.0643  0.1135  0.4779
 9935W        W25066  16.014  10.994  14.000 -0.0997 -0.0830  0.3129
 9936W        W25067   5.534  13.172   4.158 -0.2809  0.2377 -0.2693
 9937W        W25068  10.358  13.825  13.781 -0.5156  0.2812 -0.0019
 9938W        W25069  16.003   5.993   1.297  0.0881 -0.2552 -0.0510
 9939W        W25070  16.151  17.199  11.866 -0.2540  0.0149 -0.1412
 9940W        W25071  14.466   0.943   0.849 -0.1651  0.3086 -0.4113
 9941W        W25072  12.517   9.071   2.817 -0.0808 -0.2556 -0.0338
 9942W        W25073  12.899  15.132  12.292  0.0351 -0.0663 -0.1912
 9943W        W25074   5.714  13.804  16.694  0.1938  0.2123  0.2137
 9944W        W25075   7.141   5.420  14.228  0.0883 -0.1638  0.1226
 9945W        W25076   8.481   1.111  13.039  0.0052 -0.2243  0.4218
 9946W        W25077   9.147  15.436   3.471  0.2346 -0.2302  0.0603
 9947W        W25078  14.392   3.638  12.038 -0.1467 -0.0030  0.1750
 9948W        W25079  10.282   5.755   0.916 -0.1876  0.0282  0.2465
 9949W        W25080  10.525   8.077   2.104 -0.0307  0.1566  0.1029
 9950W        W25081   9.402  11.051   4.974  0.0061  0.1412 -0.1231
 9951W        W25082   0.169   1.253  14.086 -0.2025 -0.0415  0.1435
 9952W        W25083   5.216  11.739  12.267  0.1001 -0.2254 -0.3344
 9953W        W25084  12.511  10.877   4.227 -0.4370 -0.1989  0.2932
 9954W        W25085  12.960  10.210  12.679  0.0877 -0.1921 -0.0499
 9955W        W25086   7.182   1.745  16.279  0.2903  0.0626 -0.2137
 9956W        W25087   4.495   4.294  10.549  0.1054  0.3274 -0.0704
 9957W        W25088   0.129  15.633   3.423 -0.1285  0.0656 -0.0768
 9958W        W25089   6.110  12.847   1.683 -0.2956 -0.0238 -0.1167
 9959W        W25090   5.251   7.863  11.906  0.0541 -0.1622  0.1142
 9960W        W25091   5.313   0.042   2.379  0.1300  0.4006 -0.2944
 9961W        W25092  12.155   7.713  16.041  0.0389  0.3564  0.1168
 9962W        W25093   8.731   0.552   5.522  0.0829 -0.3013  0.1267
 9963W        W25094   3.006   0.459   2.180 -0.3126  0.0884 -0.1245
 9964W        W25095   0.352  12.881  14.845  0.4126 -0.1873  0.2230
 9965W        W25096   0.356   6.658  15.683  0.2566  0.0774 -0.0627
 9966W        W25097   3.914  16.306  13.062  0.2358 -0.0056  0.2440
 9967W        W25098  10.840   2.842  16.624 -0.2257  0.1020  0.3578
 9968W        W25099  17.183   6.176  11.224 -0.0510 -0.2687 -0.1374
 9969W        W25100   0.184  11.936   5.193  0.0150 -0.0976 -0.0103
 9970W        W25101  15.000   1.250   0.988  0.0521 -0.0482 -0.0518
 9971W        W25102   4.924   3.073  13.148 -0.0324  0.0175 -0.0207
 9972W        W25103   7.519  12.422  11.543 -0.0302  0.0995 -0.1298
 9973W        W25104   3.160   5.896  12.257 -0.1530  0.0825 -0.0738
 9974W        W25105   2.079  15.967  16.682 -0.0667 -0.1979  0.0467
 9975W        W25106   8.035   5.956  14.505  0.1099  0.0584 -0.2338
 9976W        W25107   7.361  11.493  13.135  0.0971  0.0814  0.0998
 9977W        W25108  14.023   8.179  14.352 -0.0990  0.1376  0.0690
 9978W        W25109  12.604   7.730   4.348 -0.0099 -0.4860 -0.2126
 9979W        W25110  16.124   5.175   0.512  0.0861 -0.0279 -0.1158
 9980W        W25111   2.841   8.859   0.528  0.0127  0.2498  0.3826
 9981W        W25112  10.430   2.919   2.128  0.1016 -0.0241 -0.1576
 9982W        W25113   6.040  12.073  11.967 -0.3907 -0.0266 -0.1131
 9983W        W25114  14.954   0.201  16.784  0.0892 -0.2409 -0.0525
 9984W        W25115   7.499   7.276  16.128 -0.0232 -0.1118 -0.1059
 9985W        W25116   4.391  11.511  12.646 -0.2495  0.0944  0.0882
 9986W        W25117  10.266   4.344  14.809 -0.0216  0.1980  0.2790
 9987W        W25118   6.588   4.032   3.668 -0.0047 -0.1093 -0.0819
 9988W        W25119  17.497  13.982   0.687  0.0633 -0.5914 -0.1591
 9989W        W25120  14.457   0.184  11.431  0.3817  0.1611 -0.2941
 9990W        W25121   2.086   5.282  14.615  0.3168 -0.2794  0.0472
 9991W        W25122  13.954   3.880   0.193  0.1988  0.1163  0.0319
 9992W        W25123   7.876  13.452   3.972 -0.1659 -0.2178 -0.1224
 9993W        W25124  15.325   4.302   1.345  0.1039 -0.1068  0.0412
 9994W        W25125   5.056  14.724   0.404  0.1391  0.0402  0.0350
 9995W        W25126  14.619  12.401  15.807 -0.1469 -0.4241 -0.0137
 9996W        W25127   4.378   6.922  11.081 -0.0533  0.3767 -0.0968
 9997W        W25128  17.574   3.198   0.293  0.1776 -0.0736  0.3864
 9998W        W25129   9.251  11.209   1.282 -0.0982  0.0428 -0.0687
 9999W        W25130  11.566   8.615   0.327  0.0110  0.1339 -0.0820
10000W        W25131   6.350   6.674  14.749  0.0162  0.1609 -0.1335
10001W        W25132   0.446   3.519   0.748 -0.3045  0.0091  0.0551
10002W        W25133  11.589   1.377   3.935 -0.2289 -0.0144  0.0406
10003W        W25134  17.094   3.256   3.034 -0.0316 -0.0468 -0.1016
10004W        W25135   7.673   0.350  12.625 -0.3404  0.0731 -0.0708
10005W        W25136   1.748  11.687   2.080  0.2745  0.2336 -0.2682
10006W        W25137   0.293  11.563  15.724 -0.3542  0.2941  0.1614
10007W        W25138   4.557   3.790  14.729  0.0692  0.2471 -0.0896
10008W        W25139   0.712  10.755   5.623  0.1919  0.1745  0.1417
10009W        W25140  15.947  16.395   2.772  0.1361  0.0928 -0.0808
10010W        W25141  17.333   5.411  14.199 -0.2558 -0.0601  0.2214
10011W        W25142  16.195   5.497   2.344 -0.4324  0.2775  0.0617
10012W        W25143   3.377   0.950  11.381 -0.2314  0.0739 -0.2145
10013W        W25144   7.805  12.586   5.193  0.2558  0.0893  0.0088
10014W        W25145   8.565  11.603   3.102  0.0474 -0.3304  0.0198
10015W        W25146  10.322   6.310  16.529 -0.0261  0.1424  0.0874
10016W        W25147   9.586   0.909  15.337  0.0863 -0.2038 -0.0466
10017W        W25148   9.203  14.193  11.801  0.1404  0.0903 -0.0864
10018W        W25149   3.823  12.778   5.023  0.2206 -0.1406 -0.0964
10019W        W25150  12.754  15.155  13.127  0.2722 -0.3756 -0.0193
10020W        W25151  12.588  12.082   6.249  0.0950 -0.0684  0.0069
10021W        W25152   3.996   0.322  14.728  0.0544  0.1471  0.3188
10022W        W25153  14.326  13.956  12.171  0.1432 -0.1994 -0.1451
10023W        W25154   0.197   7.539   4.229 -0.0997 -0.1404 -0.1022
10024W        W25155  14.075   4.167   3.637  0.0524 -0.0207 -0.0899
10025W        W25156  16.965   8.463  16.410 -0.2172 -0.0119 -0.3581
10026W        W25157  14.087  10.235  11.809  0.0612  0.2757  0.1483
10027W        W25158  17.507   5.820  15.449 -0.2546  0.0713 -0.0778
10028W        W25159  12.586   8.166  14.358 -0.0599  0.2491  0.3964
10029W        W25160  16.780   7.160   5.104 -0.0755 -0.2774  0.0805
10030W        W25161  12.756  11.518   0.148 -0.0694  0.1935 -0.1472
10031W        W25162   8.525   7.591  15.482 -0.0440  0.0393 -0.1029
10032W        W25163   2.736   8.956  11.939  0.0353  0.0865 -0.3353
10033W        W25164  15.442  17.321   1.874 -0.0273 -0.3317 -0.3835
10034W        W25165  13.727  11.792   2.340  0.1057  0.0992  0.0200
10035W        W25166  12.792  15.061   1.245  0.2451  0.0096  0.1939
10036W        W25167  16.758  17.565  12.425  0.0457 -0.1160  0.0045
10037W        W25168   2.336   8.682  14.437  0.1574 -0.0285  0.1615
10038W        W25169  16.080  14.129   1.922  0.0229 -0.2355 -0.2246
10039W        W25170   4.716   3.380  14.424 -0.1264 -0.0570  0.0610
10040W        W25171  15.632   4.054  13.739 -0.1206 -0.1853  0.0751
10041W        W25172   3.233  12.407   2.246  0.1799  0.1688  0.2899
10042W        W25173  15.474   8.398  14.250  0.1840  0.2090 -0.4690
10043W        W25174  16.284   4.785   5.691  0.0433  0.1470  0.1619
10044W        W25175   9.156   8.915   2.979 -0.3497 -0.3989 -0.0671
10045W        W25176   5.507   4.762   2.444 -0.3244 -0.0826  0.0541
10046W        W25177   5.043  12.502  12.549 -0.0487  0.0717 -0.0333
10047W        W25178  12.813  15.399  15.496 -0.0411  0.1620 -0.0167
10048W        W25179   1.545  17.075  15.550  0.1734 -0.3009  0.0699
10049W        W25180   8.186  15.316   1.502 -0.1038  0.0610 -0.2054
10050W        W25181   0.992   6.127  13.394 -0.1243 -0.1842  0.0332
10051W        W25182  15.095   7.270  14.905 -0.1262 -0.0185 -0.1407
10052W        W25183   9.283   1.843   6.020  0.1882  0.0555  0.0684
10053W        W25184  14.511  15.755  12.067  0.0617  0.0573 -0.0465
10054W        W25185   5.711   8.609   2.015  0.0335 -0.0470  0.3432
10055W        W25186  14.483  14.132   2.683 -0.0419 -0.1868 -0.0289
10056W        W25187   4.399  14.282   0.928 -0.0688  0.0979  0.1604
10057W        W25188  13.210  11.790  13.826  0.1613 -0.1317 -0.1963
10058W        W25189  12.445  10.276  15.980  0.4572  0.1874  0.0126
10059W        W25190  16.624   4.249  10.481  0.0457  0.0675 -0.1584
10060W        W25191  16.471  16.752  11.794 -0.3928  0.0982  0.0206
10061W        W25192  17.592   8.792  13.656  0.3688  0.1256  0.0648
10062W        W25193   7.462  16.109   5.073 -0.0781 -0.2187  0.0947
10063W        W25194   3.459   8.466   3.773 -0.0504  0.1708 -0.0966
10064W        W25195  15.234  11.634  12.607 -0.0066  0.2661 -0.2204
10065W        W25196   7.349   1.333  15.222 -0.0404  0.2099  0.0161
10066W        W25197   2.211   7.890   1.096  0.0886 -0.2558 -0.1573
10067W        W25198  11.071   3.827  15.111  0.0177 -0.2559 -0.0454
10068W        W25199  16.419   2.105   1.620 -0.1447  0.1323  0.1533
10069W        W25200  13.172   9.138   2.361 -0.0662 -0.0334  0.1601
10070W        W25201   7.991  15.102  16.236  0.1864 -0.1587 -0.2011
10071W        W25202  15.106   7.224  12.684  0.2532  0.2804  0.1485
10072W        W25203   5.572   9.989  14.747 -0.0890  0.0478  0.0068
10073W        W25204  11.336  13.691  16.416 -0.0916  0.1897  0.1104
10074W        W25205  12.996  15.604   0.638  0.2469 -0.0371 -0.0577
10075W        W25206   9.249  10.449  13.990  0.0187 -0.0543 -0.3443
10076W        W25207  11.065  15.008  12.916  0.0137  0.2604 -0.4254
10077W        W25208   4.039   5.033  14.488 -0.2982  0.3137  0.0387
10078W        W25209   4.608   8.584  14.609 -0.2284 -0.0165 -0.0366
10079W        W25210   0.575  14.790  12.339 -0.0681 -0.4974 -0.0885
10080W        W25211   0.231  16.400   5.148 -0.2813  0.2772  0.2197
10081W        W25212  15.325   5.621   2.502 -0.1164  0.1726 -0.2517
10082W        W25213  17.012   6.812   0.621 -0.0879 -0.1788 -0.0579
10083W        W25214  13.014  11.608   1.554 -0.0693 -0.0319  0.1511
10084W        W25215  14.033  13.502  15.190  0.0927  0.3428  0.0496
10085W        W25216   4.570  11.931   4.179  0.3699 -0.0575  0.2244
10086W        W25217  13.327   0.009  13.870 -0.1318 -0.0010 -0.2685
10087W        W25218  12.393   5.154  15.773 -0.0295  0.2347  0.0648
10088W        W25219  11.800  11.543   3.366  0.0530 -0.0607  0.0071
10089W        W25220  10.080   8.639   4.166 -0.0599 -0.1676 -0.0349
10090W        W25221  13.907  16.787   1.020  0.3342 -0.2443 -0.0658
10091W        W25222  17.234  10.277   2.308 -0.0251 -0.2176 -0.0003
10092W        W25223  12.787  11.084  15.144  0.0001 -0.1745  0.1272
10093W        W25224  15.159  11.613  16.250  0.1025  0.0513 -0.0376
10094W        W25225  10.537  11.272  14.072  0.0325  0.2494  0.0354
10095W        W25226   0.446   4.707  13.656  0.0021 -0.0258 -0.0810
10096W        W25227   3.383   2.399   2.741 -0.1917 -0.1783 -0.2565
10097W        W25228   5.625  14.462  15.505 -0.0596 -0.1145 -0.3388
10098W        W25229   1.540  14.322  11.709  0.0802 -0.0472  0.2281
10099W        W25230  15.587   5.921   2.870  0.1206 -0.1046  0.0875
10100W        W25231   3.754  11.847  15.336 -0.0149  0.3759 -0.2022
10101W        W25232   9.214   3.726  12.908 -0.1443  0.4950  0.0707
10102W        W25233  17.164  12.948   2.784  0.4504 -0.3072 -0.1869
10103W        W25234   1.054   3.525   4.139  0.2160  0.2019  0.0428
10104W        W25235  12.810  17.685  12.408  0.0488  0.2749 -0.2738
10105W        W25236   5.634   7.480  11.724 -0.1129 -0.1453  0.0336
10106W        W25237  14.333  10.812  14.946 -0.1960  0.5415  0.1238
10107W        W25238  11.921  10.008  12.648 -0.2210 -0.3145 -0.1698
10108W        W25239   2.508   9.828   3.279  0.1062 -0.1200 -0.0601
10109W        W25240   0.757   7.220   5.264  0.0170 -0.0947  0.0228
10110W        W25241  11.755  12.696  13.719  0.0148 -0.0795  0.1198
10111W        W25242   1.165  13.399  11.964 -0.0831 -0.0118 -0.2907
10112W        W25243   8.710  17.106   5.585 -0.1307  0.0295  0.1362
10113W        W25244   5.657  14.264   3.790 -0.0553 -0.4133  0.0651
10114W        W25245  10.400   1.656   1.047  0.2454 -0.0428 -0.2429
10115W        W25246   6.767   8.623   1.586 -0.0738 -0.0275 -0.3002
10116W        W25247   2.966   9.567   3.273 -0.0235 -0.2769 -0.0892
10117W        W25248   1.579  15.220  13.913  0.0144 -0.0239  0.1566
10118W        W25249   7.962   1.911   1.462  0.1109  0.0432 -0.0854
10119W        W25250  15.483  12.548   5.929 -0.0846 -0.0006  0.0585
10120W        W25251  14.826   6.725  15.494  0.2698 -0.1594 -0.1854
10121W        W25252  14.891  17.028  16.915  0.2104  0.1797  0.1441
10122W        W25253  14.919   3.566  13.962 -0.0845  0.1479  0.1925
10123W        W25254   7.891  13.202  14.145 -0.1229  0.0071  0.0044
10124W        W25255  16.888   9.232   3.213 -0.0751 -0.0298 -0.2198
10125W        W25256   2.798   2.713  16.363  0.0320  0.3093 -0.1772
10126W        W25257  17.542  13.316   1.572 -0.0387  0.1790 -0.0821
10127W        W25258  12.440   4.516  14.577  0.1421 -0.2005  0.1322
10128W        W25259   6.039   3.302   0.276  0.1039  0.2443  0.1437
10129W        W25260   9.020   0.432   0.454 -0.2014  0.0768 -0.1304
10130W        W25261   0.732   9.916  13.390 -0.0700 -0.1320 -0.0327
10131W        W25262   2.185  13.321  16.735 -0.0267  0.1797 -0.3132
10132W        W25263  14.207  17.154  12.514  0.1103 -0.1578 -0.0753
10133W        W25264  17.152   2.368   2.233  0.4226  0.1021 -0.1229
10134W        W25265   6.769   6.841   5.052  0.2686 -0.0583  0.1367
10135W        W25266  13.521  14.166  14.156 -0.1570  0.2798 -0.1744
10136W        W25267   1.979   6.318  11.701  0.1672  0.0493 -0.1886
10137W        W25268   7.757   0.957  13.847  0.0342  0.2309  0.0385
10138W        W25269  16.348   7.048   4.729  0.2171 -0.0780  0.2049
10139W        W25270   6.153  17.704  13.202 -0.1254  0.0096 -0.1368
10140W        W25271  13.950   0.805  11.539  0.2085 -0.0822 -0.0145
10141W        W25272  14.904   1.239   2.168  0.1365 -0.0891  0.0264
10142W        W25273  16.446   6.375  16.345  0.0145  0.1489 -0.1818
10143W        W25274  17.463  15.580  15.992 -0.0085  0.0662  0.0383
10144W        W25275   3.738   4.791  15.104 -0.1244  0.0813 -0.5217
10145W        W25276   2.270   8.706  12.779 -0.0382  0.1238 -0.1708
10146W        W25277   1.658   6.020   4.716  0.0152 -0.0357  0.2416
10147W        W25278   3.624   9.203   0.552 -0.1150 -0.2662 -0.0765
10148W        W25279   1.590   6.029  10.827  0.0949  0.2272  0.1939
10149W        W25280  16.696   4.583  11.318 -0.0540  0.0175 -0.1230
10150W        W25281  11.147   2.481   0.563 -0.0753 -0.0488 -0.1793
10151W        W25282   3.180   6.066   3.411 -0.0076 -0.2116  0.2009
10152W        W25283   1.966   1.628   5.530 -0.0160 -0.1974  0.1822
10153W        W25284   3.565   9.880  10.595 -0.0881 -0.0802  0.0917
10154W        W25285  15.941   7.438  12.498 -0.0489  0.0262  0.0119
10155W        W25286   8.193  15.646   5.915  0.0278 -0.0385 -0.1602
10156W        W25287  15.503   1.294  13.353 -0.1304  0.2659  0.0114
10157W        W25288   7.239   4.792   0.495  0.1127  0.4256  0.0132
10158W        W25289   2.744   2.399   2.007 -0.2399  0.3355 -0.2217
10159W        W25290   6.235   5.541  14.752  0.0912 -0.2809 -0.0835
10160W        W25291  11.233  15.898  15.028  0.3186  0.2039 -0.1564
10161W        W25292  13.875  12.121   5.609  0.0368 -0.2104  0.1045
10162W        W25293   7.291  14.998   0.808 -0.0845  0.4604  0.1126
10163W        W25294   8.357   0.504   1.957 -0.0071 -0.1653  0.3088
10164W        W25295   1.556   9.565  16.499 -0.0049 -0.0730  0.1994
10165W        W25296   1.484  13.508  14.084 -0.1555 -0.0065 -0.0924
10166W        W25297   6.678   4.488   4.598  0.2600  0.2222  0.1050
10167W        W25298   8.876   6.261  10.892  0.1006  0.1184 -0.0560
10168W        W25299  17.422  14.600  14.980 -0.1895 -0.2472 -0.2413
10169W        W25300   5.647  16.429   3.745  0.1811  0.1486 -0.1678
10170W        W25301   4.095  15.818  15.782 -0.1450  0.1780 -0.0776
10171W        W25302  13.142   6.517   0.840  0.0814  0.0118  0.0688
10172W        W25303   9.501   0.356   0.135 -0.1071 -0.1735  0.3030
10173W        W25304   1.464  10.361  16.703  0.0226  0.3109  0.2579
10174W        W25305   8.507   7.171   3.434  0.0204  0.1430 -0.1602
10175W        W25306  14.429   2.383  12.307 -0.1293  0.0072  0.1639
10176W        W25307   6.302  10.200   2.494  0.0110 -0.0824  0.0464
10177W        W25308   0.463   6.113  14.131  0.0059  0.0787  0.4198
10178W        W25309  13.418   2.816  14.329  0.0304  0.2195 -0.0274
10179W        W25310   8.382   8.015   3.869  0.2111  0.1569  0.0924
10180W        W25311   8.570   2.648   1.303 -0.0875  0.0795  0.3452
10181W        W25312  10.561  15.527   1.024 -0.1379 -0.0108  0.0326
10182W        W25313  13.896   2.859   1.520  0.3253 -0.1664 -0.2032
10183W        W25314   6.538   6.466   3.642 -0.2622  0.0147  0.0511
10184W        W25315   4.059   9.233   2.190 -0.0373 -0.0146 -0.1999
10185W        W25316  16.739   2.622  16.444  0.2852 -0.0168 -0.1716
10186W        W25317   2.057   0.584  13.730 -0.1073 -0.1044  0.1714
10187W        W25318  16.429   3.685   1.880 -0.1402  0.0882 -0.1108
10188W        W25319   4.330   3.018   0.274  0.2506  0.1055 -0.0207
10189W        W25320   6.147   1.787  13.743  0.3302  0.0446  0.0044
10190W        W25321   3.960   9.164  12.321 -0.0124 -0.0431 -0.0735
10191W        W25322  13.757   2.765  15.780 -0.0592  0.2257 -0.1614
10192W        W25323   0.749   2.762   5.794  0.2968  0.0193 -0.3420
10193W        W25324   2.002   3.751  16.516  0.0845  0.2699 -0.1282
10194W        W25325   7.750  15.473   1.166  0.1387 -0.0485  0.1793
10195W        W25326   3.795   2.135  10.473 -0.2083  0.0680 -0.0878
10196W        W25327  15.463  13.616  10.737 -0.3094 -0.1140  0.0832
10197W        W25328  13.938   5.324   0.530  0.1257  0.0584 -0.2793
10198W        W25329   3.903  15.869   4.262  0.0753  0.2374 -0.0831
10199W        W25330  11.569   3.326  16.302 -0.0274  0.1449  0.1203
10200W        W25331   0.509   0.576   1.965  0.1721  0.1880 -0.1485
10201W        W25332   4.837  11.142  10.544  0.0586 -0.1747 -0.2706
10202W        W25333   6.808   6.529  13.646 -0.0019  0.0187  0.0302
10203W        W25334   4.852  15.789  15.978 -0.1141  0.0303  0.1962
10204W        W25335   8.497   0.525  16.913 -0.1110 -0.0757  0.2596
10205W        W25336  11.954  11.446   5.653 -0.1289 -0.1619  0.0257
10206W        W25337   2.224  13.601   3.365 -0.3754 -0.0448 -0.0058
10207W        W25338   4.584   4.155   1.217 -0.1660  0.0596 -0.0463
10208W        W25339   3.477  14.869  13.416 -0.2165  0.0516 -0.1219
10209W        W25340  11.132   6.790   0.642  0.0904  0.0236 -0.0185
10210W        W25341   2.053  11.095  12.971  0.1199  0.0718  0.2171
10211W        W25342  13.967   9.948  15.165 -0.0861 -0.2264  0.0226
10212W        W25343  12.338   6.121  16.212  0.2542  0.0890 -0.0856
10213W        W25344  15.598  16.504  15.796  0.2767  0.2074  0.1829
10214W        W25345   4.977  12.518   1.897 -0.2258 -0.1750  0.1637
10215W        W25346  14.260   1.188  13.864 -0.4313  0.1963  0.0666
10216W        W25347   8.240  11.300   0.941 -0.1332 -0.3023 -0.2163
10217W        W25348   4.481  14.568  12.049 -0.0648  0.0312  0.2008
10218W        W25349  12.500   6.881  13.418  0.0490  0.1636 -0.0372
10219W        W25350  10.809  13.067  15.944  0.0350  0.0747 -0.0332
10220W        W25351  16.223   4.436  16.442 -0.0399 -0.0384 -0.0199
10221W        W25352  11.506  10.291   4.271  0.1123 -0.0665  0.0656
10222W        W25353  15.356  10.217   4.573 -0.1106 -0.4157  0.1031
10223W        W25354  17.497  15.865   5.908 -0.3774  0.1815  0.0590
10224W        W25355  14.819  10.547   5.352  0.2543  0.0251 -0.1131
10225W        W25356  10.726   9.897  11.713  0.0864 -0.0949  0.0810
10226W        W25357  12.144   7.302  13.319 -0.0480 -0.0867 -0.2548
10227W        W25358   0.740   9.951  16.185  0.1463  0.3299 -0.1475
10228W        W25359  14.823  10.705  11.754  0.1061  0.2632 -0.1770
10229W        W25360  15.518  11.262  13.514 -0.2321 -0.1016  0.1778
10230W        W25361  16.528   1.683   5.608 -0.0140 -0.1837  0.1870
10231W        W25362  10.328   5.994  11.326  0.0884 -0.0109  0.3913
10232W        W25363  14.265  10.424  14.601  0.0366 -0.0815 -0.1859
10233W        W25364   3.552  14.900  15.636  0.1541 -0.2341 -0.0791
10234W        W25365   4.344  11.211  15.339  0.2254 -0.2110  0.1431
10235W        W25366  14.218  12.630  13.158 -0.0137 -0.0221 -0.1785
10236W        W25367  14.118  12.933   3.800  0.4301  0.0118  0.3287
10237W        W25368  10.522  14.247  11.942 -0.2263 -0.1364 -0.1759
10238W        W25369  13.333  10.405  15.001 -0.1078  0.2304 -0.3070
10239W        W25370   0.980   3.657   2.893  0.1438  0.0549 -0.2818
10240W        W25371  16.107   1.919   6.497 -0.3187 -0.4217 -0.1258
10241W        W25372   1.587   7.805   2.814  0.1254 -0.5075  0.0306
10242W        W25373  12.038  16.677   0.976  0.1131  0.2272 -0.1090
10243W        W25374   6.826  15.738  11.628  0.2749 -0.0137 -0.1038
10244W        W25375  12.739  12.648   0.830  0.3090 -0.0433  0.3081
10245W        W25376  12.356  17.044  10.990 -0.0983 -0.2057 -0.1329
10246W        W25377   7.935   0.408  10.716 -0.0012 -0.1290  0.2830
10247W        W25378   0.484   7.469  11.402  0.0520 -0.1256 -0.0858
10248W        W25379  11.019  12.491  14.379 -0.1138 -0.3265  0.3617
10249W        W25380  12.017  13.607  14.473  0.1009 -0.1607  0.1501
10250W        W25381   8.048   6.953  13.127 -0.1691 -0.2413 -0.3590
10251W        W25382   4.703  15.967   0.074 -0.1458  0.1390 -0.1373
10252W        W25383  11.691  17.232   5.531  0.0795  0.3216 -0.0968
10253W        W25384  14.348  17.454   3.020 -0.0521  0.0527 -0.3639
10254W        W25385   4.417   4.603  15.836 -0.1673 -0.1630 -0.1652
10255W        W25386   7.731  16.472  16.771  0.0462  0.2938  0.2986
10256W        W25387  13.347  12.763   5.950 -0.1986  0.0778  0.2504
10257W        W25388  13.882  16.909  15.963  0.0587 -0.0485  0.2837
10258W        W25389   8.403  16.700  12.141 -0.0437  0.0538  0.2429
10259W        W25390  14.298  11.585   4.146  0.1336  0.3987  0.3682
10260W        W25391  17.493  14.896   5.713 -0.2934  0.0644 -0.0620
10261W        W25392   2.482   4.163   2.486  0.0287 -0.0664  0.0858
10262W        W25393  15.681  12.580   3.303  0.1356  0.0894  0.1692
10263W        W25394   0.928   7.238  13.552  0.2995 -0.0133 -0.3724
10264W        W25395  13.092  12.039   5.493 -0.0976 -0.2161 -0.3247
10265W        W25396   4.209   2.184   5.467 -0.0908  0.0622 -0.0842
10266W        W25397  14.891  12.267  14.755  0.0284 -0.1013 -0.0064
10267W        W25398  12.642  13.061  12.285 -0.0302 -0.1774  0.0438
10268W        W25399  17.641   9.381  11.682  0.0054 -0.0531 -0.2624
10269W        W25400  17.411   2.847   4.768  0.1195 -0.1401  0.4118
10270W        W25401  15.583  16.280  16.727  0.0930 -0.3452 -0.3030
10271W        W25402  13.805  16.291   1.068  0.0709  0.1466  0.2402
10272W        W25403  10.711   9.653  15.717 -0.0428  0.0763 -0.2125
10273W        W25404   5.016  15.092  16.387  0.1656  0.3153  0.0764
10274W        W25405   6.622  15.064  12.217 -0.2353  0.1389 -0.1703
10275W        W25406   1.140   8.008   4.287 -0.0389  0.0536 -0.1797
10276W        W25407   2.427   3.032   5.920 -0.2359 -0.0887 -0.2507
10277W        W25408   8.706  13.463  12.080 -0.2404 -0.1299 -0.0475
10278W        W25409  16.713   8.161  13.113  0.0563 -0.1443 -0.1226
10279W        W25410  13.024  14.879   0.897 -0.2877  0.1717  0.0232
10280W        W25411  11.220  14.604   5.794 -0.0341  0.0292 -0.1982
10281W        W25412  16.530   3.870   3.226  0.4921 -0.0651 -0.4505
10282W        W25413  15.782   7.461  16.582  0.3233  0.1139  0.0843
10283W        W25414   7.019   9.146  12.995 -0.3447 -0.1476  0.2564
10284W        W25415   4.001  15.307   5.520  0.7007  0.2207 -0.1590
10285W        W25416   7.906  16.130   3.165  0.0293 -0.0183  0.2094
10286W        W25417   1.567   2.919  13.477  0.1272 -0.2226 -0.0449
10287W        W25418   5.531   0.288   6.033  0.0839 -0.1759  0.1770
10288W        W25419  13.199   5.985   2.306  0.1578  0.0846 -0.2743
10289W        W25420  13.270   3.293  11.373 -0.1660 -0.1355  0.1374
10290W        W25421   9.602   0.064   2.227  0.0044  0.0950 -0.0964
10291W        W25422  10.588   6.494   3.051 -0.0518  0.1257  0.1146
10292W        W25423  11.250   9.669  15.450 -0.0303  0.0002 -0.2666
10293W        W25424  15.528   4.978   4.417 -0.1473  0.2308  0.0228
10294W        W25425  17.480  10.102   5.025  0.1117  0.2632  0.0664
10295W        W25426  14.614   1.491   0.669 -0.2202  0.3637  0.1239
10296W        W25427   1.734  14.970  13.121  0.0821 -0.0423 -0.0506
10297W        W25428   7.836  14.881   3.332  0.0544  0.1137  0.2509
10298W        W25429  17.122  12.884  12.767  0.0264  0.1438 -0.2344
10299W        W25430  15.127   2.371  14.323  0.0285 -0.0349 -0.0702
10300W        W25431  17.700  12.966  14.083 -0.0261 -0.0508  0.3210
10301W        W25432   0.203   3.613   3.030  0.1009 -0.2767 -0.0888
10302W        W25433  11.568  11.088  13.437 -0.1435  0.2750 -0.1027
10303W        W25434   3.396  15.753  16.916 -0.1114 -0.0069  0.1018
10304W        W25435  16.637   4.149   4.701  0.0320  0.0999 -0.1065
10305W        W25436  16.157  12.227  15.692 -0.0852 -0.0529  0.1572
10306W        W25437  14.322   8.798  10.788 -0.1312  0.1516 -0.2714
10307W        W25438  17.618   5.571  11.119  0.1353  0.0937  0.0119
10308W        W25439   9.838  10.939   3.607  0.0101 -0.0270 -0.0355
10309W        W25440   5.070   7.304  13.231  0.0784 -0.0495 -0.1032
10310W        W25441   3.649  16.077   3.826 -0.2390 -0.1298  0.0016
10311W        W25442  16.902   3.936  12.950  0.3765 -0.2863 -0.0370
10312W        W25443   5.084   6.173   3.445  0.0911 -0.0574  0.3040
10313W        W25444  17.321   7.402  15.800 -0.1088  0.0799  0.0855
10314W        W25445   1.902  10.390  15.409 -0.0058  0.3760 -0.1561
10315W        W25446   2.413   2.229  13.094 -0.0327 -0.1709 -0.2629
10316W        W25447   6.201   1.743  16.875 -0.3142 -0.1002  0.1143
10317W        W25448   1.385  13.629   4.918  0.0608 -0.1079  0.0154
10318W        W25449  13.937   9.732  11.681  0.2315  0.2026  0.0806
10319W        W25450  14.161   3.526  16.785  0.0868  0.0667  0.0889
10320W        W25451   0.807  11.685  15.512  0.0201 -0.1071 -0.0815
10321W        W25452  14.444  12.932  10.376  0.2044  0.0466 -0.0595
10322W        W25453  13.257  10.201  14.543  0.2515  0.1120  0.3712
10323W        W25454   4.382   2.512  12.203  0.1413  0.0184 -0.0175
10324W        W25455  14.296   1.165   1.220 -0.0765  0.0830 -0.5032
10325W        W25456   4.158   7.342   2.976  0.0337 -0.0607 -0.0049
10326W        W25457   1.814  16.059   1.404 -0.2659 -0.2830 -0.4042
10327W        W25458  13.688  11.931   0.017 -0.0513 -0.1455 -0.1276
10328W        W25459  17.241   9.438   2.935 -0.1428 -0.0153 -0.0045
10329W        W25460   6.782  15.242  13.754 -0.3368 -0.1060 -0.1160
10330W        W25461  11.835  12.448   0.453 -0.2814  0.2317  0.1527
10331W        W25462  10.970   3.669   0.444 -0.3303  0.0603 -0.1130
10332W        W25463  16.723  13.279   2.282 -0.0558  0.0702 -0.0957
10333W        W25464  11.899  12.800   1.919 -0.1326  0.0001  0.3043
10334W        W25465   2.480   6.987  11.214 -0.3197 -0.0487  0.2304
10335W        W25466   8.132   8.128  14.077  0.1877 -0.0628  0.0007
10336W        W25467  10.331  12.862  15.791 -0.0927 -0.0695 -0.1315
10337W        W25468   8.513  12.771   0.510 -0.1775 -0.2993 -0.1130
10338W        W25469   7.868   3.260   1.275  0.1529  0.0979 -0.0246
10339W        W25470   7.220   9.630   1.745 -0.3816 -0.2201 -0.1104
10340W        W25471  17.648   1.806  15.037  0.1607  0.0589 -0.0362
10341W        W25472  16.358   2.072  15.227 -0.2036 -0.0309  0.1164
10342W        W25473  17.256   7.445   5.033 -0.2389 -0.2553  0.5335
10343W        W25474  10.011  14.005   5.496  0.0718  0.1646  0.1850
10344W        W25475   0.825  11.717   5.872 -0.1762  0.1412  0.0359
10345W        W25476  13.190   4.485  15.988 -0.0130  0.0838  0.2401
10346W        W25477   9.052  11.015   3.761 -0.3031 -0.0344  0.1917
10347W        W25478  14.443   1.475  16.681 -0.0383 -0.0079  0.1007
10348W        W25479  13.217   0.051   0.238  0.2926  0.0706  0.1301
10349W        W25480  10.311   3.079  16.192  0.0841 -0.0093  0.2261
10350W        W25481  14.453  14.968   0.403 -0.1187 -0.1347 -0.2163
10351W        W25482   5.333   6.442   0.262 -0.1521 -0.0579  0.0491
10352W        W25483  11.165   3.607   3.678 -0.0787  0.1974  0.2365
10353W        W25484   1.567   1.194  11.500  0.0268  0.0499 -0.2695
10354W        W25485  16.744   0.747  11.874  0.0287 -0.3489  0.1862
10355W        W25486   3.025   7.288   0.000  0.1802  0.0974 -0.0825
10356W        W25487   8.323  10.921  16.922 -0.0493  0.2732  0.2524
10357W        W25488  13.258  10.514   0.744 -0.0850 -0.2477  0.0024
10358W        W25489  12.569   3.516   1.873  0.1215 -0.0336 -0.3864
10359W        W25490  12.462   6.666  10.904 -0.0211  0.3873  0.2899
10360W        W25491  15.584   1.663   0.771 -0.0643  0.1344  0.3134
10361W        W25492   8.358  10.783   0.858 -0.0714  0.1038 -0.0194
10362W        W25493  17.476   3.921   4.122  0.0670  0.1922 -0.0400
10363W        W25494   5.092  15.066   0.781 -0.2204 -0.0674  0.0567
10364W        W25495  15.551   6.214  11.787 -0.1173 -0.2438 -0.2346
10365W        W25496   0.089  16.237  13.012 -0.2982  0.1481  0.0986
10366W        W25497   7.625   9.472  14.406 -0.0169  0.2010 -0.1511
10367W        W25498   3.361   1.723  16.598 -0.0848 -0.2217  0.0083
10368W        W25499   2.298  10.287   4.152  0.2539 -0.0060 -0.1681
10369W        W25500  16.728   3.787   4.188  0.1653  0.4579 -0.1824
10370W        W25501   3.171   0.676  13.357 -0.0188 -0.0251  0.0534
10371W        W25502  12.377  10.933  15.459 -0.1979 -0.1293  0.0071
10372W        W25503   6.172  11.000  12.904 -0.0724 -0.2144 -0.3141
10373W        W25504   5.656   7.357  14.347 -0.0232  0.2757 -0.0365
10374W        W25505   9.962   2.879  12.690 -0.0319 -0.2478  0.0849
10375W        W25506   9.914   8.208   4.316  0.1286  0.2495 -0.0230
10376W        W25507  11.567   1.643  13.397  0.1149 -0.1124  0.0816
10377W        W25508   6.586  10.460   1.545  0.0610 -0.1262 -0.2115
10378W        W25509   6.106  11.596   4.447  0.2476  0.0143  0.2398
10379W        W25510   9.741   2.845   0.917  0.0239 -0.0114  0.3471
10380W        W25511  13.121   7.251  16.127 -0.1023 -0.3580  0.2375
10381W        W25512  15.957  12.050  12.122 -0.0245  0.0956  0.0169
10382W        W25513   6.321  12.917   3.742 -0.0456  0.0421 -0.0528
10383W        W25514   2.877   0.632  16.619 -0.0143 -0.5075 -0.2033
10384W        W25515   7.308  16.380  16.181 -0.0700 -0.1352 -0.2303
10385W        W25516  17.479   6.784   3.234  0.0326 -0.2951  0.3304
10386W        W25517  13.526   4.264  12.217 -0.1171  0.2465 -0.3926
10387W        W25518   3.345   7.132   0.910  0.2543  0.1966 -0.2459
10388W        W25519   7.303   5.129  12.461 -0.0689 -0.0882 -0.0136
10389W        W25520   5.744  10.370  16.859 -0.3361 -0.3909  0.1096
10390W        W25521   2.786   2.179  16.255 -0.2169 -0.0719 -0.0577
10391W        W25522   2.451   5.547   4.395  0.1999 -0.2428 -0.1711
10392W        W25523   6.990  13.024  16.230  0.1919 -0.2738  0.1224
10393W        W25524   5.103   4.923  11.159  0.1272  0.1154 -0.2423
10394W        W25525  11.840  11.551   2.299 -0.1100  0.0165  0.1151
10395W        W25526   3.830  14.928   5.206 -0.2172 -0.1015 -0.2294
10396W        W25527   7.770   3.610  14.112  0.0133 -0.0224  0.1689
10397W        W25528  11.065   9.249  14.457 -0.2169 -0.1509  0.1854
10398W        W25529   3.194  10.184   4.829  0.1035 -0.2211 -0.1520
10399W        W25530   0.126   9.835  15.144 -0.1312  0.1801  0.1468
10400W        W25531   8.207   6.960   0.757  0.2820 -0.2213 -0.1300
10401W        W25532  10.206  10.374  13.073  0.0391 -0.0966  0.2247
10402W        W25533   9.371  16.879  15.903  0.0060  0.0097 -0.0221
10403W        W25534   2.958  11.022  15.871 -0.1088 -0.1883  0.2102
10404W        W25535   3.111   5.356  12.210  0.0660  0.1464  0.1976
10405W        W25536  16.857   6.287   2.667  0.0553  0.0039  0.0608
10406W        W25537   5.038  13.441   1.298  0.2004 -0.1805  0.3179
10407W        W25538  12.743  12.438  16.873  0.3149  0.1189 -0.2994
10408W        W25539   9.492   1.904  15.681 -0.1558 -0.0424  0.2116
10409W        W25540  12.113  16.946   5.476 -0.0273 -0.0690 -0.0377
10410W        W25541  11.318   3.230   2.569 -0.0048  0.0347  0.3998
10411W        W25542   6.176   1.292  14.858 -0.1417 -0.1130  0.0635
10412W        W25543  12.029   2.685   2.123 -0.2902  0.1479  0.2495
10413W        W25544   0.485   1.230   4.120 -0.0440  0.1366  0.1298
10414W        W25545  10.933   3.072   2.926  0.1761 -0.1629  0.0887
10415W        W25546   8.456  17.079  15.809 -0.2313 -0.1885 -0.2016
10416W        W25547   0.413  13.526   5.410  0.2606 -0.2816 -0.0496
10417W        W25548  13.323   0.625   2.098  0.3737  0.0227  0.3009
10418W        W25549  14.248   0.046  15.442 -0.0635  0.1871  0.1353
10419W        W25550   7.651  16.674   4.546  0.0561  0.0619 -0.0121
10420W        W25551  11.742  15.316  16.733 -0.0854  0.2623 -0.2838
10421W        W25552   1.732  15.724   0.289 -0.0326 -0.1929 -0.2018
10422W        W25553   7.784   6.320   0.165  0.1412 -0.1412 -0.0594
10423W        W25554  12.894  12.060  15.791  0.1071  0.1601  0.1833
10424W        W25555   9.703  11.998   4.003 -0.0579 -0.1262  0.1004
10425W        W25556  11.004   9.728   5.683 -0.0517 -0.1129  0.0495
10426W        W25557   0.619   3.911   1.685  0.2427 -0.1138  0.2195
10427W        W25558   0.413   6.539  16.644 -0.2470  0.1855 -0.2643
10428W        W25559  10.752   3.321   5.571  0.1964  0.0313  0.0476
10429W        W25560   5.011   2.655   3.260  0.3179  0.1101  0.0778
10430W        W25561  14.777   6.820   5.694  0.2333  0.1456  0.1078
10431W        W25562   0.370   1.515   1.857 -0.0857  0.0807  0.0308
10432W        W25563  13.611  10.863   4.122 -0.1731  0.3202 -0.0722
10433W        W25564   0.411   9.655   3.771  0.1545 -0.0339 -0.1933
10434W        W25565  10.224  14.259   2.288 -0.0818  0.3445  0.0527
10435W        W25566   7.106  11.459  15.918 -0.0010 -0.1579  0.2886
10436W        W25567   4.358   0.618   4.987  0.2293 -0.3239  0.2298
10437W        W25568   7.797   4.309  15.131  0.1916  0.1301 -0.0164
10438W        W25569  16.327   8.339   3.929 -0.2275  0.0510 -0.0957
10439W        W25570   1.485  16.968   1.327 -0.0134 -0.1940 -0.0894
10440W        W25571   6.693  11.667  15.677  0.0274 -0.4188 -0.3975
10441W        W25572   2.986  15.478  14.247  0.0596 -0.0740  0.0565
10442W        W25573  11.335   5.368   2.149 -0.0967 -0.1001  0.1405
10443W        W25574   1.603  15.059   1.180  0.1035 -0.0096 -0.0640
10444W        W25575   2.063  15.049  16.412  0.3998  0.1720  0.2271
10445W        W25576  13.869  16.324   4.289  0.2133 -0.2764  0.0014
10446W        W25577   4.613   8.595   2.489 -0.1080 -0.2812 -0.1052
10447W        W25578  12.139   7.454   0.888 -0.2925  0.2026  0.1941
10448W        W25579  13.404   6.739  14.497  0.0000 -0.0792  0.0445
10449W        W25580   2.766   2.413  16.760  0.0749 -0.2450  0.2117
10450W        W25581   4.786   8.093   4.145 -0.1542 -0.1690 -0.4999
10451W        W25582   8.028   8.313  16.802 -0.2107 -0.1950 -0.2548
10452W        W25583   6.651   1.399  14.393  0.1223 -0.1264 -0.0404
10453W        W25584  12.935  17.404  13.770  0.1280  0.0365 -0.0575
10454W        W25585   6.583   9.954  12.000 -0.3170  0.2392  0.3617
10455W        W25586   1.329  14.149   1.450 -0.0194  0.1234  0.0835
10456W        W25587   5.665   5.838  12.567 -0.0415 -0.1323  0.1432
10457W        W25588   4.969  10.005   2.449 -0.1079  0.2627 -0.1375
10458W        W25589  14.416  11.485   5.614  0.2772 -0.4784  0.0096
10459W        W25590  10.522  14.525  14.320  0.0704 -0.0645  0.0610
10460W        W25591  12.727   9.629  15.250 -0.2285 -0.0367 -0.0381
10461W        W25592   3.870   0.481   1.310  0.0656  0.0924 -0.3023
10462W        W25593  12.203  10.616  13.819  0.3318 -0.1221 -0.2100
10463W        W25594  17.633   8.426   3.884 -0.1164 -0.2000 -0.0814
10464W        W25595   4.609  15.366  16.630  0.0116  0.1810 -0.0314
10465W        W25596  12.828   1.399  15.774 -0.0376  0.0317 -0.2526
10466W        W25597  14.263  16.416   2.789  0.3516 -0.2043  0.2560
10467W        W25598   3.051   5.733  13.184  0.2472 -0.1394 -0.2365
10468W        W25599  11.342   1.754   4.167 -0.1446 -0.0358 -0.1079
10469W        W25600  17.323  15.465   1.195  0.0100 -0.0500 -0.2111
10470W        W25601   5.001  10.878  12.018 -0.1793  0.2605  0.2409
10471W        W25602  11.454  14.964   4.063  0.1396  0.0151  0.0635
10472W        W25603  15.457   6.109  14.955  0.2904 -0.0169 -0.2732
10473W        W25604   8.343  17.682   5.141  0.2629  0.2280 -0.0002
10474W        W25605   0.327  17.139   3.782  0.1806 -0.0703 -0.2538
10475W        W25606   6.633  10.341  13.278  0.4238 -0.0538 -0.1601
10476W        W25607  12.249  16.897   2.438 -0.0261  0.2685 -0.2168
10477W        W25608  16.540  13.512   4.880  0.1918  0.0252  0.2481
10478W        W25609  11.934   9.777   1.681 -0.3164  0.2044 -0.0915
10479W        W25610   0.983   9.923  15.013 -0.0299  0.0695  0.1114
10480W        W25611   8.249   7.732  13.132 -0.2145  0.0438 -0.0932
10481W        W25612  13.594   7.295  12.297  0.0516  0.3632  0.2518
10482W        W25613   0.464  16.971  15.635  0.3044  0.3286 -0.0836
10483W        W25614   1.807   6.865   2.081  0.1342  0.1841 -0.0743
10484W        W25615  14.923   3.856   0.790 -0.0055 -0.0268 -0.1219
10485W        W25616  14.963   2.247  15.777  0.1933  0.1384  0.5007
10486W        W25617   0.658  10.374  12.934 -0.0225 -0.0629 -0.0504
10487W        W25618   3.459   8.003   0.407 -0.0828  0.2764 -0.0048
10488W        W25619  16.189  15.304  13.397 -0.2850  0.0499 -0.3159
10489W        W25620  10.083  14.162  11.630  0.1634 -0.0944  0.3071
10490W        W25621   9.436   9.434   3.033  0.0611 -0.1359 -0.2205
10491W        W25622   8.476  16.315   5.845  0.0218  0.2082 -0.2970
10492W        W25623  14.686  13.426  15.885  0.0315 -0.1321  0.0077
10493W        W25624   5.309  10.204  15.541  0.2700 -0.0484  0.0770
10494W        W25625   4.624  13.155   3.547  0.1598  0.0845  0.0880
10495W        W25626  11.284  14.623   2.780  0.0307 -0.0860 -0.4062
10496W        W25627  15.865   1.523  16.840 -0.0631  0.1157  0.0863
10497W        W25628   8.401   8.788   3.238 -0.0993 -0.1642 -0.2289
10498W        W25629  16.518   8.684  15.957 -0.3073 -0.0461  0.0721
10499W        W25630   9.665   4.702  14.149 -0.0323  0.2712 -0.0483
10500W        W25631  16.795  11.334  11.438  0.0407 -0.0944  0.0328
10501W        W25632   4.204  13.888  11.351  0.2936  0.0553  0.1095
10502W        W25633  12.626   1.396   0.923  0.1391  0.1216  0.2571
10503W        W25634  16.406  14.168   2.765  0.2722 -0.0273 -0.0766
10504W        W25635   4.767  15.128  13.245 -0.0015 -0.2283  0.0151
10505W        W25636   6.788   3.356   0.177  0.0540 -0.1032  0.3583
10506W        W25637   8.549  14.596   4.018 -0.2570 -0.0578  0.1846
10507W        W25638  16.005   4.880   1.934 -0.1065  0.0519 -0.2100
10508W        W25639   8.577   8.731   0.414 -0.3692  0.0334 -0.1131
10509W        W25640  12.347   6.012   4.448  0.1625  0.1359  0.0262
10510W        W25641   2.246  16.352   0.090 -0.2748  0.1025 -0.1450
10511W        W25642   9.239   8.100   6.496  0.3080 -0.3922 -0.3432
10512W        W25643  16.995   6.224   3.883  0.1404 -0.1012 -0.3019
10513W        W25644   3.875  16.307  14.309 -0.1716 -0.2024  0.1297
10514W        W25645  10.291  11.659  12.981 -0.0543  0.2032 -0.1500
10515W        W25646  12.761  14.185  16.712 -0.3136  0.3194  0.2429
10516W        W25647   0.188   8.104  12.415 -0.1853  0.1292  0.1576
10517W        W25648  12.881   6.300   4.458  0.0753  0.1850  0.0118
10518W        W25649   7.473  10.815  15.783  0.3811  0.1692  0.0733
10519W        W25650   8.042   1.603  15.779 -0.0426  0.1250 -0.1324
10520W        W25651   4.568  16.862  16.403 -0.0747 -0.1947  0.0561
10521W        W25652   9.154  17.167   1.016 -0.1039 -0.2698  0.0203
10522W        W25653   9.021   1.681  15.368 -0.2624  0.0041 -0.2811
10523W        W25654  17.477   6.504  14.734 -0.0799  0.0742  0.2612
10524W        W25655   2.607  10.037  11.457 -0.1818 -0.0434 -0.0124
10525W        W25656   7.354   4.862   1.942  0.0398 -0.0324 -0.1602
10526W        W25657   4.068  10.701  16.317 -0.3673 -0.1095  0.0848
10527W        W25658   7.552   9.805   2.098  0.0524  0.2333 -0.2104
10528W        W25659   2.096   1.566   4.816  0.0010  0.0132  0.0035
10529W        W25660  13.977  15.857  14.494  0.3076 -0.2231  0.2179
10530W        W25661  10.982  17.466   6.344  0.0209  0.4720 -0.0073
10531W        W25662   1.433  17.692  13.588  0.0045  0.0980  0.2058
10532W        W25663   2.361   4.277   1.124 -0.1499  0.1023  0.0369
10533W        W25664  12.895  15.046   4.909  0.1573 -0.1175  0.1292
10534W        W25665  16.154   3.828  15.873  0.1347  0.2233  0.0764
10535W        W25666  13.366   2.108  12.546 -0.2554 -0.0346  0.1363
10536W        W25667   1.239  11.527   2.099  0.1391  0.1093 -0.2842
10537W        W25668  12.122   6.007  13.691 -0.2773  0.3523  0.0005
10538W        W25669   2.659   6.345  12.411  0.1843 -0.3255 -0.2574
10539W        W25670   4.888   0.459   2.918 -0.2890 -0.1835  0.0410
10540W        W25671  11.059  11.856  12.362  0.1393  0.3203  0.1058
10541W        W25672   2.064   0.167   2.685 -0.0762  0.1033 -0.1202
10542W        W25673  16.856  15.297  12.782  0.0793 -0.0081 -0.0542
10543W        W25674   0.392   6.007  11.431  0.1156 -0.5367 -0.0019
10544W        W25675   0.163   2.597  14.667 -0.0100 -0.1631  0.0844
10545W        W25676   8.607   0.921  12.160 -0.1165 -0.1203 -0.1906
10546W        W25677  11.777  13.681  12.273  0.0227 -0.2234  0.2727
10547W        W25678  15.921   0.686   2.179 -0.0473 -0.4003  0.0001
10548W        W25679   4.690   5.129  16.657  0.0503  0.1832  0.4577
10549W        W25680   3.233  17.022   0.578 -0.0039  0.0240 -0.0598
10550W        W25681  13.569   2.511  11.696 -0.0114 -0.0735  0.1881
10551W        W25682  16.365   8.489   5.257  0.4624 -0.0547  0.1721
10552W        W25683   5.757   6.284  16.916  0.2161 -0.2392 -0.0651
10553W        W25684  17.704   5.933   1.330  0.0132 -0.0658  0.1100
10554W        W25685   1.878  10.899   1.643  0.0618  0.2548  0.0602
10555W        W25686   7.908  11.436  11.621  0.0538 -0.0242 -0.1155
10556W        W25687  13.869   7.421   1.624 -0.0711  0.2258  0.0185
10557W        W25688  11.306   1.680   4.874 -0.1657 -0.0307 -0.0502
10558W        W25689  16.830  12.022  15.365  0.0664  0.0703  0.1394
10559W        W25690  13.450   8.667  11.266  0.0174  0.2485 -0.3027
10560W        W25691   7.266  14.088   1.494 -0.0480 -0.0584  0.1321
10561W        W25692  11.111   5.965  11.285 -0.1145 -0.3671 -0.0982
10562W        W25693  13.058   5.881  14.883  0.0347  0.1085  0.1181
10563W        W25694  12.406   3.471  11.127  0.1738  0.1576 -0.1307
10564W        W25695  15.800   4.477   5.205 -0.1685 -0.1365 -0.2722
10565W        W25696   6.872   6.653  11.024  0.2032 -0.1103  0.1203
10566W        W25697  15.245  13.821  14.758  0.0349  0.2520 -0.0850
10567W        W25698  14.703   8.096   1.989 -0.0252 -0.1104 -0.2161
10568W        W25699   6.073  12.686  13.268 -0.1348 -0.0317 -0.0797
10569W        W25700   3.595  16.775   5.248  0.0188  0.1402  0.3076
10570W        W25701   3.284   0.312  12.067  0.1467 -0.5099  0.3342
10571W        W25702  16.219  10.818  14.755 -0.0375 -0.1771 -0.0957
10572W        W25703   7.744   7.237   0.938 -0.3990  0.0547  0.1760
10573W        W25704   8.832  12.431  13.648 -0.0724 -0.0483 -0.1852
10574W        W25705   7.917  11.969   4.564  0.3712  0.1105  0.2790
10575W        W25706  14.271   9.422  15.030 -0.0363 -0.1361  0.2700
10576W        W25707   9.291  10.370   3.855 -0.1298  0.1297  0.1727
10577W        W25708   8.713  11.160  12.776 -0.3979 -0.1878  0.2553
10578W        W25709   2.774   7.966  14.671 -0.1004  0.1524 -0.0397
10579W        W25710  13.017   0.101  13.419 -0.1080 -0.0385 -0.3519
10580W        W25711   1.397  14.284   5.614 -0.0258 -0.1995  0.0829
10581W        W25712   3.435   4.835  16.011  0.0043 -0.1148  0.2783
10582W        W25713  13.485   7.737  15.578 -0.3064  0.1047 -0.0171
10583W        W25714   0.933   7.080  15.027  0.1436  0.2066 -0.0754
10584W        W25715   2.429   2.021  14.060 -0.0143  0.1283 -0.0508
10585W        W25716   3.076  11.051  14.093 -0.0781  0.1082  0.0693
10586W        W25717  14.302   8.524  16.899 -0.0412 -0.1855 -0.2324
10587W        W25718   6.162   4.243  11.555 -0.0035  0.0344  0.1485
10588W        W25719  12.883  14.991  16.311  0.1795 -0.1501  0.0474
10589W        W25720  15.456  15.182  16.915 -0.0158  0.2630  0.0459
10590W        W25721   2.308   3.801   4.980  0.0860 -0.0311 -0.1461
10591W        W25722  15.606  13.023  11.352 -0.0683  0.0187 -0.4011
10592W        W25723   3.936  13.730  14.810  0.2445  0.0604 -0.1158
10593W        W25724   1.029   2.945   4.301  0.1586  0.1860  0.0012
10594W        W25725   5.407  14.220  15.055 -0.0721  0.3264 -0.2231
10595W        W25726   9.725   2.359  11.476  0.0699 -0.2801  0.2295
10596W        W25727   1.228   6.013  12.531 -0.0486 -0.4419  0.1660
10597W        W25728  15.827  12.495  13.034  0.3637  0.0797  0.0261
10598W        W25729  12.349  10.057  14.509 -0.0974 -0.1310 -0.1144
10599W        W25730   8.028  14.305   2.119 -0.0406  0.2335 -0.0513
10600W        W25731   7.320  10.540  16.745 -0.4025  0.1221 -0.0195
10601W        W25732   6.573   9.214   4.406 -0.0116  0.1235 -0.3429
10602W        W25733   8.993   3.974   3.250 -0.2671 -0.0120 -0.0615
10603W        W25734  15.276  14.154   1.458  0.0587 -0.1066 -0.4263
10604W        W25735  14.598   4.992   4.236  0.0041  0.1537 -0.0265
10605W        W25736   9.287  16.473   4.292 -0.0246 -0.0740 -0.0046
10606W        W25737   0.035   4.510   2.427 -0.0407  0.1054 -0.1847
10607W        W25738   8.402   2.865  14.740  0.1170  0.1029  0.1768
10608W        W25739  14.460   5.442  13.975 -0.1091  0.2325  0.1544
10609W        W25740   6.462   0.169  14.675 -0.0988 -0.0908 -0.4003
10610W        W25741  10.187   3.859  16.744  0.1305 -0.1721 -0.3628
10611W        W25742   5.129   6.260   1.419  0.1529  0.1733 -0.0121
10612W        W25743  12.290   4.264  10.968 -0.0290 -0.0907 -0.0455
10613W        W25744  10.307   5.537  11.550 -0.3840 -0.1347  0.1047
10614W        W25745   5.105   2.633  14.568 -0.0423 -0.3408  0.3423
10615W        W25746  15.846   1.852  13.638 -0.0039  0.3253  0.3092
10616W        W25747   9.205   1.851   1.841  0.1584  0.0041 -0.0688
10617W        W25748   6.923  13.728   6.335  0.3120 -0.4020  0.0113
10618W        W25749  10.891   5.400  14.726 -0.0224  0.1266  0.0943
10619W        W25750  16.332  14.493   5.143  0.4260 -0.3201  0.1258
10620W        W25751  15.038   7.290  13.994  0.3846  0.0363 -0.0688
10621W        W25752   6.945   1.240  15.585 -0.0757 -0.1161 -0.0132
10622W        W25753  10.709  17.346   4.604 -0.1334 -0.1028  0.1356
10623W        W25754   3.028   2.446   5.192  0.1908 -0.2068 -0.3714
10624W        W25755  12.174   7.283  16.920  0.2305  0.0708  0.2227
10625W        W25756   3.025  11.654   0.408 -0.1568 -0.4867 -0.1271
10626W        W25757   0.919   4.250   1.386  0.0105 -0.2625 -0.0454
10627W        W25758   3.639   6.417  12.246 -0.2204 -0.0612  0.3968
10628W        W25759   9.261  15.272   2.399  0.1861 -0.0097  0.1087
10629W        W25760  14.243  15.273  12.092  0.0147 -0.0561 -0.2034
10630W        W25761  11.457   4.588   4.394  0.1427 -0.1451 -0.0133
10631W        W25762  15.184  14.537   0.980 -0.0623 -0.0459  0.3236
10632W        W25763  15.654  13.627  14.962  0.0209  0.1587 -0.3464
10633W        W25764  12.852   8.428  16.524  0.0975 -0.0920 -0.1435
10634W        W25765  11.776  16.509   4.306  0.0361 -0.2845 -0.0922
10635W        W25766   1.775  16.204  15.158  0.2450  0.1690 -0.3717
10636W        W25767   0.806   2.597   1.061 -0.1041 -0.5089 -0.0807
10637W        W25768   1.932   4.268  13.097 -0.0642  0.1258 -0.0394
10638W        W25769  13.682   2.001   1.719 -0.2521 -0.0397 -0.0402
10639W        W25770   2.671   3.162   3.877  0.1835 -0.0862 -0.0520
10640W        W25771  16.745   2.662  12.401  0.2107  0.2470  0.0830
10641W        W25772  14.173  17.429   3.631 -0.0833 -0.1558  0.0566
10642W        W25773   3.673  17.582   2.953  0.0409 -0.4036  0.0917
10643W        W25774  15.495   4.725   1.645 -0.1187 -0.0355 -0.0716
10644W        W25775   3.014   7.634  16.458  0.3479 -0.0773  0.0049
10645W        W25776  13.593   7.553  13.625  0.1151  0.0018  0.0521
10646W        W25777   8.519  13.065   5.616 -0.3356 -0.3699  0.2167
10647W        W25778  12.085  12.222   4.967  0.2921  0.1647 -0.1427
10648W        W25779  14.079   0.822   2.702 -0.0313  0.1513  0.2039
10649W        W25780  14.761  11.548  13.022  0.1691 -0.2229  0.0993
10650W        W25781  10.574   7.863  13.270  0.0520 -0.0567 -0.0693
10651W        W25782   9.443   5.557  12.033  0.0112  0.1092  0.0389
10652W        W25783  11.584  15.030   5.907 -0.0423  0.1457 -0.0294
10653W        W25784   2.613  15.235   1.609  0.0577 -0.0667 -0.1610
10654W        W25785   7.048   2.271  12.153  0.1081  0.1889  0.2021
10655W        W25786   8.782   4.753   5.688 -0.1285 -0.1918 -0.1032
10656W        W25787  16.599   9.834  14.582  0.3141 -0.1422  0.2576
10657W        W25788   1.363   2.261  15.153 -0.3302  0.0929  0.3170
10658W        W25789   4.218  15.710   3.339 -0.1877 -0.3495  0.1443
10659W        W25790  16.874   0.548  15.160 -0.0953  0.1223 -0.2840
10660W        W25791   7.578   8.498  12.147  0.2041  0.1781  0.2695
10661W        W25792   5.844   6.836   1.511 -0.0816  0.0882 -0.2197
10662W        W25793  10.182  16.291   2.981 -0.1795 -0.0829 -0.0896
10663W        W25794   4.216   4.258  13.884  0.1548 -0.0242  0.1252
10664W        W25795   5.203  11.774   2.790 -0.0153 -0.2165 -0.0922
10665W        W25796  15.019   4.776   5.117  0.2020  0.2217  0.1983
10666W        W25797   0.952   1.973   3.053 -0.0909 -0.0769 -0.2288
10667W        W25798   3.398  11.810   2.251  0.1822 -0.0089 -0.0373
10668W        W25799  11.777   2.580  12.104 -0.1497  0.2390  0.2779
10669W        W25800   6.107   4.486   1.177  0.1222 -0.1230  0.0039
10670W        W25801   6.015   4.569  13.840 -0.0992 -0.0349 -0.0183
10671W        W25802  17.451  10.516   2.679  0.1747 -0.1829  0.0426
10672W        W25803   2.686   5.662   0.700 -0.0481  0.0278 -0.0637
10673W        W25804   2.174   4.010  12.264 -0.0827 -0.0675  0.1041
10674W        W25805  12.546   8.009  12.238 -0.3772 -0.2434  0.1045
10675W        W25806   0.886  11.382  15.106 -0.0151 -0.1812  0.2235
10676W        W25807   7.467   9.222   1.574 -0.2162 -0.1991 -0.0241
10677W        W25808  12.760   0.269  14.459 -0.1346 -0.1856  0.1264
10678W        W25809  13.400   1.614  12.900 -0.0416  0.1671  0.0630
10679W        W25810  13.246   9.818  13.987 -0.0705 -0.1308  0.0382
10680W        W25811  12.251  11.251  15.833  0.1493  0.2025  0.2884
10681W        W25812  11.870  16.366   4.803  0.0786 -0.3446  0.0801
10682W        W25813   8.644  14.640   0.472  0.1062 -0.1451 -0.0135
10683W        W25814   7.461  16.396  13.944 -0.0539 -0.2065  0.0611
10684W        W25815   8.624   1.555   3.453  0.3972  0.0851  0.1536
10685W        W25816  16.229   8.721  14.359  0.0694 -0.1721 -0.1349
10686W        W25817   1.932   3.604  10.565  0.2543  0.2822  0.0374
10687W        W25818  16.270  10.638  13.118  0.0512  0.0470  0.1495
10688W        W25819   8.550   7.284   5.666  0.0227  0.1905  0.0551
10689W        W25820   0.484   2.144  13.338 -0.0274  0.1095 -0.0062
10690W        W25821   0.961  10.970   0.424  0.1599 -0.1126 -0.0303
10691W        W25822   8.511   8.391  14.353  0.2174  0.2518 -0.2056
10692W        W25823  11.502   4.835  16.740 -0.2836  0.0556 -0.0771
10693W        W25824   5.738   6.129  13.588 -0.0385 -0.2244 -0.2445
10694W        W25825   0.974  11.395  16.346 -0.1135  0.1092  0.0965
10695W        W25826   0.567   8.939  15.520  0.0578  0.0024  0.1292
10696W        W25827   0.387   7.791  11.793  0.0014 -0.1792 -0.3673
10697W        W25828   9.562   5.357  11.176 -0.3013 -0.0485 -0.0217
10698W        W25829   2.778   8.778  11.031 -0.1475 -0.1334  0.2239
10699W        W25830  12.238   5.820  14.669  0.2803  0.2004 -0.0824
10700W        W25831  16.517  14.490   0.435  0.1703 -0.1003 -0.2122
10701W        W25832  15.881  15.146   6.262 -0.0479 -0.1310  0.0575
10702W        W25833   4.158   9.059   0.732  0.1455  0.3882  0.0050
10703W        W25834  13.817   5.720   5.003  0.1914 -0.1775 -0.1246
10704W        W25835   0.652   8.514   1.017  0.1218  0.2481 -0.0787
10705W        W25836   5.307   2.605   1.903  0.0421  0.0209 -0.0990
10706W        W25837   5.462   5.178  11.493 -0.0538  0.0342  0.0528
10707W        W25838   1.947   5.607   1.020  0.2381 -0.3920 -0.1815
10708W        W25839  16.622  13.522  12.332  0.1986  0.3312  0.1202
10709W        W25840  15.652  13.052   6.108 -0.2768  0.0485 -0.0059
10710W        W25841  12.818   9.230  14.199  0.1803  0.0959  0.0374
10711W        W25842   6.400   2.400   5.034 -0.1416 -0.0420  0.0800
10712W        W25843   0.730  17.368  12.744  0.0742  0.0946 -0.3516
10713W        W25844  15.964   8.153   4.205  0.0244  0.3913  0.0647
10714W        W25845   3.382   5.322  13.050 -0.0176  0.1946  0.1292
10715W        W25846   0.163  11.782  10.970 -0.1119  0.0211 -0.0623
10716W        W25847  14.417   9.022   2.493 -0.1415 -0.3038 -0.4572
10717W        W25848   2.236   4.141   1.985 -0.3338  0.1910 -0.0287
10718W        W25849   1.917  10.419   4.906  0.0702  0.1148 -0.1191
10719W        W25850   8.205  17.238   2.313  0.1181 -0.1248  0.1399
10720W        W25851  16.179   2.164   4.193  0.2793 -0.0108 -0.0013
10721W        W25852   4.508   8.179  14.941 -0.0165  0.0303 -0.1491
10722W        W25853   6.329   5.350   2.276  0.2696 -0.1113  0.2704
10723W        W25854  10.003   7.924  11.961 -0.0074 -0.2071  0.1247
10724W        W25855   1.815   6.954   5.347  0.0761 -0.0671 -0.0101
10725W        W25856   5.363   8.452  15.058 -0.1066  0.4360 -0.0457
10726W        W25857  13.789  17.413  16.074  0.2225 -0.0379  0.0581
10727W        W25858   0.563   0.313  14.256 -0.1529  0.0162 -0.0967
10728W        W25859  10.653   3.263   1.317  0.0201  0.1956 -0.0431
10729W        W25860  13.939  11.061  12.820 -0.4809 -0.1330 -0.0426
10730W        W25861  10.219  13.442  15.150 -0.1906  0.0350  0.0122
10731W        W25862  14.574   2.617  13.040  0.0411  0.0890  0.0847
10732W        W25863  15.628   3.448   1.052  0.0306  0.0994 -0.0421
10733W        W25864   8.340   2.639  15.890 -0.0524 -0.3165  0.1677
10734W        W25865  10.340   5.284  13.942 -0.3820 -0.2298 -0.1754
10735W        W25866  11.653   2.325   5.864 -0.0602  0.0267 -0.1304
10736W        W25867  15.785   3.809  11.173 -0.1701  0.2559 -0.2610
10737W        W25868   2.522  14.670  16.427 -0.0614  0.2201  0.2652
10738W        W25869   3.528   8.857   1.392  0.2769  0.0161 -0.2915
10739W        W25870   5.908  16.618  16.322 -0.0575  0.2697 -0.0079
10740W        W25871  10.338  13.374   5.504 -0.0178  0.0002 -0.1560
10741W        W25872   6.361   0.198   0.770  0.0742 -0.0769 -0.0324
10742W        W25873   8.467   7.779   2.490  0.1497  0.1173 -0.2798
10743W        W25874   0.690   8.531   3.456 -0.2542  0.1180 -0.1048
10744W        W25875   9.518   4.562   2.182  0.0429  0.1158 -0.0609
10745W        W25876   7.230  12.076   2.505 -0.0301  0.0006 -0.1469
10746W        W25877   8.372   3.958  11.351  0.0416 -0.0235  0.3222
10747W        W25878   1.042   6.361   1.657  0.3555  0.2203 -0.0650
10748W        W25879   3.340  10.201   0.700  0.2259 -0.0287 -0.2556
10749W        W25880  15.742  13.899  11.584 -0.0766 -0.0250  0.0939
10750W        W25881   2.522  13.349  14.809  0.2506  0.1097 -0.2921
10751W        W25882   7.067   7.836   1.442 -0.0174  0.2278 -0.0463
10752W        W25883   2.733  13.278  15.952  0.3785  0.1787  0.0939
10753W        W25884  13.665  14.882  11.704  0.2227  0.1536 -0.1830
10754W        W25885  17.102  13.194   1.958  0.2886  0.2212 -0.0889
10755W        W25886   8.400  13.711   0.029 -0.4812 -0.0172 -0.0884
10756W        W25887  11.636   3.861  11.497 -0.1148  0.0887 -0.3032
10757W        W25888   0.582   8.130  12.106 -0.2567 -0.2110  0.1957
10758W        W25889  16.806   1.914  11.974 -0.1797 -0.0733  0.0598
10759W        W25890  16.169   2.603  12.287 -0.3218  0.2480  0.0119
10760W        W25891   9.810   0.774   0.089  0.0162  0.0049 -0.2434
10761W        W25892  10.320  16.593  13.255  0.0605  0.0094  0.1347
10762W        W25893   2.287  10.017   2.285  0.1642 -0.0082  0.1881
10763W        W25894   2.960   1.191  16.515 -0.3503  0.0085  0.0091
10764W        W25895   4.191   0.645  15.125  0.1196 -0.1659  0.1035
10765W        W25896   7.394   6.625  14.175  0.2112 -0.3322  0.0420
10766W        W25897  15.272  16.861   3.000 -0.5095  0.1218 -0.1884
10767W        W25898  16.839   3.827   1.645  0.1635  0.1796 -0.1124
10768W        W25899   3.160   9.639   3.789  0.0180  0.0880  0.2404
10769W        W25900  13.236  10.100   2.191 -0.0663  0.1831  0.1074
10770W        W25901   6.239  16.667   3.302 -0.0261 -0.0264  0.0544
10771W        W25902   0.437   6.755  15.178 -0.0615 -0.2497  0.0910
10772W        W25903  11.025  13.824  15.234  0.3019  0.0649  0.2359
10773W        W25904   7.874  17.621  12.718 -0.2584 -0.0358  0.4000
10774W        W25905  16.222   4.076   3.836 -0.2457 -0.0214  0.0960
10775W        W25906  13.792   7.024   4.756  0.1679 -0.1213 -0.0391
10776W        W25907  14.485   3.081   5.073 -0.0053  0.2034  0.1575
10777W        W25908   4.584  13.423   2.015 -0.2619  0.0571  0.1121
10778W        W25909  14.031   7.347  13.837  0.2049  0.0000  0.1034
10779W        W25910  14.169  10.239  15.550 -0.6062  0.0705 -0.3404
10780W        W25911  13.588   0.534   1.096  0.0814 -0.0546 -0.3951
10781W        W25912   2.692   7.611   1.989  0.0066  0.0664 -0.1969
10782W        W25913   4.689   6.984   3.670 -0.1092  0.0117 -0.1452
10783W        W25914  15.049  14.874   5.410  0.0140 -0.2499 -0.1622
10784W        W25915   0.739   2.637  16.575  0.3068  0.2104  0.0222
10785W        W25916   8.027   3.587   4.777  0.0867  0.2177  0.0945
10786W        W25917   5.042  14.909  14.979  0.0752 -0.1254  0.0972
10787W        W25918   6.564  14.775   5.135  0.0364 -0.1259 -0.0013
10788W        W25919  16.978   1.879   0.004  0.2400 -0.1904  0.1995
10789W        W25920   5.042  10.772   6.283  0.2321  0.2041 -0.0483
10790W        W25921   4.687  13.920   2.158  0.2225  0.3117 -0.2693
10791W        W25922   3.784   4.046  12.177 -0.0596  0.1488  0.0837
10792W        W25923  11.517   6.755  11.023 -0.0796  0.2551 -0.3082
10793W        W25924   4.701  16.158  15.667  0.0311  0.2987 -0.2236
10794W        W25925   0.387  12.044   1.340  0.0820  0.0981  0.0510
10795W        W25926  10.936  10.621   2.787 -0.1506 -0.1166 -0.0954
10796W        W25927  10.476   8.667  12.527 -0.1370 -0.3632 -0.3595
10797W        W25928   6.793  12.301   3.792  0.2956 -0.0399 -0.0012
10798W        W25929   8.387  11.155  15.768  0.2182  0.2468  0.0834
10799W        W25930   4.731  17.598  12.683  0.1788 -0.4851 -0.1257
10800W        W25931  15.070  14.650   4.198 -0.0368 -0.1396 -0.0586
10801W        W25932   8.225   7.596   1.116 -0.1832  0.1147  0.0208
10802W        W25933  16.001   1.434   4.762 -0.2880  0.0802 -0.0978
10803W        W25934   6.319  17.545   0.334  0.2683  0.1929 -0.1862
10804W        W25935   7.985  13.272   0.117 -0.1402  0.0086 -0.4539
10805W        W25936  10.624   5.780  16.474  0.1001 -0.0181 -0.1013
10806W        W25937   6.472  12.345   4.649 -0.1130 -0.0401  0.0607
10807W        W25938  10.225  15.759  13.878  0.0010 -0.1388  0.1949
10808W        W25939   1.769   1.152   6.133  0.1983 -0.3631 -0.2587
10809W        W25940   6.893   1.657  11.898  0.0730 -0.1766  0.0033
10810W        W25941   6.955  10.801   0.336  0.0621  0.0671 -0.3079
10811W        W25942  12.309   9.846   0.220  0.1421  0.1578  0.0082
10812W        W25943  15.209  14.468  12.938 -0.1458 -0.3472  0.0933
10813W        W25944  11.419  13.031  15.570 -0.0181  0.0968  0.0158
10814W        W25945  13.838   6.053  15.742  0.2624  0.1099 -0.1736
10815W        W25946   7.352  16.158   2.386  0.0383 -0.0285 -0.0259
10816W        W25947  11.343   1.535   2.669 -0.0208 -0.1062  0.0697
10817W        W25948  10.376   3.395  16.732  0.0219  0.1222  0.0820
10818W        W25949  10.548   6.516   3.576 -0.1251 -0.0882 -0.0263
10819W        W25950   4.688  15.034   1.515 -0.2395 -0.1465  0.1408
10820W        W25951   2.383   4.798   4.835  0.2168  0.3523  0.1000
10821W        W25952   0.849   0.739  15.633 -0.3304  0.2134 -0.1158
10822W        W25953   0.001   9.674  10.559  0.3108  0.0755  0.2456
10823W        W25954  12.955  15.900  14.306 -0.2629  0.0331  0.2173
10824W        W25955   3.716   1.383   4.704 -0.0392 -0.1786  0.0690
10825W        W25956  15.240   0.499   1.364 -0.1014  0.0490  0.0967
10826W        W25957   6.130  17.544   2.969  0.3681  0.1292 -0.1917
10827W        W25958   5.113  12.663   2.397  0.1778  0.0624  0.2882
10828W        W25959   9.686  12.952  13.931  0.2232  0.2701 -0.4657
10829W        W25960   4.379   3.794  13.886  0.0500  0.1783 -0.2058
10830W        W25961  15.700   1.298   2.599  0.0368  0.0018 -0.2405
10831W        W25962   7.574  12.494  14.955 -0.2405 -0.1248  0.0635
10832W        W25963  15.746  11.598  13.172 -0.0612  0.0787 -0.2263
10833W        W25964  11.333   5.167   1.695 -0.0841  0.3496 -0.0460
10834W        W25965   4.108  14.123  15.186  0.1110 -0.1200  0.4015
10835W        W25966   0.447  10.397  16.805 -0.0224 -0.1360  0.1426
10836W        W25967  11.904   8.845   2.011  0.1712  0.0748  0.1841
10837W        W25968   9.067   6.013  15.529  0.0364  0.0746  0.1075
10838W        W25969   3.310  14.532   0.890 -0.2861  0.1190 -0.0201
10839W        W25970   1.007  17.419   1.992  0.0302  0.2763  0.1276
10840W        W25971  15.928  10.457  16.752 -0.5228 -0.3476 -0.0716
10841W        W25972  14.395  10.297   0.467  0.1005 -0.1465  0.0250
10842W        W25973   6.547   3.651  16.745  0.0236  0.1199  0.0861
10843W        W25974  14.170  12.439  12.146 -0.2482 -0.0480  0.1560
10844W        W25975  10.604   2.899   2.583  0.1233 -0.0418  0.3242
10845W        W25976  15.774  16.812   3.532  0.3227  0.0215 -0.2531
10846W        W25977  16.744   6.026  15.074 -0.0055  0.1024 -0.0234
10847W        W25978   3.720   8.539   2.619 -0.1336 -0.0190  0.1951
10848W        W25979   5.343   0.660   0.355 -0.3399  0.1115 -0.0351
10849W        W25980  11.576  17.493  16.426  0.0957  0.0653 -0.2444
10850W        W25981   8.477   8.155  16.584 -0.1584 -0.0233  0.0666
10851W        W25982   7.263   6.963  12.339 -0.0409  0.0354  0.1226
10852W        W25983   0.921  14.516   1.366 -0.1300  0.0041  0.0388
10853W        W25984   5.337   4.433   2.134 -0.0172  0.0891  0.1901
10854W        W25985   0.988  12.900  13.677  0.4046  0.1734  0.0456
10855W        W25986   5.535   0.969   3.413  0.1704  0.1082 -0.0229
10856W        W25987   9.764  11.268  13.866 -0.3098  0.1499  0.0376
10857W        W25988  15.653  11.362  14.910  0.0145  0.1258  0.0816
10858W        W25989   1.251   7.631  12.054 -0.3490  0.1342 -0.1021
10859W        W25990   4.834  15.779  12.461 -0.2647  0.1596  0.1185
10860W        W25991   5.616   9.892  12.284  0.0820  0.0070 -0.0605
10861W        W25992   3.201  11.954   3.602 -0.0447 -0.3150  0.0712
10862W        W25993  14.747   0.817  14.463  0.1663 -0.1136 -0.2829
10863W        W25994   8.628   7.154   0.525  0.1545 -0.2827 -0.1260
10864W        W25995   4.740  15.777   2.345  0.3031 -0.2805 -0.1759
10865W        W25996   8.466  15.513   2.514  0.3023 -0.2811  0.0803
10866W        W25997  10.644  11.372   4.472 -0.0216  0.2737  0.0848
10867W        W25998   2.530   5.177   4.036  0.0303  0.0375 -0.0593
10868W        W25999   7.725  14.866  14.182  0.0031 -0.2099  0.2937
10869W        W26000   4.029   1.305   2.139  0.3847 -0.0257  0.2690
10870W        W26001   2.554  14.553   3.746 -0.1125  0.1739 -0.2124
10871W        W26002   6.405   6.925  16.470  0.1579  0.0015  0.2221
10872W        W26003   9.050  17.389  13.243  0.2077 -0.1688  0.0609
10873W        W26004   1.442  13.398   5.516 -0.1765 -0.2411  0.2492
10874W        W26005   6.681   2.576   5.857 -0.2139 -0.0181  0.0882
10875W        W26006  14.282   1.872   1.124 -0.3484 -0.1959  0.0135
10876W        W26007   3.731   5.710   0.926  0.1289 -0.4243 -0.0470
10877W        W26008   1.115  12.063   4.251 -0.1858 -0.2074  0.0113
10878W        W26009  10.101  16.327   2.393  0.0268  0.0693 -0.3223
10879W        W26010  16.276  15.603   0.033 -0.2242 -0.0926 -0.0531
10880W        W26011   4.949   0.697  15.424  0.0009  0.0978  0.0865
10881W        W26012  12.707  16.546   4.548  0.0362 -0.0216  0.3664
10882W        W26013  14.541  10.083   2.284  0.3492 -0.0955 -0.3430
10883W        W26014   0.940   4.170  16.541  0.2500 -0.0928  0.1684
10884W        W26015  16.562  11.978  10.450 -0.0094 -0.0318  0.1083
10885W        W26016   2.245  11.412   0.729 -0.1157  0.3238 -0.1223
10886W        W26017  17.711   5.814  12.739  0.2894 -0.0727  0.1157
10887W        W26018  17.487   8.436   2.870 -0.0283 -0.0462  0.0504
10888W        W26019  14.377  10.563   3.169 -0.0193  0.0352 -0.0406
10889W        W26020  13.756   9.774  13.890  0.3622 -0.1334  0.1207
10890W        W26021   4.023   9.625   3.512 -0.0790  0.0623  0.2296
10891W        W26022  17.346   7.537  12.073 -0.1293 -0.1419 -0.0630
10892W        W26023   5.652   9.127   4.881  0.0895 -0.2528  0.3381
10893W        W26024   9.080   2.050   3.277  0.1420  0.0169 -0.3089
10894W        W26025   9.920   0.277   3.663  0.1337 -0.2529  0.2477
10895W        W26026   0.593   8.691  11.373 -0.0654  0.0714 -0.1214
10896W        W26027   2.005   9.872   3.210  0.1583 -0.0012  0.1421
10897W        W26028  13.930  16.676   3.100  0.0974 -0.0072  0.1103
10898W        W26029   6.792  13.310  15.633 -0.0551  0.1874  0.2787
10899W        W26030  15.019  14.521  12.509  0.0372  0.1964 -0.1541
10900W        W26031   8.420  12.562  13.051 -0.3089 -0.2155 -0.0575
10901W        W26032   3.823   4.048  16.603  0.2063 -0.3480 -0.0055
10902W        W26033  12.134  16.111   1.200 -0.0051  0.0065  0.0419
10903W        W26034   9.580   2.720  16.350  0.1356  0.0833  0.2386
10904W        W26035  13.496   3.797  13.894 -0.0286 -0.0713 -0.1133
10905W        W26036   8.749  12.667   3.316  0.1249 -0.2868 -0.0535
10906W        W26037   5.346   7.408  12.754 -0.0822  0.2080  0.1632
10907W        W26038  16.634   1.014  14.763 -0.4194  0.0791  0.0533
10908W        W26039   8.770  10.114   5.134  0.0090 -0.0174 -0.0044
10909W        W26040   4.747   8.220  12.715 -0.3579 -0.2198 -0.2241
10910W        W26041   6.019   6.102   4.922 -0.2635  0.1745  0.3382
10911W        W26042  12.032   0.309  15.810 -0.2597  0.0673  0.3451
10912W        W26043   9.868   3.353   6.199  0.1996 -0.3104 -0.0466
10913W        W26044   9.894   1.770  15.346 -0.1997 -0.0149 -0.0840
10914W        W26045  10.701  11.913  11.751  0.1893 -0.0328  0.0952
10915W        W26046   1.298   4.103   4.975  0.1169 -0.1999 -0.3441
10916W        W26047  16.065  11.711   3.290 -0.0819 -0.1183 -0.0121
10917W        W26048   5.243   3.295  12.834  0.2964 -0.0373 -0.2324
10918W        W26049   5.566  11.731   2.146 -0.1167 -0.1895 -0.1379
10919W        W26050   4.740   5.508   0.445  0.4012  0.0943 -0.2747
10920W        W26051   2.351   9.404   4.055 -0.1656 -0.2540  0.0959
10921W        W26052  10.521   0.870   0.466 -0.1528 -0.1816  0.1943
10922W        W26053  16.360  11.340  16.242  0.0287  0.0250  0.1064
10923W        W26054   1.372   6.367  12.958  0.0972  0.2894 -0.0298
10924W        W26055  13.925  11.688  12.189 -0.3276 -0.0004 -0.0873
10925W        W26056  10.797  13.905   5.164 -0.1763  0.0623  0.0819
10926W        W26057   8.639   3.471   1.762  0.0199 -0.1700  0.4861
10927W        W26058  11.839   6.179  13.167  0.1519  0.2142 -0.1460
10928W        W26059  12.593  16.851   0.710 -0.2316 -0.2028 -0.1493
10929W        W26060  16.778  15.103   2.543  0.0589 -0.1197  0.2477
10930W        W26061  11.100   2.820   0.231 -0.2822 -0.1264 -0.0128
10931W        W26062  14.143   5.273  11.427 -0.0362 -0.0551 -0.0771
10932W        W26063   5.956   5.440  11.519  0.0027  0.3578 -0.0306
10933W        W26064  13.180   2.805   1.944 -0.1133 -0.1885 -0.2357
10934W        W26065   9.560   7.690   0.630  0.0298 -0.3432 -0.1402
10935W        W26066  11.018  14.124  12.580 -0.1494  0.1487 -0.1186
10936W        W26067   9.242   0.911   5.904 -0.1907 -0.1526 -0.1659
10937W        W26068   9.119  16.793   0.556 -0.1121  0.0393  0.1779
10938W        W26069   7.260   9.402   1.165  0.2121  0.0163 -0.2050
10939W        W26070  14.442   9.952   3.606  0.2814  0.0773 -0.1865
10940W        W26071   7.601  10.323   3.107  0.1782 -0.0944  0.0815
10941W        W26072  15.312  16.796   4.873 -0.1031  0.1488 -0.1395
10942W        W26073  11.780  10.918  13.881  0.0334 -0.0499 -0.1884
10943W        W26074  14.337  11.696  15.283  0.0971 -0.2401  0.1771
10944W        W26075  17.635  13.484  14.104  0.1239 -0.0538  0.1982
10945W        W26076  15.323  10.429   5.454 -0.1974 -0.2692  0.1050
10946W        W26077   3.435  16.782  14.390  0.0952 -0.2937  0.0342
10947W        W26078   4.596   5.429   3.739  0.2200  0.0716 -0.1889
10948W        W26079  17.101  14.089   0.356 -0.0852  0.0633  0.1214
10949W        W26080  11.856   0.269   4.989 -0.1371 -0.1336  0.1814
10950W        W26081  12.078  15.841   5.830 -0.3629 -0.3467  0.0971
10951W        W26082  17.305   6.529   1.912 -0.0640  0.2608 -0.1563
10952W        W26083  13.804  14.671  12.531 -0.0071 -0.0132 -0.0237
10953W        W26084   6.380   3.640   0.273  0.2937 -0.1281  0.2371
10954W        W26085  10.969  11.662   3.415  0.2095  0.0640 -0.0967
10955W        W26086  15.972   1.062  12.557  0.0764 -0.0922  0.2590
10956W        W26087   3.937  15.146   0.933  0.1898  0.0342 -0.0630
10957W        W26088  10.145   4.922   3.282  0.0833  0.0787 -0.0959
10958W        W26089   1.424   3.838  14.739 -0.3207 -0.2329  0.0438
10959W        W26090   4.157   5.420   1.062  0.0783  0.2989 -0.1146
10960W        W26091   0.283  10.263  15.539  0.0674  0.4059 -0.1339
10961W        W26092  13.988   5.726  12.364 -0.0084  0.1856  0.2180
10962W        W26093  10.892   2.694  12.425  0.1935  0.3309  0.0043
10963W        W26094  12.682  12.200   5.259  0.1478  0.0980  0.0641
10964W        W26095  10.280   7.294  14.378  0.1591 -0.3002  0.1987
10965W        W26096   0.541  14.790   3.431  0.1849  0.0838 -0.1594
10966W        W26097  11.364   7.255  15.378  0.0646 -0.0135 -0.0309
10967W        W26098  15.725   4.586  16.484  0.2830 -0.1161  0.2124
10968W        W26099  13.599  16.994   2.330 -0.1015  0.0241 -0.1173
10969W        W26100   1.929   4.864   5.019  0.0115 -0.0908 -0.0135
10970W        W26101  16.333  13.988  16.151  0.0885  0.0687 -0.1247
10971W        W26102   1.170  12.176   5.093 -0.0961  0.1385  0.0309
10972W        W26103  12.417   6.817  15.583  0.1108 -0.0497  0.1514
10973W        W26104  16.130  13.550   0.098  0.2010 -0.1876  0.3006
10974W        W26105   8.532  10.281   3.395 -0.1763 -0.1110 -0.1652
10975W        W26106   1.836   9.191   0.611 -0.0251  0.1934  0.2471
10976W        W26107  15.329   1.728   4.301  0.0546 -0.0593 -0.1895
10977W        W26108   7.638   6.750  13.276  0.1311 -0.1577  0.3476
10978W        W26109  11.571   6.716   5.135 -0.1781  0.0894 -0.1661
10979W        W26110   7.117   2.051   0.570  0.1892  0.0615 -0.0742
10980W        W26111  11.087   9.114  11.185  0.1726  0.2514  0.5591
10981W        W26112   6.773  15.401   3.998  0.1244 -0.2304 -0.4006
10982W        W26113  12.361   0.437   2.362  0.0251  0.2140  0.2846
10983W        W26114   2.578  15.534   3.131  0.0533  0.0307  0.2623
10984W        W26115  15.351  13.184  13.014 -0.0334  0.0395 -0.2022
10985W        W26116   5.937   1.101  12.471  0.2005 -0.4380  0.1086
10986W        W26117  10.482   0.342   2.546  0.0107 -0.0365 -0.1552
10987W        W26118   1.018   1.547  12.595 -0.0212 -0.0042  0.0755
10988W        W26119   6.244  13.977   5.799  0.1124 -0.0002 -0.0876
10989W        W26120   7.882  14.377   5.128 -0.2282  0.0950 -0.1104
10990W        W26121   5.759   1.834  16.719 -0.1054  0.1858 -0.1969
10991W        W26122   1.047   4.522  16.865  0.0266  0.1812 -0.1207
10992W        W26123   7.188  11.543  14.141  0.1393 -0.2483 -0.3387
10993W        W26124   9.478  15.663   2.722  0.0987  0.2482  0.2875
10994W        W26125  11.460   3.841  14.755  0.1861 -0.1363  0.0765
10995W        W26126   1.081   1.906  13.429  0.0290 -0.0842  0.1180
10996W        W26127  17.328   7.138  12.812  0.1909 -0.0021  0.1720
10997W        W26128   1.658   9.715   5.500  0.0044  0.1807  0.0464
10998W        W26129  15.751  10.244   0.333 -0.0089  0.0577  0.0224
10999W        W26130  16.519   3.101   2.673  0.0314  0.1587  0.2645
11000W        W26131   0.253   1.223  13.167  0.0573  0.0603 -0.1123
11001W        W26132   5.856   1.790  13.287 -0.1435 -0.0394 -0.0789
11002W        W26133   3.886   0.557   0.402  0.0414 -0.1286 -0.0186
11003W        W26134  10.090  14.716   2.518  0.2255  0.0883 -0.2548
11004W        W26135   8.079   3.948  12.199 -0.0160  0.1019 -0.0615
11005W        W26136  12.611   8.785  12.748  0.1795 -0.1457 -0.1967
11006W        W26137  11.283  12.267   2.033  0.0926 -0.1559 -0.1106
11007W        W26138  12.732  11.631   2.150  0.1328 -0.0342  0.2194
11008W        W26139   1.476  17.173   5.089  0.1982  0.1287  0.0344
11009W        W26140   1.764   0.583  15.981  0.0935 -0.0312 -0.2756
11010W        W26141  13.895   6.789   3.157  0.0225  0.2270  0.3384
11011W        W26142  14.373   9.861  13.384 -0.4493  0.0053  0.1195
11012W        W26143   7.119   7.206   4.945  0.2046  0.0972  0.1214
11013W        W26144  12.857  10.609  15.089  0.0462  0.0318  0.0710
11014W        W26145   1.447  12.644   4.944  0.2813 -0.1627 -0.2548
11015W        W26146   3.744   9.001  14.191  0.1410 -0.2327  0.1415
11016W        W26147   5.727  10.591  11.575 -0.0543  0.0435 -0.1651
11017W        W26148   0.841   5.762  15.346 -0.0095 -0.1254  0.0336
11018W        W26149  12.937   2.371   5.347 -0.2765  0.1707 -0.3510
11019W        W26150   7.013   8.432  11.363  0.0447 -0.2168 -0.2030
11020W        W26151  15.031   0.346   1.802 -0.0195  0.0156 -0.2694
11021W        W26152  12.070   0.603   4.075 -0.0093 -0.1027 -0.2403
11022W        W26153   9.107  12.073   3.864  0.2481 -0.0329  0.1082
11023W        W26154  15.930  10.524  15.951  0.0679  0.2099 -0.1300
11024W        W26155   5.998  11.540   3.916  0.1087 -0.0255 -0.0141
11025W        W26156  14.790   3.489  15.540 -0.3049  0.0492  0.0283
11026W        W26157  15.345   7.389  11.312  0.0847  0.1181 -0.0795
11027W        W26158  16.468  12.664   5.888  0.3268 -0.0162 -0.1337
11028W        W26159  16.094   4.938  11.650 -0.0225 -0.2865 -0.0021
11029W        W26160  12.278   1.257   5.995 -0.0274  0.0080 -0.4310
11030W        W26161   0.307   8.489   3.147  0.1172  0.0630  0.0333
11031W        W26162   7.465   5.958   1.707  0.0444 -0.3584  0.1868
11032W        W26163   9.221   9.458  14.983 -0.2747  0.0895 -0.0173
11033W        W26164   8.050   0.095  12.305  0.1407 -0.2297 -0.1612
11034W        W26165   6.453  11.377  12.542 -0.0862  0.1723  0.0542
11035W        W26166  17.373  12.165   3.495 -0.1565 -0.1047  0.4806
11036W        W26167   6.999   8.344   1.234  0.0724 -0.0466 -0.3130
11037W        W26168  10.540  10.136  13.929  0.0867 -0.0397 -0.1497
11038W        W26169   4.774   9.926  14.122  0.0453  0.5061  0.0288
11039W        W26170  10.643  14.240   0.154 -0.1709 -0.0198  0.1527
11040W        W26171   2.023   4.974  13.294 -0.0646 -0.0189  0.1058
11041W        W26172  16.169   0.081   6.118  0.3493 -0.1435  0.1733
11042W        W26173   0.828  15.314   5.384  0.0097  0.0447 -0.1141
11043W        W26174   4.218  17.037  15.538 -0.0336  0.1132  0.1044
11044W        W26175   0.921   7.373   2.921 -0.0874 -0.0208 -0.3431
11045W        W26176   4.076  15.088   0.440 -0.1148 -0.0610 -0.0234
11046W        W26177  15.703   3.974   5.214 -0.1148 -0.1358 -0.1287
11047W        W26178  13.901  16.459  13.675 -0.1081  0.0280 -0.0404
11048W        W26179   1.051  17.057   2.741  0.5236  0.2403  0.2699
11049W        W26180   8.929  10.544   3.085  0.0779 -0.1445 -0.3955
11050W        W26181   1.342   4.533  15.395 -0.0613  0.2083  0.2107
11051W        W26182   7.037   0.247  11.996  0.1665 -0.4596  0.0619
11052W        W26183   0.235  17.690   1.334  0.0376  0.1787  0.1431
11053W        W26184   4.101   1.638  16.265 -0.2313  0.2853 -0.0764
11054W        W26185  14.050   3.397  14.807 -0.0207  0.0976  0.1839
11055W        W26186   0.419  15.151  11.723 -0.0607  0.2988  0.2113
11056W        W26187   0.775  12.608   0.819  0.0681  0.1842  0.1097
11057W        W26188   0.087  14.762  16.445 -0.0057 -0.0890 -0.0601
11058W        W26189   3.309  13.802  13.785  0.2407 -0.2078  0.0519
11059W        W26190  15.850   1.310  15.352  0.0164 -0.1352 -0.3418
11060W        W26191   2.944   3.665   3.003 -0.0219  0.0198  0.0422
11061W        W26192  17.184  15.193  15.658  0.0631 -0.0978  0.0150
11062W        W26193  12.440  15.215  15.200  0.0823 -0.0195  0.3257
11063W        W26194   4.471  13.423   1.495 -0.0433 -0.0268  0.1009
11064W        W26195   5.752   0.199   3.821 -0.3395 -0.2881  0.4144
11065W        W26196   2.604  13.822   1.103 -0.0727  0.0384 -0.0717
11066W        W26197  14.001   3.206   2.519 -0.0834  0.0576 -0.0276
11067W        W26198   7.246   3.795   4.700  0.1680 -0.1840 -0.1064
11068W        W26199   2.190   2.326  16.795  0.1751 -0.3889 -0.2733
11069W        W26200   6.994   7.965   0.426 -0.2549 -0.0491 -0.2844
11070W        W26201   1.016   9.539  13.060 -0.1197 -0.2550 -0.1619
11071W        W26202   5.388  15.783  13.219  0.3293  0.2252  0.1151
11072W        W26203  13.899   3.753  16.477 -0.0720 -0.1712  0.1849
11073W        W26204   0.764   3.619   2.066 -0.1093 -0.0297 -0.1889
11074W        W26205  10.477   9.330  11.871 -0.2411 -0.0913 -0.1667
11075W        W26206   9.907  10.560   5.617 -0.3561 -0.0598  0.0698
11076W        W26207   5.788   1.737   2.677  0.1368  0.0634 -0.2149
11077W        W26208   5.630   1.344   2.963  0.0424 -0.0210  0.1173
11078W        W26209  17.571   4.149  12.414 -0.2712  0.1804 -0.1279
11079W        W26210   9.193   8.873  14.677 -0.2290  0.1231 -0.1350
11080W        W26211  13.359  11.991   4.345 -0.0795 -0.1488 -0.0628
11081W        W26212   5.522   6.032  15.868 -0.0475  0.0386 -0.1007
11082W        W26213  10.210   3.277  12.522  0.0563 -0.2328  0.0038
11083W        W26214   9.342   9.693   4.558 -0.0890 -0.0140  0.0783
11084W        W26215  15.286   7.981  13.050  0.4229 -0.0929 -0.2633
11085W        W26216   4.021   6.097  12.939  0.0137 -0.0808 -0.1101
11086W        W26217   3.001   4.122   2.440  0.1458  0.2214 -0.3036
11087W        W26218  14.639   6.334  14.322 -0.0076 -0.3236 -0.1309
11088W        W26219  12.927   1.790  12.666  0.1028 -0.0428 -0.3026
11089W        W26220  13.776  17.123  13.827  0.1321 -0.1176 -0.1034
11090W        W26221  12.623   9.118   0.107 -0.1114  0.0178  0.0888
11091W        W26222   3.142  10.580  14.875  0.0326  0.0221 -0.0462
11092W        W26223  11.299  14.924  11.980 -0.0546  0.0468  0.1695
11093W        W26224   7.442  16.787  16.463 -0.0358  0.2109  0.1565
11094W        W26225   6.882  14.576   0.114  0.1602 -0.3037  0.4512
11095W        W26226   8.815  14.155   2.854  0.1141 -0.3148 -0.3004
11096W        W26227  11.334  15.766  13.919  0.1262 -0.1368  0.2801
11097W        W26228   2.248  12.939  14.311 -0.3803  0.0053  0.0637
11098W        W26229   8.609  12.657   2.872  0.2217 -0.0206  0.3033
11099W        W26230  11.678   2.517  11.152  0.1080  0.0175  0.1863
11100W        W26231  10.147   0.582   5.939 -0.1848  0.0338 -0.0735
11101W        W26232   6.509  14.920   1.471  0.0773  0.0704 -0.0930
11102W        W26233  10.083   5.311  15.855 -0.2428 -0.0654 -0.2092
11103W        W26234  10.795  15.782   4.788  0.0688 -0.2628 -0.1103
11104W        W26235  15.129   7.207   3.359  0.0818  0.1736 -0.0561
11105W        W26236  12.547   1.567  14.543 -0.0180 -0.2296 -0.2184
11106W        W26237   3.777   2.072   2.537  0.0374  0.2654 -0.0379
11107W        W26238   2.843   6.441   4.559 -0.2131  0.0674  0.0280
11108W        W26239   9.594  12.480  15.066 -0.2398 -0.2634 -0.1184
11109W        W26240  12.763   9.579   0.553 -0.0053  0.3180 -0.0946
11110W        W26241   1.357   9.495   2.028  0.1528 -0.1014 -0.0305
11111W        W26242  12.341   1.383   2.424  0.1571  0.1185  0.0802
11112W        W26243  15.291  11.469   5.204 -0.3020 -0.1524  0.1034
11113W        W26244  16.923  16.150   4.979 -0.1687  0.0468  0.0718
11114W        W26245  14.261  12.876   1.821 -0.2224  0.1392 -0.1206
11115W        W26246  11.281   1.664  16.744  0.5470  0.0069 -0.2619
11116W        W26247   4.166  15.811  11.726 -0.0896  0.0657 -0.0281
11117W        W26248  12.379   4.880  16.238  0.0427 -0.0451 -0.2351
11118W        W26249  11.704  17.314   3.306  0.0020  0.0178  0.0153
11119W        W26250   5.194   8.852   3.510 -0.1736 -0.2046 -0.0391
11120W        W26251   1.816   7.451   1.544 -0.0281 -0.0530 -0.0731
11121W        W26252   6.651  13.941   2.855  0.1012  0.1742  0.0159
11122W        W26253  11.604   9.684  13.646  0.3214  0.1483 -0.0037
11123W        W26254  10.349   6.328  12.926 -0.1365 -0.1062  0.1067
11124W        W26255   8.738   4.536   5.254  0.2588 -0.0198 -0.0996
11125W        W26256  14.606   9.866   5.853  0.0470  0.2140  0.1789
11126W        W26257  11.127   5.470  10.885  0.2582  0.1229  0.0594
11127W        W26258   3.652  12.521  14.270 -0.0057  0.0272  0.0471
11128W        W26259   0.720  13.476  11.901  0.2526 -0.2314 -0.0903
11129W        W26260   4.707  12.301  13.464 -0.1907 -0.3471  0.2420
11130W        W26261   7.142   0.058  13.964  0.0903  0.1847  0.2321
11131W        W26262   0.578  14.877   1.218  0.1605  0.4427  0.0925
11132W        W26263  12.769  13.642   5.121  0.1092 -0.1038 -0.1366
11133W        W26264   3.756   8.882  10.672  0.1433 -0.0052  0.1485
11134W        W26265  17.711  14.446  14.086  0.0657  0.0568  0.1073
11135W        W26266   7.639   7.784   5.316  0.1355  0.1153  0.1444
11136W        W26267  17.285  15.708  15.533 -0.0085 -0.0672 -0.2765
11137W        W26268  13.188   0.262  16.410 -0.2215  0.0544  0.0594
11138W        W26269  16.173   6.026  15.980  0.0219  0.0377  0.2073
11139W        W26270  15.383   0.343  13.906  0.1130  0.1360 -0.2616
11140W        W26271   0.475  10.989   5.210 -0.2106 -0.3628 -0.2647
11141W        W26272   9.884   0.022   1.364 -0.0283 -0.0092  0.1590
11142W        W26273   1.958  13.119  16.057 -0.1165  0.1876 -0.1726
11143W        W26274   9.721   9.655   2.678 -0.2083  0.2433 -0.0705
11144W        W26275   1.052  10.068  13.725 -0.2311 -0.0026  0.3358
11145W        W26276  13.531   2.802  14.815  0.1948  0.1486 -0.0766
11146W        W26277  16.565   9.171  15.126 -0.1132  0.0656 -0.2717
11147W        W26278   0.533   3.934   1.077 -0.0723  0.0297 -0.3400
11148W        W26279   0.027   9.328  12.237 -0.2026 -0.1195 -0.1558
11149W        W26280  10.003   0.045  11.980  0.0045 -0.2063 -0.0924
11150W        W26281  17.462   3.264   2.288 -0.0315  0.0561  0.0721
11151W        W26282   8.497  12.675   3.728 -0.1168 -0.0861 -0.3353
11152W        W26283   5.344   6.897  12.936 -0.0196 -0.0227  0.1573
11153W        W26284  12.367   5.088   4.293  0.0249 -0.1694  0.0205
11154W        W26285   3.066   1.645  12.574  0.0749  0.0091  0.0951
11155W        W26286  11.880   3.201  13.323 -0.1429  0.0886 -0.1113
11156W        W26287  10.985  15.268   3.282  0.0762 -0.2174 -0.3061
11157W        W26288  11.663  13.921  16.039  0.0536  0.1783 -0.3083
11158W        W26289   1.249   6.828  10.785 -0.1297 -0.0260  0.0545
11159W        W26290   2.153   6.009   5.951  0.0044 -0.2774  0.0675
11160W        W26291   8.627  16.956  16.292  0.0862 -0.0577  0.1679
11161W        W26292  14.156  15.758   0.445 -0.3106 -0.1562 -0.1837
11162W        W26293   5.193  14.578   3.745  0.0690 -0.0030  0.1389
11163W        W26294   1.412   4.918  13.978  0.1074 -0.3738  0.2191
11164W        W26295   7.247   2.724   5.205 -0.0595  0.1412 -0.0163
11165W        W26296   8.814   5.998   0.480 -0.3955 -0.1341 -0.3264
11166W        W26297  15.650   1.973   3.584  0.1179  0.4561  0.0461
11167W        W26298   1.368  16.631  13.182 -0.1480  0.0111  0.0526
11168W        W26299   4.825   0.983   2.491  0.0829 -0.3192 -0.0795
11169W        W26300  10.481   1.437   4.011  0.0103 -0.0376 -0.0649
11170W        W26301   1.882   2.563  11.732 -0.2359  0.3021  0.3526
11171W        W26302  15.613   6.987  11.050  0.3343  0.1516  0.1788
11172W        W26303   2.048   6.545   5.258 -0.1853 -0.1822 -0.1659
11173W        W26304   2.905   9.650  11.779 -0.0774  0.0956  0.2497
11174W        W26305   3.094   8.916  16.257 -0.1554  0.3776 -0.1047
11175W        W26306   2.025   1.782  12.319  0.2088 -0.2180 -0.2188
11176W        W26307  13.754  10.299  16.214 -0.0240 -0.1916  0.0453
11177W        W26308   5.702  15.010  14.352  0.1368 -0.2374 -0.0603
11178W        W26309   7.127   7.716  14.793  0.1486  0.2355  0.1507
11179W        W26310   7.623  14.337  14.350  0.2777  0.1396 -0.3350
11180W        W26311  10.798  15.313  16.376 -0.0423 -0.3040  0.3905
11181W        W26312  12.149   8.399  13.856  0.1145 -0.0863 -0.0934
11182W        W26313   8.293  17.362  12.599  0.0782 -0.2750  0.3941
11183W        W26314  16.399  17.512   1.991 -0.1947 -0.3079  0.1636
11184W        W26315  12.894  14.090  15.010  0.1077 -0.0650  0.0012
11185W        W26316   5.134  11.917   1.278 -0.2102  0.1348  0.2759
11186W        W26317  10.447  14.749   2.195  0.1809  0.2981 -0.0313
11187W        W26318   6.053  10.003   2.967 -0.0314 -0.2710  0.3806
11188W        W26319   5.568   9.888  15.290  0.0539  0.0794 -0.1957
11189W        W26320  14.349  16.472   1.222  0.2514  0.2445 -0.0457
11190W        W26321  16.662   1.380   5.155 -0.1866  0.3091 -0.0436
11191W        W26322  11.506   0.930  11.244 -0.0159 -0.0871 -0.0747
11192W        W26323   6.906   5.273  12.829 -0.1937 -0.1414  0.1323
11193W        W26324   0.990  14.614  13.319 -0.4315 -0.0717 -0.1440
11194W        W26325   9.165   1.102   2.789  0.1950 -0.1283 -0.0969
11195W        W26326  17.182   7.700  13.738 -0.1106 -0.2954 -0.1354
11196W        W26327   7.157   9.563   2.272 -0.1519  0.0492 -0.2498
11197W        W26328   3.971   6.619   3.274 -0.2554 -0.2681  0.2137
11198W        W26329  16.420  17.597  12.030  0.1735 -0.1241  0.0985
11199W        W26330  10.919   4.749  13.098  0.0455  0.1356  0.2631
11200W        W26331  12.483   8.474  16.172  0.0264 -0.1849 -0.1068
11201W        W26332  12.939   2.340   4.820  0.3691 -0.3044  0.3723
11202W        W26333  12.317   7.069  11.257  0.2249  0.1348 -0.0275
11203W        W26334   4.363  16.826   3.629 -0.0561 -0.1637 -0.0668
11204W        W26335   4.217   0.973   3.384 -0.1447  0.0572 -0.1168
11205W        W26336  10.404  11.976  15.835 -0.1708  0.1121  0.1342
11206W        W26337   9.597  17.071   1.280 -0.0705  0.0106 -0.3847
11207W        W26338   6.448  12.999  12.769  0.0888  0.1698  0.1146
11208W        W26339   6.258  12.097   3.287 -0.2201  0.2317  0.1195
11209W        W26340   6.375   9.717   4.328 -0.3561  0.0717  0.0509
11210W        W26341   1.044   2.426   0.022 -0.1237 -0.0481 -0.2135
11211W        W26342   6.103  11.407  13.812 -0.0187 -0.0589  0.1460
11212W        W26343   8.695   1.026   5.790 -0.1248  0.0633 -0.4020
11213W        W26344  13.831  13.499   2.286  0.3755 -0.0010  0.1222
11214W        W26345   0.137   8.836   4.180  0.2409 -0.2058  0.1133
11215W        W26346   5.736  12.415   5.874  0.3111 -0.0062  0.1525
11216W        W26347  13.133   5.515  16.398 -0.0469 -0.0137 -0.0901
11217W        W26348   2.688   9.975  13.871 -0.2790 -0.0031  0.0570
11218W        W26349  11.198   4.406  16.715 -0.0009  0.0400 -0.0394
11219W        W26350   2.353   8.781   0.731 -0.0507  0.0262  0.0639
11220W        W26351  17.655  17.184   4.093 -0.0553  0.2235  0.0817
11221W        W26352  12.003   3.903  15.210  0.2950 -0.0625  0.0153
11222W        W26353   9.856  16.216   0.119  0.1368 -0.5505  0.3547
11223W        W26354   1.476   6.188  13.692  0.1939  0.0409 -0.0708
11224W        W26355   1.734   9.563  11.625 -0.3818 -0.1160 -0.1463
11225W        W26356   0.969   0.185   5.598 -0.4089 -0.0555  0.0316
11226W        W26357   8.930  13.236   3.273 -0.0695  0.2259  0.1791
11227W        W26358  15.643   7.047  11.588 -0.1288 -0.1330  0.0615
11228W        W26359   8.306  13.795  11.068 -0.0686 -0.0584  0.0812
11229W        W26360  11.439  15.744   0.798 -0.3006  0.1565  0.2132
11230W        W26361   7.945  15.318   3.034 -0.2031  0.1435 -0.0894
11231W        W26362  15.453   4.722   3.507 -0.1378 -0.3370 -0.0752
11232W        W26363  14.820   7.218   3.789  0.0271  0.0518 -0.1452
11233W        W26364   4.927   0.237   4.269  0.1084  0.0588 -0.0277
11234W        W26365   0.015   4.861  13.769  0.0227 -0.1609  0.2719
11235W        W26366   3.740   3.014  11.905  0.2029 -0.0617  0.1580
11236W        W26367  11.846   0.932   0.754 -0.0042 -0.2998  0.1783
11237W        W26368  15.407  12.406   0.540 -0.0892 -0.3393  0.3192
11238W        W26369   8.436  17.418   0.866 -0.2819  0.1458 -0.3105
11239W        W26370  14.627  12.217  11.986  0.0301 -0.2340  0.0060
11240W        W26371  17.206   8.032   0.167  0.1644  0.0394 -0.2699
11241W        W26372  13.296   2.367  15.438 -0.1374  0.0378  0.1362
11242W        W26373  15.710  17.087   5.997  0.3539  0.1678 -0.0117
11243W        W26374  11.142   8.857   0.139 -0.1275  0.1213  0.1239
11244W        W26375   5.035   8.449  15.579 -0.0307 -0.0495  0.2435
11245W        W26376  12.992   7.158  12.105  0.1941  0.1900 -0.2339
11246W        W26377   3.859   8.546  11.139  0.4032 -0.0407  0.2285
11247W        W26378   5.809   9.209  11.651 -0.1177 -0.1547  0.0454
11248W        W26379   9.937   6.498   3.787  0.1338  0.1268 -0.2011
11249W        W26380   8.079  15.650   3.417 -0.2631  0.3400 -0.1041
11250W        W26381   2.887   5.931   4.605  0.1973  0.2115 -0.0337
11251W        W26382   6.463   3.962   2.059 -0.0972 -0.0205  0.1949
11252W        W26383  14.926   9.894  11.317 -0.5254  0.1512  0.0348
11253W        W26384   0.968  16.110   4.870  0.2533  0.0052  0.4041
11254W        W26385  10.067  10.041   4.433  0.2695 -0.0963 -0.0790
11255W        W26386  14.845   2.096   5.914 -0.0761 -0.1537 -0.0195
11256W        W26387   1.446   4.615   4.952  0.1757 -0.0374 -0.1213
11257W        W26388   0.961  13.577   5.316  0.2664 -0.0898  0.1769
11258W        W26389  11.599   6.135  15.113  0.1986 -0.1781  0.0725
11259W        W26390  11.904  16.481  16.574  0.0784 -0.2392  0.1432
11260W        W26391  15.715   6.330  16.241  0.0026 -0.0494  0.1598
11261W        W26392   4.859   6.309  12.070  0.0895  0.1625 -0.1605
11262W        W26393   7.747  14.454   4.371  0.1490  0.2205 -0.1916
11263W        W26394   9.096  17.662   0.267  0.0489 -0.3346 -0.0788
11264W        W26395  11.475  15.364  14.177  0.1444  0.0604 -0.3321
11265W        W26396  15.796   9.275   5.447  0.1950 -0.0516 -0.0754
11266W        W26397  13.465   7.836   4.203 -0.1777 -0.1258 -0.0345
11267W        W26398   8.768   9.696   0.298 -0.2152 -0.0093 -0.0713
11268W        W26399  10.105  15.743   5.874  0.1108  0.1296 -0.1809
11269W        W26400   6.750  15.677   2.711 -0.2527 -0.4677  0.1171
11270W        W26401   8.562  17.584  10.846 -0.1376  0.0099  0.3202
11271W        W26402  16.276  13.968  11.635 -0.0288  0.1351  0.2825
11272W        W26403  17.486   4.341   0.581 -0.0177 -0.0934 -0.0100
11273W        W26404   4.208   4.701  15.016  0.1901  0.1923  0.2105
11274W        W26405   9.343  12.107  11.559 -0.2384 -0.2721  0.1810
11275W        W26406  10.259   0.984  14.414  0.2801  0.1509  0.1467
11276W        W26407  13.429   5.100  11.986  0.0097 -0.0698  0.0341
11277W        W26408   7.048  15.604  15.348  0.0951  0.1489 -0.1306
11278W        W26409   6.629   9.987   2.922 -0.1354 -0.1599  0.1349
11279W        W26410  12.058   4.429  14.305  0.1765  0.0848 -0.1932
11280W        W26411   4.365  16.230   4.709  0.1084  0.0011 -0.2078
11281W        W26412   4.892   0.829   0.594 -0.1468 -0.0149 -0.1015
11282W        W26413   8.827  10.338  15.359 -0.0664  0.1919  0.0093
11283W        W26414   2.487   7.850  13.217 -0.1522 -0.0572 -0.1279
11284W        W26415   2.009   1.866  13.234  0.1892 -0.0810 -0.3174
11285W        W26416   9.450   5.247   4.123 -0.0601  0.2156 -0.1189
11286W        W26417   5.785   1.994   0.678 -0.0216  0.0415 -0.1981
11287W        W26418  17.598   0.207  10.464 -0.0550  0.2049 -0.2011
11288W        W26419  14.904   5.522   3.955  0.4524 -0.0665 -0.0513
11289W        W26420   2.426   9.473  16.695 -0.2985 -0.1603 -0.0298
11290W        W26421   8.445  13.324  13.623  0.0540  0.0231 -0.0250
11291W        W26422  11.121  14.141  16.251  0.0132  0.0755 -0.0916
11292W        W26423   9.317   6.604  12.642  0.0336  0.1508 -0.0027
11293W        W26424   6.724  17.280   4.738 -0.0037 -0.3133  0.0274
11294W        W26425   2.623   9.164  12.910 -0.1966 -0.0239 -0.3652
11295W        W26426   2.166  15.128   4.467  0.1445  0.0436 -0.0214
11296W        W26427  14.478  11.600  15.781  0.1420 -0.0789 -0.0521
11297W        W26428   7.391  14.698  15.276 -0.1509 -0.4070  0.0591
11298W        W26429   5.280  13.894   5.003  0.1469 -0.3108  0.0552
11299W        W26430  14.404  14.295  13.878  0.1861  0.1460 -0.0599
11300W        W26431   0.800   1.945   3.560  0.2617  0.2855  0.0828
11301W        W26432   5.333   3.226   1.862  0.2798  0.1885 -0.2519
11302W        W26433   8.490  14.108   3.242  0.0959 -0.1336  0.1410
11303W        W26434  14.020   2.502  15.347 -0.0698 -0.2057 -0.2754
11304W        W26435   1.066   7.001  16.612 -0.1390  0.1345  0.2738
11305W        W26436  11.294  13.792  15.697  0.2086  0.0355 -0.1547
11306W        W26437   4.250  11.645  16.239  0.2648  0.1710  0.2304
11307W        W26438  12.445   1.691   4.798  0.1949  0.1599  0.1142
11308W        W26439   1.519   2.206  11.404  0.0375 -0.1370 -0.0412
11309W        W26440   9.181  16.235   1.899  0.0855  0.0665 -0.1005
11310W        W26441   6.937   1.660   4.604  0.1154  0.0327  0.1793
11311W        W26442  13.876  15.509   2.179 -0.0695 -0.0166  0.1900
11312W        W26443  16.561  15.261   3.423  0.0242  0.1043 -0.0265
11313W        W26444   3.163  13.296   1.855 -0.2044 -0.0219 -0.1432
11314W        W26445  17.447  14.985   2.319  0.0006  0.2470  0.0269
11315W        W26446   2.933   8.550   1.428 -0.0888 -0.0272  0.1342
11316W        W26447   5.025  13.685   5.385  0.0484  0.1309 -0.0796
11317W        W26448  10.611   2.565   1.826  0.1431  0.0910  0.1652
11318W        W26449  15.524  14.710   5.390 -0.0362  0.4662 -0.3504
11319W        W26450   8.044  10.192   4.440 -0.1677 -0.1249  0.1748
11320W        W26451  10.577   5.018  15.845 -0.0701  0.0987  0.0265
11321W        W26452  14.991   6.320  13.939 -0.1787  0.0700  0.1739
11322W        W26453  13.525  17.713   1.139  0.3056 -0.1528  0.1265
11323W        W26454   2.195   1.791   3.211  0.0742 -0.0247 -0.0553
11324W        W26455   6.399   0.560   0.414  0.0376  0.3211  0.0590
11325W        W26456  13.378   8.538   4.542 -0.1542 -0.1911  0.1716
11326W        W26457  16.115   4.180   5.879  0.0081 -0.0715  0.0871
11327W        W26458  16.558   2.592   1.561 -0.2201 -0.1963 -0.2044
11328W        W26459  14.241   2.653  12.654  0.0033  0.2292 -0.1536
11329W        W26460  11.534  12.258  14.638  0.1541  0.0563 -0.0612
11330W        W26461   2.704  12.388   5.608  0.2542 -0.0434  0.1369
11331W        W26462   9.445  12.092   2.297  0.3241 -0.0858 -0.1078
11332W        W26463   8.678   5.895   5.775  0.1125  0.1947  0.1019
11333W        W26464  17.394   6.580  13.491  0.3179 -0.1451  0.0629
11334W        W26465  12.216   1.778   3.313  0.1442 -0.0608 -0.0099
11335W        W26466  14.112  10.652   4.773 -0.1001  0.0873 -0.0103
11336W        W26467  10.125  10.070   5.310  0.5407  0.1265 -0.0437
11337W        W26468   8.986   5.533  11.704  0.0595 -0.0758 -0.2228
11338W        W26469   6.366  10.455   2.930  0.0519 -0.1835 -0.1028
11339W        W26470   6.444  14.969  16.438  0.0998 -0.1406  0.0316
11340W        W26471   6.375   0.600  16.069 -0.0932 -0.0831 -0.0278
11341W        W26472   3.405   6.144   1.031  0.2495 -0.2278 -0.2699
11342W        W26473   5.178   5.263  11.881 -0.2364 -0.0960 -0.3962
11343W        W26474   0.749  15.278   0.783  0.0514 -0.0873 -0.2116
11344W        W26475   6.708  16.981  15.046  0.0450  0.1182 -0.0424
11345W        W26476   0.816  14.166  13.386  0.1581 -0.2048 -0.1369
11346W        W26477   0.628   5.318  15.366  0.0629  0.2272 -0.2714
11347W        W26478   0.854   8.734   5.725  0.0373  0.1421 -0.1063
11348W        W26479   9.584   6.274   5.933  0.1556 -0.0902  0.0360
11349W        W26480  16.562  15.459  14.189 -0.0065  0.3090 -0.0751
11350W        W26481   2.331  16.733  11.579  0.3711  0.2403 -0.3811
11351W        W26482  15.389   3.549  13.652 -0.0274  0.1435  0.0535
11352W        W26483   2.131   1.325   1.411 -0.0812 -0.2410  0.0200
11353W        W26484  14.243  11.009  16.145 -0.2394 -0.1475 -0.1898
11354W        W26485   2.022  15.939   4.081 -0.0426 -0.4514  0.3000
11355W        W26486   5.596   4.698  15.341  0.1350 -0.1465  0.0492
11356W        W26487  12.662  16.082   1.872  0.0136 -0.0224 -0.1857
11357W        W26488  15.735   9.247  16.812 -0.0338  0.1009  0.5428
11358W        W26489   3.763  17.050   3.534  0.0922  0.1348  0.1780
11359W        W26490   9.956  13.706  16.358  0.2708  0.0823 -0.0431
11360W        W26491  10.226   6.503  13.402 -0.1874 -0.1833  0.0405
11361W        W26492   4.824   6.262   0.585  0.0201 -0.1465 -0.2895
11362W        W26493   1.326   4.332   0.960 -0.0126 -0.3060 -0.2188
11363W        W26494   7.351  11.017   3.651  0.0693  0.0438 -0.0813
11364W        W26495   7.745  15.170   4.671 -0.0183  0.0312 -0.0186
11365W        W26496   6.594   1.813  12.770 -0.1165  0.0510 -0.0597
11366W        W26497  17.192   3.222   3.640  0.0937  0.0951 -0.1172
11367W        W26498  13.063   7.664   1.237 -0.1702  0.2126  0.0864
11368W        W26499   6.477   0.636   2.172  0.2485  0.2655  0.0108
11369W        W26500  10.997   5.668  12.894 -0.0075 -0.1066  0.0004
11370W        W26501  13.933   0.448  16.022 -0.0789 -0.1701  0.0295
11371W        W26502  14.479   5.159  16.197 -0.1389 -0.0781 -0.1045
11372W        W26503   5.649  16.884   0.912 -0.0475 -0.0530 -0.1452
11373W        W26504   5.132  10.458   1.117  0.0199 -0.2047  0.2398
11374W        W26505   0.357  13.724   4.077 -0.2578  0.0528 -0.0219
11375W        W26506   1.255   0.571  14.212 -0.0026  0.2978  0.2136
11376W        W26507  12.572  11.642  15.893 -0.2187  0.0960  0.1893
11377W        W26508   1.227  14.999   5.466  0.1611  0.3238 -0.1595
11378W        W26509   0.984   6.686   4.669 -0.0132  0.3048 -0.1078
11379W        W26510   4.415  17.217   3.974 -0.2872  0.1133 -0.0747
11380W        W26511  10.090  10.270  14.091 -0.0069 -0.1210 -0.1613
11381W        W26512   5.410  16.121   0.198  0.2683 -0.0241  0.0447
11382W        W26513   1.483  16.651   0.339  0.1720  0.0721 -0.0948
11383W        W26514   8.725  15.692   4.056 -0.2056 -0.0038  0.3288
11384W        W26515   5.500  13.570   1.006  0.0286  0.0744 -0.3130
11385W        W26516  10.512   7.829   3.678 -0.0218 -0.1769 -0.2977
11386W        W26517   2.976   6.306   2.949  0.0787  0.2626  0.0896
11387W        W26518   6.577  13.667   3.261  0.1494  0.0871  0.1481
11388W        W26519   7.280  15.314   0.418  0.1366  0.0990 -0.1785
11389W        W26520   9.020   1.459  13.994 -0.0446  0.0004  0.1381
11390W        W26521   1.197   3.013   2.255  0.1330 -0.1496  0.2588
11391W        W26522   2.932  15.511   0.751 -0.0648  0.1640  0.2105
11392W        W26523  14.045   3.617  14.368 -0.0255  0.1753 -0.2587
11393W        W26524   3.919   7.142   4.035 -0.0362  0.0374 -0.0926
11394W        W26525  11.865  13.233   0.055 -0.0766  0.1629  0.2106
11395W        W26526  14.111  17.632  16.525  0.1207 -0.2107 -0.1096
11396W        W26527  16.309   8.095  10.922 -0.2469 -0.1010 -0.0255
11397W        W26528  10.512  16.071  14.223  0.0984  0.1288 -0.0665
11398W        W26529  17.349   1.785   4.218 -0.3761  0.1069 -0.3233
11399W        W26530  17.106   7.038  12.285 -0.3381  0.0766  0.0186
11400W        W26531  16.241  14.877  15.897 -0.0435 -0.0413 -0.1851
11401W        W26532   2.102  11.063   1.082 -0.0116  0.2333 -0.3111
11402W        W26533   9.183   0.833  16.276  0.0131 -0.0336  0.2877
11403W        W26534  11.565   1.972   2.718 -0.1691 -0.0119  0.1868
11404W        W26535   1.483  17.558  13.083  0.3567 -0.1279 -0.1505
11405W        W26536   8.532  13.130   0.863 -0.1902  0.1078  0.2429
11406W        W26537   1.118  13.163   1.405  0.2880  0.1049 -0.3083
11407W        W26538   4.743   5.119   1.936  0.1240  0.3641  0.1890
11408W        W26539   0.913  14.632  14.281 -0.1468 -0.0177 -0.2270
11409W        W26540   7.162   3.883   2.654  0.2809  0.2670 -0.0238
11410W        W26541   1.040   4.836   1.804 -0.0693  0.0180  0.1817
11411W        W26542  12.057   4.196   3.957  0.2187 -0.1897 -0.2652
11412W        W26543  10.725   5.358  11.762  0.2189  0.1603 -0.1923
11413W        W26544  17.321  12.325   2.007 -0.0132 -0.0614  0.0234
11414W        W26545   2.281   4.922  13.763 -0.2661 -0.0373 -0.2911
11415W        W26546  14.276   2.670   4.933 -0.0982  0.2460 -0.0161
11416W        W26547  10.264   0.266   1.181  0.2472 -0.0874 -0.4501
11417W        W26548   0.763   0.466   4.325 -0.2257 -0.0908  0.0076
11418W        W26549   0.795  12.233   1.109  0.0573  0.1818 -0.1779
11419W        W26550   2.725   2.813  11.358  0.0539  0.1118  0.1656
11420W        W26551   5.280   9.098   0.308  0.1807  0.2314 -0.2648
11421W        W26552   3.807  12.855   5.692  0.0491  0.1878  0.0620
11422W        W26553   0.466   9.957   1.969  0.0582  0.1561 -0.2047
11423W        W26554   7.731   0.270  16.291 -0.0483 -0.1053  0.2622
11424W        W26555  12.079   9.001  12.633 -0.4952 -0.0105  0.2453
11425W        W26556   2.418  17.223  13.544  0.0469  0.0797  0.0960
11426W        W26557  13.579   4.334   4.032 -0.0668  0.1586  0.2030
11427W        W26558   8.495   3.637  15.740  0.2143 -0.1118 -0.0983
11428W        W26559  10.644  12.291   1.256  0.0787 -0.0574 -0.3024
11429W        W26560   3.899  17.327   3.923 -0.0771  0.1122  0.0561
11430W        W26561   0.133  10.453   4.426  0.0782  0.1987  0.0939
11431W        W26562  16.931  16.711  12.126  0.2229 -0.1097  0.1045
11432W        W26563  12.052   3.472   3.798  0.0234  0.4127 -0.0358
11433W        W26564   1.147  15.884  16.328  0.1855  0.1273  0.1101
11434W        W26565   4.151  10.598   1.537  0.0236 -0.0436  0.4247
11435W        W26566   8.122  12.454  11.421  0.2782 -0.0905 -0.2172
11436W        W26567   9.707   8.469  16.537 -0.2139 -0.2703 -0.0491
11437W        W26568   3.095  15.694  13.816  0.1253 -0.0890  0.1944
11438W        W26569   3.460   6.434   3.270  0.0127  0.0776  0.0798
11439W        W26570  13.347   2.574   3.941  0.1074  0.1091  0.0403
11440W        W26571   4.671  15.455  14.969  0.0516 -0.1741  0.2992
11441W        W26572   5.517   5.019   0.146  0.0469 -0.1680 -0.2255
11442W        W26573  12.629   6.350   0.165 -0.0865 -0.5805  0.0466
11443W        W26574   6.704  12.163  13.749  0.0414 -0.0648 -0.0522
11444W        W26575  13.661  13.438   3.404  0.0755  0.0880 -0.0573
11445W        W26576   1.388   5.952  14.132 -0.0022 -0.0805  0.1129
11446W        W26577  15.504  17.469   0.270 -0.2373 -0.0466 -0.0052
11447W        W26578  16.449  11.599  13.476 -0.0460 -0.2059 -0.0547
11448W        W26579  15.590   1.735  14.147 -0.2447  0.0734 -0.4853
11449W        W26580   9.489  10.312  15.381  0.0148  0.1810  0.0135
11450W        W26581   7.304   1.806   5.975  0.0464  0.1700 -0.0956
11451W        W26582   9.980   0.134   5.438  0.2413 -0.0712 -0.1661
11452W        W26583  14.384   7.250   0.762 -0.3256 -0.2340 -0.0214
11453W        W26584   1.584   0.102   2.618 -0.1935  0.0464 -0.2595
11454W        W26585  13.738  17.158  12.311 -0.0687 -0.0552 -0.0219
11455W        W26586   7.820   2.661  11.492 -0.0428 -0.2347 -0.0591
11456W        W26587  11.633   4.725  14.625 -0.1995  0.0468  0.0028
11457W        W26588   9.230   9.884  12.557  0.0114  0.2035 -0.2057
11458W        W26589  10.922   9.111  14.897  0.1071  0.0332  0.0589
11459W        W26590   5.784  14.460  14.454  0.0101  0.1627  0.1432
11460W        W26591   1.026  14.271  12.937  0.1150 -0.1538 -0.3255
11461W        W26592  15.815  10.986   3.782 -0.2029  0.2430  0.2495
11462W        W26593  15.693  15.625   5.555  0.0484 -0.2607  0.1992
11463W        W26594   1.825   4.628  13.626 -0.2706  0.0866  0.1048
11464W        W26595   4.071  12.926  13.102 -0.1374  0.2410  0.0521
11465W        W26596   0.590   6.335   4.964  0.2043 -0.2219  0.0372
11466W        W26597  11.721   3.207  16.771  0.2636  0.0938  0.0884
11467W        W26598  11.633  17.315  12.554 -0.0704  0.0022 -0.3575
11468W        W26599  11.439  11.764   5.095  0.1288  0.0564  0.0348
11469W        W26600   1.200  11.658  11.692 -0.1929  0.2891  0.0332
11470W        W26601   5.118   6.918  13.971 -0.1277 -0.0790  0.1472
11471W        W26602   2.503  13.009   2.398 -0.0217  0.1536  0.0006
11472W        W26603   6.353   1.577  16.132  0.0871  0.0286  0.1339
11473W        W26604   8.203  11.792   1.249  0.1318  0.2065  0.0578
11474W        W26605  13.494   4.519  14.928  0.4601 -0.1432 -0.1564
11475W        W26606   7.145  13.424   0.271  0.5693  0.1352  0.1139
11476W        W26607  13.649   1.833   0.276  0.1864  0.2384  0.0039
11477W        W26608   8.116  13.791   6.906 -0.0277  0.2391  0.3974
11478W        W26609  12.224  13.979   2.201  0.0796 -0.0735  0.0849
11479W        W26610   8.615  10.270  16.382 -0.2533  0.0469  0.2477
11480W        W26611   8.302   0.823  13.773 -0.1725 -0.1163  0.0117
11481W        W26612   0.852   5.180   0.705 -0.2524  0.0341 -0.0227
11482W        W26613   1.587  14.982   4.865  0.1090 -0.0880 -0.0453
11483W        W26614  16.113  16.067  13.915  0.0706 -0.0243 -0.0932
11484W        W26615   4.497   8.502   5.554  0.0310  0.2983 -0.2327
11485W        W26616  15.143   8.570  13.841  0.2226 -0.1175 -0.1233
11486W        W26617  10.550   2.955   0.128  0.3626 -0.1330 -0.0422
11487W        W26618  13.607   9.386  14.164  0.0819  0.0734  0.0407
11488W        W26619  10.138   3.592   0.882  0.0236  0.1779  0.2611
11489W        W26620   2.526   1.605   4.175 -0.0914 -0.2227 -0.0778
11490W        W26621  14.033  12.755   0.589  0.0545  0.0412  0.2470
11491W        W26622   0.470  15.892   3.195 -0.1020  0.0961  0.0847
11492W        W26623   4.540   9.530  13.109 -0.2483  0.0377 -0.1413
11493W        W26624  17.348   2.577   1.797 -0.2420  0.2075  0.0068
11494W        W26625   2.213  13.204   1.022 -0.2777 -0.2450 -0.1122
11495W        W26626   0.434  14.457  13.177  0.0409  0.2343  0.0875
11496W        W26627   6.136   2.982  15.596 -0.1140  0.0882 -0.2054
11497W        W26628   2.315   4.838  16.879  0.1808  0.1760  0.0403
11498W        W26629   5.730   2.143  12.904  0.0462 -0.1396  0.0645
11499W        W26630  15.096   2.532  13.324  0.1882 -0.1054  0.2362
11500W        W26631   2.107  14.361  10.603 -0.2142  0.1571 -0.2200
11501W        W26632   9.178   8.751   1.146 -0.3618  0.0887 -0.2947
11502W        W26633  14.149   7.381  12.908 -0.1091  0.2951 -0.1942
11503W        W26634   3.776  12.325  16.213  0.1810 -0.0991 -0.1102
11504W        W26635  16.153  10.338   3.193 -0.0619 -0.1118 -0.0638
11505W        W26636   6.323   6.804   1.348  0.1622  0.0946  0.1555
11506W        W26637   3.522  17.023  16.232 -0.1990 -0.0415  0.1775
11507W        W26638   9.025  11.730  14.776  0.2180 -0.2166  0.1940
11508W        W26639   7.212  12.462   1.644  0.1306 -0.1112  0.1833
11509W        W26640  17.038   9.057   0.165  0.3000 -0.1514  0.0922
11510W        W26641  14.633   3.501  12.527 -0.3376 -0.0362  0.1834
11511W        W26642  13.697   5.459  15.260  0.0375 -0.1332  0.1035
11512W        W26643   1.658   6.600  14.606 -0.2741 -0.0634  0.1066
11513W        W26644   1.840   8.724  12.491  0.1696  0.0550  0.2457
11514W        W26645  13.128  11.341  13.037 -0.3111  0.0986 -0.1156
11515W        W26646  14.636  16.334  15.906 -0.5262 -0.0812  0.1487
11516W        W26647  17.389   6.456  16.190 -0.0167  0.0424  0.3167
11517W        W26648  12.963   1.126  16.930 -0.2041  0.3143 -0.0136
11518W        W26649   2.274   7.934   3.756  0.1992 -0.1816 -0.0320
11519W        W26650   3.163  11.675   1.747 -0.0043 -0.1850  0.1551
11520W        W26651  16.455   4.272  11.018 -0.1866 -0.1703 -0.1909
11521W        W26652  13.553   2.091  12.098 -0.0320  0.0898  0.1453
11522W        W26653   6.524   0.325  16.487  0.1244  0.0890 -0.1504
11523W        W26654   1.120   8.602   0.163 -0.0667  0.1006 -0.0391
11524W        W26655   4.589   0.632  14.055 -0.1229  0.1231  0.0561
11525W        W26656   3.790   0.793  13.258  0.0521 -0.0768  0.2466
11526W        W26657  12.700   9.503   3.761  0.0176 -0.2455 -0.2536
11527W        W26658  17.502  13.315   4.530 -0.1440  0.0170  0.0230
11528W        W26659  17.593  13.996  13.927 -0.0765 -0.0701  0.3185
11529W        W26660   6.073   7.381  10.773 -0.1419  0.1743  0.1034
11530W        W26661  12.175  12.330  15.342 -0.0021  0.1341  0.0534
11531W        W26662   3.090   9.924  15.916  0.1216  0.0689  0.1492
11532W        W26663  11.873  15.265   1.112 -0.1316  0.0649  0.2050
11533W        W26664   0.593  11.635  13.771  0.1241 -0.3998  0.3709
11534W        W26665  14.610   4.529   0.031  0.1982 -0.2112 -0.2956
11535W        W26666   0.012  13.853   3.698  0.0900 -0.0432  0.2437
11536W        W26667  16.191   1.315  12.975  0.2580  0.1041 -0.0302
11537W        W26668   5.747  15.303   5.430 -0.1375  0.1115 -0.0548
11538W        W26669   3.252   0.741   5.802 -0.0464  0.0143 -0.1804
11539W        W26670  14.060   6.481  12.650  0.0725 -0.1535 -0.1355
11540W        W26671   9.932   2.191  13.181  0.1464 -0.0937 -0.0070
11541W        W26672   5.494   1.176  13.271 -0.2456 -0.2598  0.2095
11542W        W26673   1.553   0.265  12.666 -0.0284  0.0223 -0.0954
11543W        W26674   4.952   7.202  14.907 -0.0815  0.0294 -0.0360
11544W        W26675   0.362  16.029   4.035 -0.0232  0.2102 -0.0441
11545W        W26676   0.696  10.072  14.622 -0.0453 -0.3102 -0.0299
11546W        W26677   7.359   7.546   1.022  0.0858  0.0754 -0.3299
11547W        W26678  10.182  13.590   5.876 -0.2004 -0.0696 -0.1226
11548W        W26679   2.207   8.897   3.234  0.1274  0.0102  0.0952
11549W        W26680   1.191  13.224  13.296 -0.0302  0.1583  0.0026
11550W        W26681   7.979  16.333  14.053  0.1693 -0.2591  0.2298
11551W        W26682  14.864  15.300   2.458  0.1413 -0.1772 -0.3709
11552W        W26683   7.799  15.782  15.740  0.1652 -0.0219  0.1219
11553W        W26684   6.618   5.757   2.382  0.2499 -0.2008 -0.2079
11554W        W26685   8.267  13.107  14.956  0.0348 -0.3992 -0.1174
11555W        W26686   2.027   2.123  13.711 -0.1796  0.2246  0.0443
11556W        W26687   7.152   0.034  15.594 -0.1336  0.1932 -0.0424
11557W        W26688   3.370   6.589   2.061  0.7063 -0.1104  0.1343
11558W        W26689   1.890   8.579  13.236 -0.0201  0.2366 -0.3521
11559W        W26690  14.641   0.506   4.734 -0.2237  0.2291  0.1801
11560W        W26691  14.224   9.730   2.003  0.0001  0.2396  0.0757
11561W        W26692   6.829  13.041   2.365  0.1699  0.1420  0.1091
11562W        W26693  12.982   3.422   3.383 -0.0178 -0.2567  0.0293
11563W        W26694  15.791  10.260   5.523  0.3054  0.2076 -0.0308
11564W        W26695  10.243  17.467   5.537 -0.1605 -0.2110 -0.1715
11565W        W26696   5.966   9.682  14.947 -0.1611  0.0882  0.1693
11566W        W26697  13.043  10.856   4.180  0.3505 -0.0612 -0.0190
11567W        W26698  11.011   5.498   2.515 -0.0790  0.0575 -0.0602
11568W        W26699   1.921   5.969   2.652 -0.2870 -0.0489 -0.1804
11569W        W26700  14.106   1.248   3.668 -0.3160 -0.1279  0.1991
11570W        W26701   8.313   7.431  16.198  0.0513  0.1365  0.0343
11571W        W26702   9.586   0.135  15.852  0.0523 -0.1567  0.4143
11572W        W26703   1.839   4.561   2.090 -0.0045 -0.1792  0.1578
11573W        W26704  14.928  14.317   4.617  0.1120 -0.0898  0.1009
11574W        W26705   6.995  10.971  15.963 -0.2232 -0.0617  0.2433
11575W        W26706   8.547  10.729  15.569 -0.1195  0.1359  0.1256
11576W        W26707   1.285  15.431   0.132 -0.3559 -0.1915  0.1019
11577W        W26708   0.326  11.093  12.552  0.0010  0.0801  0.0338
11578W        W26709   2.304   6.253  15.319  0.0564  0.2166  0.1952
11579W        W26710   2.465  15.714  15.973  0.0201 -0.1055  0.1913
11580W        W26711  13.751   5.756   5.922 -0.2107  0.0309 -0.0075
11581W        W26712   8.737  17.061   1.925  0.2987 -0.0568  0.0800
11582W        W26713  12.577  10.930   2.973  0.0108 -0.0767 -0.1404
11583W        W26714  12.028  14.528  12.859  0.2570  0.2076 -0.0783
11584W        W26715   4.337   6.789  16.183  0.1366 -0.2857  0.1829
11585W        W26716  15.369   9.162  11.780 -0.1325 -0.1739 -0.1681
11586W        W26717   7.810  13.561   3.453  0.0685 -0.0258  0.0533
11587W        W26718   4.159   6.557   2.471  0.0988 -0.2892  0.3222
11588W        W26719  14.512  17.446  12.870 -0.1681 -0.0811 -0.0005
11589W        W26720  13.394  13.675   4.028  0.0585 -0.0069 -0.1094
11590W        W26721  13.766  10.777  13.239 -0.2413 -0.1790  0.0982
11591W        W26722  14.924   4.096   2.072 -0.1047  0.0048  0.1679
11592W        W26723  16.166  17.113  14.039 -0.1799 -0.1200  0.1000
11593W        W26724  16.773   1.425  16.505  0.3633 -0.1293  0.1037
11594W        W26725  17.548  16.788   2.017  0.2963 -0.0064 -0.1137
11595W        W26726  17.051   1.369   2.149  0.0540  0.0618  0.1256
11596W        W26727   7.751  14.325   0.281  0.0276  0.0053  0.1102
11597W        W26728   5.503   6.884  14.301 -0.2317  0.0971  0.3850
11598W        W26729  13.138   9.445  13.237  0.0719 -0.0724 -0.0624
11599W        W26730  12.200  11.899   4.350  0.0530  0.0580  0.3359
11600W        W26731   1.704   5.209   0.056 -0.2397 -0.0917  0.0697
11601W        W26732   3.405   5.216  16.903 -0.0127  0.1664  0.1229
11602W        W26733   8.250   7.014   0.216 -0.0980 -0.0167 -0.1710
11603W        W26734   0.039  15.175   3.023 -0.0307 -0.2671  0.2945
11604W        W26735  13.591  16.652   4.575 -0.0800  0.1125 -0.1360
11605W        W26736   4.911   8.554   6.207 -0.0031  0.0696 -0.1944
11606W        W26737  11.143  11.604  16.129  0.0013 -0.1789 -0.1160
11607W        W26738  11.403  16.665  14.850  0.1888 -0.1883 -0.0550
11608W        W26739   8.870  11.781  11.672 -0.1247  0.1207 -0.1273
11609W        W26740   2.264   9.329   1.401 -0.1234 -0.1450 -0.2456
11610W        W26741   3.671  10.741   1.482 -0.2685  0.1621 -0.0171
11611W        W26742  13.969   4.631  12.451  0.0436 -0.2467 -0.0787
11612W        W26743   0.460   6.986   4.843 -0.0423 -0.0321  0.2603
11613W        W26744  10.797   9.040   4.834 -0.1874  0.0773 -0.1489
11614W        W26745   7.286  14.666   0.403  0.4952  0.0725 -0.0770
11615W        W26746   0.274  15.559  15.672  0.2964 -0.0737  0.0646
11616W        W26747  15.813  14.900  16.146 -0.1091  0.6615 -0.1996
11617W        W26748  17.374   2.583   4.242 -0.0724 -0.0301  0.0617
11618W        W26749   7.777  15.695  12.244 -0.1434 -0.0372  0.2198
11619W        W26750  11.452   6.905   4.191  0.1819 -0.0552  0.0170
11620W        W26751   7.570  10.033  13.587  0.0796  0.0875  0.2364
11621W        W26752   8.774  10.482   2.254  0.2949  0.1367  0.2396
11622W        W26753  11.511   6.860   5.643 -0.2099 -0.0782 -0.0335
11623W        W26754   1.430  13.732   3.104 -0.1100 -0.0433 -0.0776
11624W        W26755  13.433   3.699   5.294  0.0296 -0.0165  0.4345
11625W        W26756  13.426  11.416   1.899  0.5429  0.0140  0.3692
11626W        W26757  10.358  14.659   4.377 -0.2134 -0.1408  0.2429
11627W        W26758   3.968  10.326   5.115  0.1641 -0.1163 -0.1461
11628W        W26759   4.691  17.419  13.222 -0.1609 -0.2861  0.0205
11629W        W26760   1.551  10.212   5.584 -0.2067  0.1400 -0.1187
11630W        W26761  14.607   3.777  11.124  0.1430  0.0374 -0.1554
11631W        W26762  15.039   4.042  15.040  0.0713  0.1652  0.0211
11632W        W26763   7.402   0.024  12.416 -0.1032  0.0173  0.0795
11633W        W26764  11.678   3.878   5.516 -0.2352  0.1378 -0.0550
11634W        W26765  11.144  11.740   2.884  0.0713 -0.3281 -0.0409
11635W        W26766   1.883   5.405   0.561  0.3386 -0.0664 -0.1068
11636W        W26767   9.559   0.651  15.928 -0.1109 -0.1510 -0.0330
11637W        W26768  13.444  10.971  12.860  0.2570  0.2309  0.3966
11638W        W26769  10.873   6.475   5.778 -0.2004  0.2121  0.1289
11639W        W26770  15.528  15.407  12.712  0.2339 -0.0953 -0.0882
11640W        W26771   3.472   5.471  13.528 -0.0022  0.0774 -0.0671
11641W        W26772   9.454   5.678   2.005 -0.0129  0.0696  0.1130
11642W        W26773  13.208   2.006  13.113 -0.1009  0.2589  0.0440
11643W        W26774   0.276  15.495  12.259 -0.1899  0.1818  0.2265
11644W        W26775  12.113  16.736   0.480 -0.3342  0.0232 -0.1409
11645W        W26776  11.294   9.799   5.219  0.1404 -0.1444 -0.2025
11646W        W26777  10.482  11.439  13.421  0.1864 -0.1189  0.0535
11647W        W26778  12.058  16.494   3.059  0.0370  0.0495 -0.0536
11648W        W26779  12.612   0.267   4.694  0.0954  0.0305  0.0406
11649W        W26780   7.230  16.951  12.662  0.0650  0.0573  0.1194
11650W        W26781   0.931   5.916  11.749  0.0534 -0.1781 -0.1215
11651W        W26782  10.344  12.074   5.158 -0.1624  0.1871  0.0129
11652W        W26783  14.593  15.949  12.633  0.1280 -0.0265 -0.3318
11653W        W26784   8.865  13.586  14.490 -0.3105 -0.0500 -0.4449
11654W        W26785  14.040  16.709   2.010 -0.0442 -0.1421 -0.1112
11655W        W26786   2.627   3.869  12.370  0.4116 -0.2768  0.0633
11656W        W26787   4.587  16.327  16.596  0.2610  0.2351 -0.1925
11657W        W26788   6.676   0.563  12.820  0.1673 -0.0562  0.2172
11658W        W26789  16.571   9.916   1.190  0.1502 -0.1066 -0.4263
11659W        W26790   6.349   8.369   1.328  0.1593 -0.0014  0.3252
11660W        W26791   7.918   4.740  15.446 -0.2414  0.1337  0.1094
11661W        W26792  15.614  17.326  14.121  0.1921  0.1706 -0.1360
11662W        W26793  11.768  17.263   3.785  0.2294  0.0644  0.3655
11663W        W26794   2.702  13.255  12.560  0.0528  0.1153  0.3225
11664W        W26795  10.983  13.962  16.671  0.2522  0.3145 -0.4163
11665W        W26796   4.187  15.317  15.941  0.1545  0.0635  0.0461
11666W        W26797   5.280  13.513   0.004 -0.0955 -0.0575 -0.0236
11667W        W26798   9.901   4.637  13.523  0.0427  0.0471  0.1832
11668W        W26799  10.005   9.813   0.010 -0.1701  0.0145 -0.1025
11669W        W26800   2.738  11.438   1.833  0.1244  0.5285 -0.1626
11670W        W26801  11.402  13.442  13.543 -0.0266  0.4047  0.0844
11671W        W26802   5.065   6.742   2.643  0.0007  0.2812 -0.3427
11672W        W26803   1.314   2.202   4.850 -0.1306 -0.0337 -0.1938
11673W        W26804  16.668   4.007  15.999  0.1204 -0.1609 -0.1213
11674W        W26805   9.771   8.513  12.165  0.3381  0.0866  0.1951
11675W        W26806  14.430  13.244   6.019  0.2225 -0.1732  0.1682
11676W        W26807   0.689  10.423   5.190  0.4227  0.2492 -0.1837
11677W        W26808   9.762   9.073   6.130  0.0459 -0.0778  0.2642
11678W        W26809  11.315  11.290   1.048 -0.4132 -0.0257  0.1351
11679W        W26810  16.220  11.393   4.967 -0.1125 -0.1135 -0.0480
11680W        W26811  15.683  14.648   0.782  0.1157  0.0978 -0.1075
11681W        W26812  16.217  17.311  12.477  0.1970 -0.1459 -0.3056
11682W        W26813   1.978   0.663  16.448 -0.1119  0.0752  0.0486
11683W        W26814   9.831   5.701   1.175  0.2165  0.0282  0.1692
11684W        W26815   3.990  11.075   1.724  0.1670 -0.2306  0.0856
11685W        W26816   8.176   3.378  13.091 -0.1835  0.0142  0.0851
11686W        W26817   9.133   6.544   3.029  0.0034 -0.1336 -0.2681
11687W        W26818  15.743   2.859  11.443  0.0168  0.0060  0.0076
11688W        W26819  16.107   3.597  14.417 -0.0217 -0.1091  0.0433
11689W        W26820   7.238  17.016   4.961 -0.3036 -0.0638  0.2702
11690W        W26821   7.281  10.736   3.199 -0.0185 -0.0215 -0.0535
11691W        W26822   8.153  14.344  16.860  0.1593  0.0930 -0.2323
11692W        W26823   6.392   1.742  13.196  0.1267  0.1028 -0.0090
11693W        W26824  15.312  10.413  11.903 -0.1881 -0.0597  0.0247
11694W        W26825  15.083  12.769  13.072  0.3143  0.1870 -0.3668
11695W        W26826   3.963   6.465  16.068 -0.1039  0.3847  0.2129
11696W        W26827  11.357  11.564   1.969 -0.1545 -0.0047  0.0004
11697W        W26828   2.088  10.122  12.202 -0.1749 -0.1520  0.1116
11698W        W26829   8.792   2.120   2.028  0.0309  0.0391  0.0294
11699W        W26830   4.242   9.501  15.325  0.2343 -0.2575  0.3032
11700W        W26831   1.262   9.611   5.100 -0.1137 -0.0074  0.0871
11701W        W26832  10.798  17.579  13.129 -0.0267  0.1264 -0.0148
11702W        W26833   0.081   3.104  14.242  0.0801 -0.0953  0.2837
11703W        W26834   0.573  16.424  12.991 -0.1298 -0.1383 -0.0529
11704W        W26835   8.622  13.942  12.162 -0.2176  0.3521 -0.2305
11705W        W26836   4.606   7.331   1.098  0.0588 -0.4240  0.2071
11706W        W26837   1.564   5.459  15.503 -0.0665 -0.2209 -0.0105
11707W        W26838   8.961   6.877  12.000 -0.1153  0.0766  0.1276
11708W        W26839   7.434   1.282   2.965  0.0127  0.0124  0.1133
11709W        W26840  11.769  13.641   4.280 -0.1285 -0.0858 -0.1256
11710W        W26841   1.863   0.095  13.823  0.1723  0.0434 -0.0319
11711W        W26842  11.686   7.967   1.063 -0.1621  0.0738  0.6298
11712W        W26843  10.627   0.041   1.431 -0.1872  0.0720 -0.0407
11713W        W26844  10.790  12.750   4.173 -0.2066  0.0363 -0.3592
11714W        W26845   5.090  13.029   2.909  0.1188  0.1302  0.0025
11715W        W26846  11.420  13.404   5.659  0.4182  0.0983  0.0161
11716W        W26847   8.458   5.063   0.328  0.2806  0.2617  0.4256
11717W        W26848   1.910   8.981  13.585 -0.1264 -0.0134  0.1128
11718W        W26849  13.683   7.487   3.788  0.2450  0.1230  0.1341
11719W        W26850  12.272  12.011   1.410  0.1056  0.0608 -0.0133
11720W        W26851   8.399   5.881  15.829  0.1185  0.0177 -0.1828
11721W        W26852   6.387  16.714   4.238 -0.3234 -0.2033 -0.1205
11722W        W26853  16.902   3.180  11.824 -0.0767  0.1142 -0.0213
11723W        W26854   0.878  17.380   5.286  0.0987 -0.0841  0.0024
11724W        W26855   9.386  11.031   2.502 -0.3208  0.3154 -0.0187
11725W        W26856   7.540  11.284  13.942  0.2010 -0.3157  0.3628
11726W        W26857   2.609   7.014  14.185 -0.0684  0.0120  0.0007
11727W        W26858  15.354  17.392  15.535  0.1133 -0.0771 -0.1253
11728W        W26859   5.306   7.570   0.056  0.1294  0.1271 -0.1445
11729W        W26860   6.259  13.900   1.796 -0.1471  0.3345  0.3649
11730W        W26861  10.136  11.230   1.503 -0.3379  0.2615  0.1334
11731W        W26862  16.756   2.517  12.879 -0.0994 -0.0973  0.0660
11732W        W26863   4.953   4.432   4.231 -0.0939 -0.1780 -0.2094
11733W        W26864  17.267   0.389  16.351 -0.0768 -0.5421 -0.1837
11734W        W26865  11.495   3.527  13.714 -0.2145  0.2693 -0.0117
11735W        W26866  13.518  10.790   4.691 -0.2316 -0.3257  0.3773
11736W        W26867   3.451  12.097  16.677  0.3010 -0.3945 -0.3051
11737W        W26868   7.843  14.752   5.428 -0.2645 -0.0593 -0.0592
11738W        W26869   5.546   9.044   5.619 -0.2463  0.1645 -0.2339
11739W        W26870   6.339   5.469  10.775  0.2317 -0.1059 -0.0100
11740W        W26871  12.945   2.330  12.816  0.0314  0.1243  0.1885
11741W        W26872  14.568   3.937   5.490 -0.2322  0.0854  0.1596
11742W        W26873  14.913   1.738  12.048  0.0515 -0.0745 -0.1202
11743W        W26874  13.183   9.267  13.930  0.0198 -0.0852  0.0531
11744W        W26875  16.446  13.474   6.352  0.0663  0.0103 -0.1816
11745W        W26876   0.978   9.759   1.545  0.3061 -0.0795 -0.0161
11746W        W26877   7.012  16.592   0.797 -0.0903  0.0601  0.0347
11747W        W26878   4.182  16.015   0.191  0.1203  0.1024 -0.2289
11748W        W26879  15.882   5.057   5.866 -0.0867 -0.0477 -0.3008
11749W        W26880   3.949   9.003  13.712  0.0283 -0.2749 -0.2623
11750W        W26881   5.733   4.545  13.435 -0.1402 -0.0419  0.0384
11751W        W26882  12.071   2.633  11.541  0.0074 -0.0821  0.1133
11752W        W26883  10.814   9.685  16.787 -0.1919 -0.0213  0.1705
11753W        W26884   1.421  16.347  11.814  0.2717  0.2128  0.2030
11754W        W26885   8.157  14.402   5.571 -0.0787  0.3715  0.1245
11755W        W26886  10.819   1.971  16.061  0.0405  0.3884  0.1354
11756W        W26887   5.039   5.015  14.804  0.1797 -0.0081  0.0720
11757W        W26888  11.239   0.757  12.855  0.0927 -0.1152  0.0393
11758W        W26889  14.776   0.530   3.761 -0.0474  0.0399  0.0920
11759W        W26890   1.789   8.847  15.223  0.0606  0.0011  0.3318
11760W        W26891  12.607  17.118  13.168 -0.0045 -0.2062  0.0742
11761W        W26892  11.228   3.434   5.715  0.0275 -0.0273  0.1172
11762W        W26893   1.362   2.698   2.656 -0.0635 -0.2045  0.1709
11763W        W26894   9.357  15.624   0.482 -0.0027  0.0802  0.2704
11764W        W26895  17.448  15.321  14.361  0.0634 -0.1671 -0.1241
11765W        W26896   6.243   8.496   0.625  0.0200  0.0624  0.1676
11766W        W26897   9.057   7.892  11.879 -0.0188  0.1732  0.0078
11767W        W26898   3.556   3.876   2.371 -0.1547  0.2511  0.0580
11768W        W26899   9.531  17.358  15.705  0.0697 -0.2044  0.0372
11769W        W26900   2.259  13.581   5.180 -0.2088  0.1470 -0.3005
11770W        W26901   6.699  14.764  12.655  0.1777 -0.2699 -0.1036
11771W        W26902  14.808  12.169   3.003 -0.1301 -0.0727 -0.2349
11772W        W26903   1.253   1.370   0.971  0.1308 -0.0303  0.0408
11773W        W26904   9.931   2.691  10.847 -0.0095  0.1265  0.1351
11774W        W26905  15.934   7.446  15.524 -0.0284  0.1660  0.0859
11775W        W26906   7.569   3.486   4.902 -0.0291  0.0500 -0.0408
11776W        W26907  12.206   5.562   0.691  0.1128  0.3853 -0.0846
11777W        W26908   1.455  17.195   5.943  0.0054 -0.1398 -0.1369
11778W        W26909   7.581   5.861   0.135 -0.2702  0.1413 -0.3992
11779W        W26910  16.244   9.679   3.003  0.1121  0.1361 -0.6416
11780W        W26911  15.990  12.150   4.527  0.0728  0.0616  0.3189
11781W        W26912  15.825   5.343   4.643 -0.2087  0.0713 -0.0832
11782W        W26913  14.934  15.046  15.200  0.0271 -0.0968 -0.1537
11783W        W26914   2.437  12.835  14.818 -0.0675 -0.0599  0.1407
11784W        W26915  15.756  15.568  13.635  0.3308 -0.0805 -0.2168
11785W        W26916  15.158  10.157   0.158  0.2434  0.0608  0.1507
11786W        W26917  16.811  17.389  16.202  0.1525  0.0928  0.2263
11787W        W26918  10.040   3.886   4.996  0.0054 -0.1302 -0.1560
11788W        W26919  10.700   7.393  13.527  0.1496 -0.1096  0.0870
11789W        W26920   4.111   3.407   3.013  0.2202 -0.1860 -0.2356
11790W        W26921   6.510   9.096  15.687  0.0369 -0.3488 -0.3438
11791W        W26922  14.644  12.213  16.886 -0.0902 -0.0212 -0.0793
11792W        W26923  12.131  13.277  14.069 -0.2425  0.0718  0.0259
11793W        W26924   9.336   1.651   5.341 -0.2149  0.0069  0.1208
11794W        W26925   1.072   8.939   4.259 -0.2479  0.1052  0.1046
11795W        W26926   4.467   4.375  12.905 -0.0893 -0.0203 -0.1165
11796W        W26927  10.834  10.874  12.644  0.1398 -0.0488 -0.0631
11797W        W26928   1.865   0.669  14.189 -0.0654  0.0848  0.3054
11798W        W26929  13.673  14.995   5.531 -0.1200 -0.1813  0.2076
11799W        W26930   7.116  15.557  15.877 -0.0675 -0.0038  0.0855
11800W        W26931  11.417   6.263  12.669 -0.2144  0.2697 -0.0657
11801W        W26932   8.943   6.486   5.721 -0.1401  0.0221 -0.0750
11802W        W26933   9.949  15.958   2.631 -0.1125 -0.1438 -0.1419
11803W        W26934   1.120  10.937   3.271 -0.1637  0.0815  0.1157
11804W        W26935  16.575   1.821   3.991  0.0830  0.2254  0.1625
11805W        W26936  10.103  13.223  13.816 -0.3107 -0.1065  0.3375
11806W        W26937   5.198  16.255  13.347 -0.1654 -0.0152  0.0896
11807W        W26938   1.425  17.656   3.909  0.2479 -0.0686  0.3701
11808W        W26939   5.239  12.370  13.668  0.3318  0.0622  0.1713
11809W        W26940   4.992   5.226  12.386  0.0266  0.0806 -0.0827
11810W        W26941  14.578   3.553   4.539 -0.0442 -0.0362  0.2239
11811W        W26942   8.906  16.560   5.833  0.1156 -0.0534  0.1572
11812W        W26943   7.828  12.085   3.146 -0.2637 -0.1167 -0.1848
11813W        W26944   8.785  14.852  12.072  0.3410  0.0627  0.2561
11814W        W26945   7.036   1.955  16.797 -0.0646 -0.3492 -0.0395
11815W        W26946  13.639  13.061   2.410 -0.0923 -0.3271  0.2823
11816W        W26947  17.262   5.813  10.879 -0.0838 -0.1770 -0.0714
11817W        W26948  14.922   0.293  11.692 -0.0714 -0.0614 -0.0926
11818W        W26949  12.290   3.026  11.427  0.2725  0.1059  0.1248
11819W        W26950  15.490   5.341  11.211  0.0119 -0.1049  0.1062
11820W        W26951  11.621   2.380   1.958  0.0451  0.0095  0.2777
11821W        W26952  10.589   4.219   3.285 -0.0767  0.0957  0.0706
11822W        W26953  16.251   8.569   3.506 -0.0084 -0.1432  0.2392
11823W        W26954   1.927   6.767  11.909  0.4176 -0.1383 -0.2896
11824W        W26955  10.267   1.592   5.742  0.0063  0.3399  0.0147
11825W        W26956   2.481  12.786  15.834 -0.2279  0.0671  0.1194
11826W        W26957   8.168  12.702  14.410  0.1176  0.2229  0.2437
11827W        W26958   1.728   6.005  12.260  0.2185  0.0864  0.0968
11828W        W26959  10.624   5.421   1.236  0.2707 -0.0670  0.0777
11829W        W26960  15.822  10.197  14.241  0.1360  0.1120 -0.3111
11830W        W26961  10.587  12.857   0.272  0.0577 -0.3598 -0.0622
11831W        W26962   9.472   8.236  16.150  0.2006 -0.0459  0.1875
11832W        W26963   9.494  10.604   1.418 -0.1642  0.0157  0.3775
11833W        W26964  16.321   0.069  14.685  0.0019  0.1586 -0.1144
11834W        W26965   5.452  14.809   4.631 -0.0076 -0.2796 -0.1472
11835W        W26966   6.369   2.157   3.623  0.0482  0.1458  0.2708
11836W        W26967   5.027   8.724  13.816 -0.3061 -0.0602  0.3830
11837W        W26968   6.117   0.688   0.916  0.1982 -0.0189 -0.2352
11838W        W26969   8.794   2.267   1.516 -0.1099 -0.0583 -0.0319
11839W        W26970   4.581   9.123  10.880 -0.0807  0.2822 -0.1601
11840W        W26971  16.413   7.390   4.287 -0.2380 -0.0680  0.1111
11841W        W26972  13.105  15.845   5.462 -0.0191  0.0086 -0.1470
11842W        W26973  17.627   5.391  13.788 -0.0971 -0.3337 -0.0169
11843W        W26974   2.704   5.246   1.374  0.0968 -0.2130  0.0497
11844W        W26975   0.401  10.284  11.858  0.0788  0.1961  0.2490
11845W        W26976   8.375  10.117   4.772  0.1651 -0.3331 -0.0869
11846W        W26977  15.773   7.913   5.512 -0.0782  0.0613  0.1629
11847W        W26978   8.949  17.483   3.466  0.0512 -0.1182  0.0878
11848W        W26979   0.168  12.349  16.934  0.0314 -0.1127  0.0203
11849W        W26980   9.160   3.453  14.871 -0.0090  0.2583 -0.1754
11850W        W26981  15.900  11.386   2.490 -0.0372 -0.1747  0.0354
11851W        W26982   8.192   4.237  11.796  0.1946  0.0566  0.4628
11852W        W26983  13.666   3.645  13.401 -0.2681  0.1178 -0.0829
11853W        W26984   7.711   0.895   3.036  0.1052 -0.2617 -0.0813
11854W        W26985   6.265   7.941   0.822 -0.1535 -0.1491  0.1185
11855W        W26986   3.657   5.332   1.834 -0.1745  0.0780 -0.1000
11856W        W26987  12.170   8.389  13.288  0.2107  0.1959  0.0437
11857W        W26988   0.986   4.535   2.268 -0.0759 -0.0908  0.0761
11858W        W26989   1.982   1.040   2.250 -0.1259 -0.0868  0.0821
11859W        W26990  17.008  16.228   1.630  0.3051 -0.0889  0.0712
11860W        W26991  14.230   0.207   6.107  0.0002  0.2310  0.1124
11861W        W26992   7.623  14.429   3.808 -0.1115  0.1335  0.2860
11862W        W26993   0.555  11.140   3.709 -0.0704 -0.3134  0.2394
11863W        W26994   9.522   8.873  13.195 -0.0760  0.2764  0.0222
11864W        W26995   9.915  10.766  13.815 -0.2264  0.1974 -0.2024
11865W        W26996   0.653  15.271  13.645  0.0536  0.1351 -0.1895
11866W        W26997   1.924  10.836  15.061  0.0113 -0.2062 -0.0230
11867W        W26998   8.395  13.466  11.426 -0.0029  0.0104 -0.0169
11868W        W26999   8.386  17.250  15.316  0.1999 -0.3633 -0.1450
11869W        W27000   0.157   7.057   0.666  0.0869  0.0132 -0.1596
11870W        W27001  12.985   6.624  14.264  0.0874  0.1976  0.0671
11871W        W27002   2.041   5.762  16.518  0.3491  0.0557 -0.1246
11872W        W27003   5.228  14.402  11.137 -0.1667 -0.0421  0.1840
11873W        W27004  13.844   6.224   5.120  0.0293 -0.2831  0.1285
11874W        W27005   4.348  14.970  11.749  0.0958  0.1884  0.0936
11875W        W27006   6.745  15.262  15.602  0.3006 -0.2304  0.0579
11876W        W27007   6.616   9.517  12.161  0.2463  0.1812 -0.2895
11877W        W27008  10.367   5.974  14.091  0.5069 -0.0389 -0.0554
11878W        W27009   6.520   0.251  12.040 -0.0613 -0.2301 -0.0163
11879W        W27010  13.361   1.875   4.888  0.1861 -0.1934 -0.0273
11880W        W27011   6.293   5.737  11.219  0.0390 -0.3899 -0.0131
11881W        W27012   4.727   0.565   0.112  0.0094  0.3235 -0.0717
11882W        W27013   4.902  14.239   1.040 -0.0085 -0.1195 -0.0788
11883W        W27014   0.864  17.134  16.468  0.0105 -0.0290 -0.1796
11884W        W27015  14.586  15.456  14.959 -0.0131  0.2471 -0.0770
11885W        W27016   1.030  11.358   3.580  0.0534  0.1881  0.1962
11886W        W27017   1.000   2.037   4.026 -0.1108 -0.2630  0.0507
11887W        W27018  16.686   9.549   2.149 -0.0253  0.0881  0.1584
11888W        W27019  14.715  10.929  16.332 -0.0484 -0.3161 -0.3803
11889W        W27020   6.717  13.014   4.338 -0.0585 -0.1382 -0.1156
11890W        W27021   9.457  17.222  13.630 -0.0076 -0.0316 -0.0606
11891W        W27022   4.193   5.592  11.980  0.0207 -0.3052  0.1155
11892W        W27023   8.312  16.329  11.854  0.0874  0.1720  0.0651
11893W        W27024  14.571   8.137  16.716  0.1551 -0.0244 -0.0000
11894W        W27025   1.610   0.866   4.814  0.0603 -0.0849  0.0987
11895W        W27026   8.879   4.091   4.894 -0.0188 -0.0534 -0.0046
11896W        W27027   6.394  12.554   6.514  0.0166  0.0761 -0.2038
11897W        W27028  17.424  12.451   0.296 -0.3064  0.1394 -0.2239
11898W        W27029   5.434  16.440  14.433 -0.1934 -0.1497  0.1015
11899W        W27030   0.605   4.857   4.996 -0.2375  0.0787  0.2613
11900W        W27031  12.126   5.191   3.501 -0.1864  0.1435  0.1534
11901W        W27032   1.706   6.397  14.135 -0.0973  0.1497 -0.2150
11902W        W27033   0.146  12.415  15.489  0.0929  0.0072  0.0078
11903W        W27034   0.995   3.879   0.073 -0.1223  0.0103 -0.0608
11904W        W27035  10.640  11.195   5.899 -0.1082  0.2407 -0.1649
11905W        W27036   1.040   2.478   5.348  0.2176 -0.0076  0.0994
11906W        W27037  10.410  16.568   0.222 -0.2924  0.1674  0.2908
11907W        W27038  10.455  11.700   5.927  0.1284 -0.2212  0.3893
11908W        W27039   7.711  14.855   5.888  0.1431 -0.1391 -0.2069
11909W        W27040  15.379  15.919  11.753 -0.1570  0.0918 -0.1607
11910W        W27041   9.360  16.113   5.212  0.0840  0.1601  0.0228
11911W        W27042   7.373   7.624  14.404 -0.1543 -0.3132  0.1636
11912W        W27043   7.186  17.338   4.544 -0.0499 -0.1490 -0.0501
11913W        W27044   1.163  12.566   6.234  0.1666  0.1284  0.1314
11914W        W27045   3.175  13.299   5.245  0.0905  0.0591 -0.3843
11915W        W27046  17.364   0.718  14.432  0.4215 -0.0422  0.0491
11916W        W27047  13.078  14.378   0.226  0.1746  0.1586 -0.0217
11917W        W27048  10.084  16.764  14.728  0.0329  0.0274  0.1101
11918W        W27049   1.915  14.598  12.367  0.0356  0.0945 -0.0023
11919W        W27050   1.665   7.462   0.378 -0.1902  0.0350  0.3880
11920W        W27051   8.326  14.820  14.858 -0.1469  0.0284  0.0438
11921W        W27052   4.571   2.632  10.937 -0.1272  0.0874 -0.0095
11922W        W27053  13.571   1.153  13.115  0.1425 -0.2817  0.1420
11923W        W27054  16.840  14.252  15.558  0.1003  0.3537 -0.0207
11924W        W27055   3.231   6.823   1.671  0.0603  0.0712  0.3695
11925W        W27056  14.078   5.473  12.836  0.1225  0.1178  0.3139
11926W        W27057  10.702  16.143   0.216 -0.0027  0.1657 -0.0349
11927W        W27058  10.691  13.111  12.746 -0.0087  0.2758  0.0606
11928W        W27059   2.008   2.121   3.846 -0.0422 -0.0969  0.0003
11929W        W27060  11.605   3.152   1.315 -0.0877 -0.0674  0.1513
11930W        W27061  16.411   8.977  11.618  0.1350  0.0086  0.0926
11931W        W27062   7.416   8.432  16.032  0.0769 -0.1105 -0.2656
11932W        W27063  16.645   6.425  11.906 -0.0986 -0.0812  0.2464
11933W        W27064  11.513  14.820  14.183 -0.0343  0.1726 -0.1010
11934W        W27065   9.762   5.794   2.430  0.4123 -0.2530 -0.0190
11935W        W27066   5.433   7.237  16.612  0.1752  0.1609  0.2151
11936W        W27067   2.037   6.351   4.831  0.2973  0.2679 -0.0433
11937W        W27068  13.941   5.213  16.468 -0.0609 -0.3258 -0.0322
11938W        W27069   2.060  10.709   4.068 -0.2378 -0.3703 -0.0411
11939W        W27070   0.217   3.898  15.816 -0.1638  0.0788 -0.1007
11940W        W27071   7.968   7.624   3.608 -0.4461  0.0376  0.0357
11941W        W27072  13.312   2.692   0.620 -0.1093  0.2017 -0.0146
11942W        W27073  13.441  17.101   3.165 -0.0489  0.1570  0.1803
11943W        W27074   4.859   4.789   1.359 -0.0893  0.1266 -0.1552
11944W        W27075  12.539   5.235  10.920  0.0458  0.1353 -0.1221
11945W        W27076  12.810   4.265  11.631 -0.1221 -0.0459 -0.0359
11946W        W27077   8.578  15.378  13.304  0.1768  0.0753  0.1186
11947W        W27078   5.751   1.744   4.557  0.0593 -0.1439 -0.3868
11948W        W27079   5.581   8.803  12.401 -0.3521 -0.1566 -0.0086
11949W        W27080  13.134  15.231   2.137  0.0778  0.2053 -0.1490
11950W        W27081  13.369   7.321   4.156 -0.1697 -0.3610 -0.1540
11951W        W27082   9.021   1.596  13.075 -0.1685  0.0411 -0.2934
11952W        W27083  17.110  17.491  13.439 -0.1708  0.0621 -0.1459
11953W        W27084   6.674  15.776  16.382 -0.0208 -0.0133 -0.0740
11954W        W27085   9.094  14.768   2.982  0.0460  0.1790  0.0767
11955W        W27086   7.054   7.005  16.093 -0.0363 -0.1488 -0.1695
11956W        W27087  16.887   1.609   5.963  0.1673 -0.1044  0.0775
11957W        W27088   2.632   4.861   1.030 -0.2065  0.0904 -0.0125
11958W        W27089  13.743   5.156   3.789  0.2879  0.2146  0.0164
11959W        W27090  10.514   5.168   3.696  0.0544  0.1427  0.2734
11960W        W27091  16.491   9.101  14.020  0.4077 -0.0041  0.0227
11961W        W27092   4.241  15.426  11.999  0.1761 -0.2036  0.4482
11962W        W27093  16.005   2.003   1.357  0.1482  0.1833 -0.1052
11963W        W27094  10.721   2.424  13.804 -0.2616  0.1591 -0.0993
11964W        W27095   4.115  11.517   4.464  0.0800  0.0722  0.0751
11965W        W27096   4.291   8.240   4.272  0.0584 -0.0875  0.0358
11966W        W27097   9.364   3.134   0.870  0.0195  0.1446 -0.1679
11967W        W27098  15.209  14.396  14.263  0.1632 -0.3945  0.3010
11968W        W27099   5.144   0.213  15.395 -0.1686  0.1094  0.2417
11969W        W27100  15.859  15.572   4.605 -0.0656 -0.2017  0.4488
11970W        W27101   5.701  14.362   4.715  0.0297  0.0283  0.1973
11971W        W27102  13.929  14.062   1.546 -0.0707  0.1077 -0.0723
11972W        W27103   3.351   6.599  11.020  0.2712  0.1213 -0.2577
11973W        W27104   8.523  13.328   4.304  0.0104  0.0027  0.0784
11974W        W27105   1.034   5.351  12.142 -0.2419 -0.3638 -0.2077
11975W        W27106   0.880  12.377   1.669  0.0590 -0.2168  0.0690
11976W        W27107   7.315   0.922  15.699  0.1859  0.0975  0.2072
11977W        W27108  15.484   7.433  15.271 -0.0871 -0.1606  0.0367
11978W        W27109  12.672   1.103   2.852  0.0611  0.0426 -0.0726
11979W        W27110  11.563   2.383   0.351  0.1796 -0.1745  0.0031
11980W        W27111   3.155   5.142  14.034 -0.0344 -0.1668  0.2034
11981W        W27112  10.484  14.852   0.343 -0.0260 -0.3720  0.1545
11982W        W27113  16.778  16.401  10.817 -0.0344 -0.2942 -0.1567
11983W        W27114   5.540   7.561   5.789  0.1624  0.2107 -0.1486
11984W        W27115  10.658   0.048   6.707 -0.0074  0.2478  0.2353
11985W        W27116  11.706  13.211  12.458  0.0427  0.0288  0.0091
11986W        W27117   1.488   1.939  14.692 -0.2589  0.1434  0.0325
11987W        W27118  15.462  12.806  12.781  0.3614 -0.0329  0.1379
11988W        W27119  14.102  13.165   0.969 -0.4091  0.2375 -0.0009
11989W        W27120   1.707  14.067  16.493  0.0971 -0.2232 -0.2814
11990W        W27121   3.122  12.573  12.503 -0.1095 -0.0393 -0.1251
11991W        W27122  17.233  13.361   2.466 -0.2479 -0.3019  0.0089
11992W        W27123   2.070   8.529   2.759  0.1417 -0.0570 -0.0175
11993W        W27124   3.570   2.392  13.006  0.1304  0.0146 -0.2330
11994W        W27125   3.367  16.919   4.407 -0.1301  0.2437  0.0931
11995W        W27126   1.495  11.064   1.972 -0.1324  0.2101 -0.1745
11996W        W27127   9.080   7.996   0.656  0.2789  0.1189 -0.1951
11997W        W27128  10.160  14.039   1.512  0.3050  0.1379  0.1598
11998W        W27129   7.833  17.368   0.059  0.3065  0.0307  0.2769
11999W        W27130  14.191  14.303  11.854 -0.2665  0.0159  0.1638
12000W        W27131   2.393  12.144  14.239 -0.0130  0.3231 -0.1567
12001W        W27132   0.339   9.698  14.131  0.3594  0.2439 -0.3899
12002W        W27133  15.825  14.045   0.562  0.0548 -0.1842 -0.0977
12003W        W27134   1.575   7.154   2.572  0.0896 -0.0163 -0.0807
12004W        W27135  12.047  13.274   4.102  0.0051  0.4163 -0.0772
12005W        W27136  12.004  12.973  13.279 -0.0173 -0.1285 -0.0044
12006W        W27137  16.906   5.651  16.650 -0.3238 -0.0329  0.1038
12007W        W27138   6.034   0.947   0.379 -0.0746 -0.1026 -0.2092
12008W        W27139  17.582   1.434   2.108  0.0015  0.1919  0.1133
12009W        W27140  14.492  14.905   2.806  0.1868 -0.0421 -0.2297
12010W        W27141  16.438   4.924   1.689 -0.0306  0.0138  0.0895
12011W        W27142   2.001  11.062   2.539  0.2794 -0.2610 -0.3362
12012W        W27143  13.047   9.122  16.567 -0.1264  0.3488 -0.4865
12013W        W27144   5.645   3.813   5.800 -0.0862 -0.0266 -0.0425
12014W        W27145   3.935   5.139   5.698  0.0609  0.0209  0.0980
12015W        W27146   1.716  16.683   3.399 -0.2556  0.0374  0.3265
12016W        W27147   7.645   8.017   2.000  0.0693  0.3015  0.0526
12017W        W27148   1.273   9.699  14.011 -0.2582 -0.0425 -0.1498
12018W        W27149  14.796  17.011   2.987 -0.2025 -0.4442 -0.0510
12019W        W27150  14.103   0.218   2.925  0.1199 -0.1308 -0.0494
12020W        W27151  14.058  14.530   1.780 -0.0709  0.0964  0.4090
12021W        W27152   3.926   8.521  12.937 -0.0272 -0.1421 -0.1577
12022W        W27153   3.566  11.569  13.963 -0.3176 -0.1865 -0.0275
12023W        W27154  16.519  11.618   3.007  0.2758  0.1724  0.0984
12024W        W27155   9.984  15.594  13.460 -0.0198  0.2512 -0.2435
12025W        W27156   4.402  10.831   5.587  0.0469 -0.1454 -0.0022
12026W        W27157   2.304   3.211   2.569 -0.1222 -0.1980 -0.2098
12027W        W27158   1.410   8.421   4.206 -0.0112 -0.0934  0.1887
12028W        W27159  12.448   7.136  16.441 -0.1976  0.0671 -0.0009
12029W        W27160   3.205  16.829   4.859 -0.2923 -0.0894  0.1616
12030W        W27161  14.325   7.189  13.475  0.2267  0.2962  0.2563
12031W        W27162   5.932  15.532  12.055  0.3736 -0.2737 -0.0394
12032W        W27163  13.611   5.543  12.633 -0.0337  0.3661  0.1120
12033W        W27164   2.063   3.941   5.541 -0.1116 -0.2364  0.0397
12034W        W27165   4.397   5.720  13.686 -0.0061  0.2572  0.0545
12035W        W27166  12.598   8.360  13.060 -0.3686  0.2245 -0.0684
12036W        W27167  17.315   7.170   2.105 -0.0880  0.2023 -0.2549
12037W        W27168  17.303  12.063   2.564  0.5194 -0.1494  0.1777
12038W        W27169  12.906   4.293   4.590  0.0567  0.1911 -0.0941
12039W        W27170   5.027   2.729   2.656 -0.1768  0.2612 -0.0329
12040W        W27171   7.728  11.229   4.074 -0.0364 -0.3826 -0.2916
12041W        W27172  17.408  12.518  16.646  0.3185 -0.0222 -0.0301
12042W        W27173  11.464   1.479  16.326 -0.0554 -0.0054  0.2653
12043W        W27174  13.751  14.328  16.293  0.2572 -0.0328  0.0579
12044W        W27175   9.652   3.169  15.554 -0.1494  0.0366  0.1643
12045W        W27176   2.288   3.687   2.256  0.1320 -0.0972 -0.1350
12046W        W27177  12.756   3.168   0.040  0.2994  0.1554 -0.1460
12047W        W27178  15.224   4.954  13.040 -0.1718 -0.0252  0.2001
12048W        W27179   9.948  10.440   6.087 -0.2426 -0.0625 -0.1071
12049W        W27180   6.198  16.614  15.237  0.2059  0.0001 -0.0410
12050W        W27181  15.567  11.234   2.875  0.0981  0.0689 -0.0320
12051W        W27182  14.504   0.021   3.418 -0.1547 -0.0587 -0.0213
12052W        W27183  13.051   1.979  14.059 -0.2671  0.2135  0.2010
12053W        W27184   0.291  10.082   5.960 -0.0461  0.1744 -0.0541
12054W        W27185  11.579  11.349   4.234  0.0771 -0.0106 -0.2788
12055W        W27186  16.044  15.841  13.308  0.1128  0.2015  0.2707
12056W        W27187  11.896   6.987   3.884  0.3297  0.1011  0.1798
12057W        W27188   1.879  12.293   0.921 -0.3027 -0.1973 -0.1401
12058W        W27189  10.336  12.863  11.750  0.1674 -0.3822  0.3350
12059W        W27190   9.848  16.366   5.308  0.0383 -0.3234  0.2724
12060W        W27191  17.033   9.781   3.632  0.0243 -0.0939 -0.0565
12061W        W27192   4.564   5.588   1.813  0.0442 -0.0455  0.2124
12062W        W27193  14.635  13.986   4.099  0.0515  0.0096 -0.1307
12063W        W27194   7.664   2.056   3.604  0.1528 -0.2274  0.0014
12064W        W27195   2.559   3.028   3.220 -0.0031  0.1509 -0.0717
12065W        W27196  13.240   7.695  14.071  0.0440 -0.0644 -0.0014
12066W        W27197  13.404   6.013   0.919 -0.1891 -0.0610  0.0281
12067W        W27198  16.449   4.914  12.085 -0.0773  0.0068  0.1094
12068W        W27199  16.616  17.709   2.527  0.0232  0.2763  0.0769
12069W        W27200   5.596   4.269   0.528  0.3813 -0.1185 -0.0726
12070W        W27201  12.086  13.829  15.826 -0.2065 -0.0206  0.1455
12071W        W27202  14.443   9.221   0.547 -0.0923 -0.1494 -0.0960
12072W        W27203  10.237  11.178   0.368  0.1230  0.0220 -0.0850
12073W        W27204  10.883   1.328  12.626 -0.1003 -0.1865 -0.0355
12074W        W27205  17.632   7.963  12.915 -0.2399 -0.1432 -0.2392
12075W        W27206   0.998  14.326   0.039 -0.2413 -0.0801 -0.0564
12076W        W27207  15.073   7.001  11.160  0.2708 -0.1813  0.3216
12077W        W27208   0.991  14.844   0.944  0.0500  0.0413 -0.2382
12078W        W27209   8.174  14.397   0.440 -0.1667  0.1268  0.1158
12079W        W27210   3.696   3.587   4.916  0.0115  0.0479 -0.0592
12080W        W27211   5.310   4.248   3.473  0.0225 -0.2640  0.0434
12081W        W27212   1.676   8.213   2.567  0.2130  0.1110 -0.2838
12082W        W27213   3.198  11.481  11.634 -0.0685 -0.1709  0.1082
12083W        W27214   4.451   9.905   4.360 -0.2104  0.1333 -0.1354
12084W        W27215  15.860   3.673  16.254 -0.0485 -0.1696 -0.1248
12085W        W27216   5.981   4.133  14.188 -0.2784 -0.0014 -0.1962
12086W        W27217  14.831   9.021  15.737  0.0397 -0.0676  0.0500
12087W        W27218   2.683   3.052   4.563 -0.2381  0.0453 -0.1180
12088W        W27219   1.273   7.530  12.507 -0.0471  0.1850  0.1297
12089W        W27220  16.383   5.821  13.268 -0.0231  0.4742  0.4250
12090W        W27221   2.757   5.451   1.828 -0.1793 -0.0663 -0.3771
12091W        W27222  13.196  14.631   4.846  0.0916 -0.1136 -0.2168
12092W        W27223  13.381  13.220  15.974  0.0995 -0.1695  0.2746
12093W        W27224   2.295   0.120  13.484 -0.1368 -0.0227 -0.0531
12094W        W27225   1.949  15.627  14.518 -0.2491  0.1402  0.0032
12095W        W27226   9.541   7.264   0.916 -0.1226  0.2072  0.4845
12096W        W27227   2.870  12.125  11.327  0.0991 -0.1468 -0.0713
12097W        W27228  17.166   2.380  14.181 -0.1163 -0.1502 -0.0220
12098W        W27229  17.290  13.801  13.627  0.3016  0.1881 -0.0391
12099W        W27230  12.127  12.486  15.819  0.0896  0.2237 -0.2131
12100W        W27231   7.648   3.295   2.212 -0.1761  0.1372  0.0136
12101W        W27232   0.882   1.303   4.589 -0.1389 -0.0919 -0.1732
12102W        W27233  14.185   7.340  12.189 -0.1510 -0.2694  0.0654
12103W        W27234   2.297  16.413   5.770  0.2546  0.0422  0.0460
12104W        W27235   5.741  11.860   3.207 -0.1956  0.3616  0.0894
12105W        W27236   0.440  15.408   4.944 -0.1534  0.1617 -0.2426
12106W        W27237  15.063  10.299   1.101  0.2313  0.2141 -0.0086
12107W        W27238  13.499   8.969  16.781  0.1518  0.4101  0.0112
12108W        W27239  12.932  14.090   5.348  0.1390 -0.1588 -0.1329
12109W        W27240  13.566   0.089  11.646 -0.2648  0.1332 -0.1082
12110W        W27241   4.712  15.328  12.227  0.1215 -0.0395  0.2019
12111W        W27242  13.556   3.639  15.902  0.1698 -0.0930 -0.0636
12112W        W27243   2.300  13.599  15.390 -0.0450  0.0601  0.1152
12113W        W27244  11.066   2.638   5.017  0.1276 -0.1721 -0.2578
12114W        W27245  16.828  16.196  12.419 -0.2062 -0.1194 -0.0056
12115W        W27246  15.264   0.398  12.488 -0.1232  0.3168 -0.0808
12116W        W27247   4.797   3.068   5.433  0.1243  0.1329  0.0659
12117W        W27248  14.931  11.012   0.517 -0.2033  0.0875  0.0507
12118W        W27249   6.751  14.566  14.419 -0.3894  0.2721  0.3490
12119W        W27250   4.219   2.486   4.287  0.0246 -0.1700  0.2240
12120W        W27251  12.138  15.164   2.880  0.1323 -0.4692  0.1909
12121W        W27252  12.996  16.526   0.542 -0.0835 -0.4389  0.3515
12122W        W27253   4.804   1.497   4.939 -0.2380  0.1666 -0.2191
12123W        W27254   1.959   4.585   9.800 -0.3443  0.1133 -0.1622
12124W        W27255   6.490  14.638  13.914 -0.0779 -0.1389 -0.0892
12125W        W27256   3.940  13.983   4.940 -0.1483  0.1836 -0.2388
12126W        W27257  10.565   6.755  16.348 -0.1049 -0.2224  0.1710
12127W        W27258   5.578   2.096   1.113 -0.1426 -0.2760  0.0199
12128W        W27259  12.456   1.098   5.127 -0.0802 -0.1661 -0.1098
12129W        W27260   8.275   5.110  16.331 -0.6216 -0.3603 -0.1609
12130W        W27261  10.792  13.513  13.497  0.0146 -0.2723 -0.1675
12131W        W27262   1.325  15.361  13.371 -0.0088  0.2601  0.0301
12132W        W27263   6.620  16.494  14.071 -0.2671  0.0571 -0.0003
12133W        W27264   2.732  14.399   6.031 -0.0598 -0.2042  0.1554
12134W        W27265  10.521  17.236  12.965  0.1722 -0.0647  0.0370
12135W        W27266  10.315   2.548   3.802  0.0428  0.4592  0.1616
12136W        W27267  17.342   1.897   1.984 -0.0203 -0.1862  0.0100
12137W        W27268  14.505  15.745  15.364 -0.1292  0.0773  0.0969
12138W        W27269  17.663  12.885   4.762 -0.2407 -0.0894 -0.0935
12139W        W27270  12.962  13.441   0.305  0.0971 -0.1659 -0.0439
12140W        W27271   9.966  13.273  14.597  0.3117 -0.2864  0.1649
12141W        W27272  15.130   2.318  16.733 -0.3980 -0.4085 -0.0780
12142W        W27273   4.620   0.423  16.532 -0.1432  0.0367 -0.3632
12143W        W27274   7.752   1.164   1.543  0.0206  0.0838 -0.0959
12144W        W27275  11.058   8.877   5.708 -0.0214  0.1522  0.0102
12145W        W27276  17.236  15.992   2.360  0.3063  0.2308 -0.1501
12146W        W27277   5.232  12.968  11.837 -0.1613  0.1455  0.0017
12147W        W27278  15.618  13.099  13.738  0.1362 -0.1416  0.0838
12148W        W27279  10.948   8.705  13.524  0.0199 -0.4630 -0.1951
12149W        W27280   5.433   8.158  16.021 -0.0646 -0.1613  0.0741
12150W        W27281  14.286   0.202   0.563  0.0739  0.0285 -0.0935
12151W        W27282   9.464  16.550  16.257 -0.1653  0.0384  0.0516
12152W        W27283  11.147   9.374  13.753 -0.1113  0.0032  0.0377
12153W        W27284  11.517  17.527   4.085  0.2752 -0.0800  0.0581
12154W        W27285   5.858  12.975  12.933  0.2802  0.0466  0.0185
12155W        W27286  17.568   5.019  12.849 -0.1602 -0.3185 -0.2599
12156W        W27287  14.187  17.386  13.962 -0.2186  0.5426 -0.4635
12157W        W27288  12.087   7.053   2.754 -0.0939 -0.2096  0.1904
12158W        W27289   8.388  16.366   0.940  0.3074  0.0108 -0.3011
12159W        W27290  11.578   4.832   0.718  0.3503 -0.0391 -0.3077
12160W        W27291  10.545   1.443   3.167 -0.0672  0.0106  0.1391
12161W        W27292  16.169  13.696   0.666  0.0379 -0.1880  0.0023
12162W        W27293   9.716   6.112  11.936  0.0934 -0.0567  0.0323
12163W        W27294  15.523   9.628  11.834 -0.1911 -0.1693 -0.3351
12164W        W27295   0.037   2.344   1.586  0.1247  0.3643  0.0548
12165W        W27296   1.845  14.066  11.273  0.2094 -0.0536  0.0868
12166W        W27297  10.746  13.588   2.291 -0.0115  0.3849 -0.3395
12167W        W27298  17.576  11.115   5.841 -0.0018  0.0250 -0.1240
12168W        W27299   2.320   8.281  16.431  0.2032  0.0136  0.3646
12169W        W27300  10.758   9.574  14.777  0.0477  0.3744  0.1042
12170W        W27301  12.147   2.657  11.093 -0.2806  0.0362  0.2503
12171W        W27302   0.640  17.031  13.808 -0.0205  0.1848 -0.1931
12172W        W27303   4.011   3.618   4.469 -0.2558 -0.2508  0.4435
12173W        W27304   7.941   6.576   5.638  0.1890 -0.0613  0.2245
12174W        W27305  15.717   2.961   5.212  0.1009 -0.1796  0.2136
12175W        W27306   1.736  14.483  15.335 -0.1860 -0.1067  0.1357
12176W        W27307   1.463  10.648   1.569  0.2036 -0.0800  0.2134
12177W        W27308   2.228   4.437  11.945  0.1366 -0.2279  0.1403
12178W        W27309   0.442  16.167   0.785 -0.0724  0.2617 -0.3863
12179W        W27310  10.438   9.835   5.872  0.1429  0.2176  0.1606
12180W        W27311   0.150  14.895  15.195  0.2446  0.1591 -0.0529
12181W        W27312  15.351   9.566  14.592  0.0862 -0.2549 -0.1088
12182W        W27313  15.912   5.869  13.046  0.0337  0.0273 -0.0008
12183W        W27314  11.099  15.429  13.643  0.1902  0.0838  0.1101
12184W        W27315  16.329   9.867  10.639 -0.0946 -0.2005  0.0746
12185W        W27316  13.509  17.311   3.579  0.0488  0.3697  0.1024
12186W        W27317  12.832  12.916   3.630 -0.4610  0.0376 -0.1388
12187W        W27318   0.897  15.556   2.340  0.2764 -0.2669 -0.0165
12188W        W27319   5.014   5.046  14.081 -0.0931 -0.1618 -0.0425
12189W        W27320  10.869  10.224   5.625  0.0323 -0.0946 -0.2556
12190W        W27321   2.934   5.450   4.215 -0.1968  0.1250 -0.0032
12191W        W27322  15.217   5.146  16.876  0.0775 -0.0314 -0.1084
12192W        W27323  10.244   8.397   5.878 -0.1367  0.1157 -0.2479
12193W        W27324   5.916   2.161  11.546 -0.2386  0.1562 -0.0112
12194W        W27325  11.431  16.781  12.613 -0.1908 -0.0926 -0.1126
12195W        W27326   9.118   6.260   2.176 -0.0065 -0.1404 -0.4988
12196W        W27327   0.278  10.940   5.698 -0.0361 -0.6729 -0.3228
12197W        W27328  11.381   9.077   4.235 -0.3735 -0.1868  0.1721
12198W        W27329   2.525   0.215  15.521  0.0646 -0.0365 -0.0146
12199W        W27330  16.111   0.310  14.264 -0.2789 -0.3629 -0.0711
12200W        W27331  12.159  17.194   0.741 -0.2790 -0.1877 -0.0067
12201W        W27332   5.798   3.830   1.579 -0.2343 -0.0468 -0.0270
12202W        W27333  12.549   1.542   4.316  0.1073 -0.0435 -0.0890
12203W        W27334   1.209   3.024   0.791 -0.2616  0.2435 -0.0261
12204W        W27335   8.579  10.856  13.382 -0.1548 -0.2976 -0.3228
12205W        W27336  12.187  13.398  12.337 -0.1058  0.0353  0.1896
12206W        W27337   4.665  10.564   1.540  0.0109 -0.1781  0.0637
12207W        W27338  17.034   3.307   1.618 -0.1177 -0.3600  0.3897
12208W        W27339  12.287   2.487  14.407  0.1649 -0.2052  0.2396
12209W        W27340  12.526  17.599   4.980 -0.0919 -0.3641  0.0048
12210W        W27341  16.447   4.904  16.269 -0.0960  0.0352  0.1858
12211W        W27342   9.866  10.988  15.914  0.1934  0.1609 -0.1355
12212W        W27343  12.335   7.075   4.271 -0.2450  0.1744  0.0523
12213W        W27344   8.001  12.133  16.184 -0.0671 -0.1652  0.1286
12214W        W27345  13.666   4.953   0.279 -0.0787 -0.0080 -0.0055
12215W        W27346  16.261  14.891  15.306 -0.1200  0.2016  0.2662
12216W        W27347   5.629  11.209  15.297  0.1805 -0.1857 -0.3053
12217W        W27348   0.405   6.516  11.444 -0.1595 -0.0508  0.0645
12218W        W27349   9.537  14.169   3.755  0.1272 -0.1380 -0.0923
12219W        W27350  14.024  15.711   4.784 -0.2891 -0.1637 -0.0477
12220W        W27351   6.501  14.850   4.626  0.0484 -0.0357 -0.1572
12221W        W27352   7.087  16.278  11.913  0.0762 -0.3285 -0.1359
12222W        W27353   7.606   4.962  13.753 -0.2471  0.0650 -0.0524
12223W        W27354  15.904  14.885  13.350 -0.2520  0.0185 -0.0687
12224W        W27355  13.316  10.938  12.058  0.3020  0.2582 -0.2642
12225W        W27356   3.815  10.065  12.089  0.2081 -0.1382  0.0987
12226W        W27357   6.824   1.168  11.710  0.2148  0.0326  0.1387
12227W        W27358   3.812   5.077   1.293 -0.2317  0.0623  0.1266
12228W        W27359   6.808   3.265  16.220  0.0514 -0.1739 -0.4551
12229W        W27360  14.467  16.003  14.024 -0.1592 -0.1317 -0.2555
12230W        W27361   5.503   1.015  12.233 -0.0103  0.2131  0.0676
12231W        W27362   7.630   8.568  13.284 -0.1008  0.2491 -0.3095
12232W        W27363  10.790  12.722   1.090  0.2404 -0.2043 -0.2315
12233W        W27364   7.691  16.176   4.646 -0.0044 -0.3107 -0.2693
12234W        W27365   5.544   4.682  11.195  0.1685  0.0408  0.0757
12235W        W27366  13.712   3.373  11.091  0.1712  0.0111  0.0974
12236W        W27367  12.538   3.336   4.939 -0.0122  0.3582  0.0455
12237W        W27368  15.537   2.362   2.690 -0.0499 -0.0248 -0.1042
12238W        W27369  10.640   5.190  11.302  0.1705  0.2021 -0.2048
12239W        W27370  11.909   5.032  15.521  0.0723 -0.2023 -0.0782
12240W        W27371   4.104   1.516   1.163 -0.0072 -0.1468 -0.0996
12241W        W27372  10.521   8.513   4.430 -0.1075 -0.0837 -0.2136
12242W        W27373   2.693   1.886   2.110 -0.1518  0.1060 -0.0173
12243W        W27374  10.504   6.821  12.323  0.0496  0.0961  0.1157
12244W        W27375  11.943   6.888  14.036 -0.1768 -0.2211 -0.1994
12245W        W27376   7.898   9.373   6.058  0.3547  0.3443  0.1909
12246W        W27377  15.762  13.089  10.867  0.0308 -0.0051 -0.2382
12247W        W27378   2.619   1.800   2.863  0.1824  0.0086 -0.0246
12248W        W27379  12.648   3.139  12.755  0.1343 -0.0240  0.0298
12249W        W27380   6.152   9.366  14.220 -0.1377  0.1394 -0.0743
12250W        W27381   0.329  16.586   2.649 -0.0250  0.2215  0.0657
12251W        W27382   5.873  10.608  12.748  0.1620 -0.1707  0.2395
12252W        W27383   5.248   6.041  13.480  0.0941  0.0835 -0.1858
12253W        W27384  10.731   5.824  11.590 -0.0539  0.0568 -0.1171
12254W        W27385   6.849   5.116  16.719  0.3540  0.0956  0.2136
12255W        W27386   3.655  12.924   0.682  0.0850 -0.2779  0.4034
12256W        W27387   1.045   9.429  14.865  0.1168 -0.3320 -0.1988
12257W        W27388  10.261   6.808  14.296  0.1663 -0.0834 -0.1329
12258W        W27389  15.192  13.644  13.259 -0.2951 -0.0006  0.1682
12259W        W27390  17.068   4.640   5.347  0.0481 -0.2787  0.0701
12260W        W27391   8.636   4.505  14.361 -0.1295  0.0376 -0.2312
12261W        W27392   5.628  12.843   1.703 -0.0999 -0.0924  0.0531
12262W        W27393  14.852  14.856   4.655 -0.1257 -0.1992  0.0069
12263W        W27394   8.263   7.935   1.843  0.3720 -0.2276 -0.0019
12264W        W27395   4.945   3.744   0.491  0.3193  0.0375  0.0876
12265W        W27396   5.052  11.099  15.215  0.1319 -0.2463 -0.0402
12266W        W27397  15.326   3.412   0.580 -0.3821 -0.0640 -0.0876
12267W        W27398   8.261  13.778   4.172  0.1373  0.0389  0.0364
12268W        W27399  12.813   8.375  12.530  0.0556 -0.1857  0.1060
12269W        W27400   1.075   8.625  12.997 -0.0512  0.0968  0.0407
12270W        W27401   3.592   5.426  12.515  0.3173  0.0394  0.0141
12271W        W27402   6.343   1.211  11.355  0.0764  0.1868 -0.0267
12272W        W27403   2.947  11.592   5.240 -0.1280  0.1408 -0.1397
12273W        W27404  16.692  17.274  14.674 -0.1337 -0.1033  0.2978
12274W        W27405   4.554   8.100  14.430 -0.0317  0.0715  0.1838
12275W        W27406   6.789  13.877   1.111 -0.2193  0.6752  0.2921
12276W        W27407   3.241   5.008   4.775 -0.1493  0.1454 -0.2540
12277W        W27408  16.314  14.268  12.060 -0.2230  0.1817  0.0796
12278W        W27409  17.399  15.531  11.738 -0.0281  0.4078 -0.0400
12279W        W27410   5.603   2.851  14.722  0.1643  0.2510 -0.0891
12280W        W27411   1.501  14.905  12.535  0.2654  0.1102 -0.0930
12281W        W27412  14.218   0.620  15.084 -0.0451  0.0623  0.1583
12282W        W27413   1.768   6.690  10.722  0.1141  0.1503  0.0025
12283W        W27414   1.906   4.127   2.428 -0.1047 -0.0104 -0.0286
12284W        W27415   3.679   3.249   4.598  0.1009 -0.2276  0.0233
12285W        W27416   3.583   6.485   4.176  0.0904 -0.1611  0.1748
12286W        W27417  15.882   5.754   0.028  0.0454  0.1860  0.1712
12287W        W27418   7.591   0.031   6.289 -0.2573  0.1123  0.2442
12288W        W27419   2.671   2.383  12.124 -0.0674  0.1895  0.2504
12289W        W27420   1.538   9.072   2.324  0.2568 -0.0196 -0.0324
12290W        W27421   5.623   1.839  15.066 -0.0092  0.1865  0.1533
12291W        W27422  14.426   4.168   6.096 -0.2220  0.1107  0.0042
12292W        W27423  14.825  17.005   6.050  0.0730  0.1302  0.0684
12293W        W27424  16.090   5.302  12.054  0.4350 -0.0998  0.0237
12294W        W27425   9.258  13.135  16.652  0.0312 -0.0582  0.1312
12295W        W27426  13.991  17.010   0.585 -0.1934 -0.1611  0.3814
12296W        W27427  12.793   3.467  16.515 -0.1063  0.2072  0.0147
12297W        W27428   8.791  13.998  14.839  0.1473 -0.1115  0.1273
12298W        W27429   1.785   9.399   4.020  0.0258 -0.2504 -0.0548
12299W        W27430   8.727  13.173   1.887 -0.0962 -0.0935 -0.2242
12300W        W27431  16.508  14.756   3.609  0.0555 -0.0411 -0.4866
12301W        W27432   7.152   0.658   1.043  0.1387  0.2801 -0.1188
12302W        W27433  17.143   5.984   5.697 -0.0248  0.1671 -0.2599
12303W        W27434  14.942  13.679   2.042  0.0759 -0.1023  0.4475
12304W        W27435   2.281   3.269   3.522  0.2223  0.0919  0.0213
12305W        W27436  11.452   9.245   2.774  0.1936  0.4423 -0.0734
12306W        W27437  16.321   0.677  13.756 -0.1931 -0.1852 -0.0437
12307W        W27438  11.061  15.085   5.552 -0.2169 -0.0717 -0.0108
12308W        W27439   0.167  16.251  11.714 -0.0525 -0.2458 -0.1524
12309W        W27440   5.708   0.964   2.382  0.1741  0.1267  0.0851
12310W        W27441   3.193   0.166  15.869  0.1310  0.0458  0.0473
12311W        W27442   0.303   1.423  16.831  0.3230  0.1369 -0.0377
12312W        W27443   4.243  13.788  13.184  0.2048 -0.0522 -0.3361
12313W        W27444  15.327  15.718  13.377 -0.2467  0.1179 -0.2353
12314W        W27445  11.394  14.750  16.262  0.0651  0.3100 -0.0896
12315W        W27446   4.557   0.206  14.890 -0.2611  0.0889 -0.0082
12316W        W27447   0.281   1.758  13.037  0.1792 -0.0620  0.0435
12317W        W27448   7.820   6.900   0.442 -0.1355  0.2314  0.0775
12318W        W27449   2.630   0.790   2.044 -0.2620  0.0183 -0.2073
12319W        W27450   6.891   0.663   3.771 -0.3001 -0.1378  0.2858
12320W        W27451   2.369  10.774  13.632  0.1141 -0.0752 -0.0484
12321W        W27452   5.581  13.671  12.199  0.1524  0.0504 -0.0336
12322W        W27453   4.912  10.591   5.343  0.0809  0.1427  0.0462
12323W        W27454   7.074  14.500  14.865  0.2384 -0.4611  0.2960
12324W        W27455  13.562   4.088   2.181  0.0100  0.0968  0.1252
12325W        W27456   9.187   7.492  13.216  0.0386  0.0229  0.1042
12326W        W27457  17.060   8.450   3.160 -0.1232 -0.4288  0.1637
12327W        W27458  17.114  10.705  16.888 -0.0825 -0.0617 -0.0726
12328W        W27459  16.566   2.657  10.638  0.2733 -0.0699  0.1401
12329W        W27460  11.419  11.601   3.815  0.0055 -0.4386 -0.0633
12330W        W27461  15.598   7.995   2.636 -0.3913  0.0944 -0.2334
12331W        W27462   1.302  11.635   1.159  0.1142  0.0396 -0.2026
12332W        W27463   1.601   3.655   1.648  0.1284  0.0740 -0.0327
12333W        W27464  16.631  15.129  13.797  0.0677  0.0660 -0.2399
12334W        W27465  11.616  15.209  14.646 -0.1341 -0.2290  0.0502
12335W        W27466   6.203  12.535   0.785  0.0945 -0.2293  0.1732
12336W        W27467   2.805  12.776   5.967  0.1047 -0.2131  0.1234
12337W        W27468  13.869  13.843  15.536  0.0224  0.0721 -0.0641
12338W        W27469   6.816   4.136   5.370 -0.1270 -0.0044  0.1468
12339W        W27470   3.891   7.070  16.312 -0.0650  0.3746 -0.2669
12340W        W27471  14.692  16.265   1.867  0.2710  0.0646 -0.1582
12341W        W27472   7.526  12.246  16.149  0.0467  0.5206 -0.2811
12342W        W27473   2.460   8.348  12.467  0.0520  0.0496  0.4740
12343W        W27474   5.877  17.681   2.539  0.1857 -0.0529 -0.2869
12344W        W27475  12.212  14.273  13.940 -0.0868  0.3284  0.2673
12345W        W27476   3.488   2.375   4.883  0.2274  0.0462  0.1437
12346W        W27477   7.609   9.879   5.434  0.1261 -0.0207 -0.0250
12347W        W27478  15.068  15.766  12.101 -0.0192 -0.0724 -0.0235
12348W        W27479   0.116  12.863  12.354  0.2091  0.3149 -0.3257
12349W        W27480   0.827  11.377  13.378 -0.0208  0.0668  0.2667
12350W        W27481   1.295   0.510   2.484  0.0332  0.1990 -0.0312
12351W        W27482  13.217   4.252   0.113  0.1035  0.1644  0.2258
12352W        W27483   4.460   8.162   1.137 -0.0119 -0.0208 -0.2550
12353W        W27484  16.817   6.191  12.677 -0.0421  0.2009  0.1675
12354W        W27485   8.464   6.101   3.983 -0.1555 -0.4647 -0.0496
12355W        W27486   9.870  16.153  16.099  0.0090  0.0534 -0.3989
12356W        W27487   2.891   3.340   5.283 -0.1371  0.1602 -0.1540
12357W        W27488  16.021  14.608  11.125 -0.0057  0.0681 -0.1848
12358W        W27489   5.485   4.516   0.084  0.1285 -0.0224 -0.0300
12359W        W27490   3.616   6.270   0.101 -0.0877 -0.0514 -0.0526
12360W        W27491   5.861   4.289  10.663 -0.1402  0.2058  0.0641
12361W        W27492   7.267   8.779   0.586  0.0871  0.0307 -0.2190
12362W        W27493   0.709   7.083  13.105 -0.2188  0.0021  0.1005
12363W        W27494   5.524  12.178   1.093 -0.1915  0.3078 -0.3334
12364W        W27495  12.528  15.160   3.457  0.1701  0.1499 -0.1057
12365W        W27496  10.695  10.557  11.979  0.0962 -0.1939  0.2408
12366W        W27497   7.201   7.052  10.921  0.1515  0.0831  0.0441
12367W        W27498   9.988   2.460  16.497 -0.0340  0.1164 -0.0756
12368W        W27499  14.982  10.523  13.132 -0.1815  0.0167 -0.4337
12369W        W27500  17.257  15.130   1.856 -0.0136 -0.0813 -0.1569
12370W        W27501   2.146   5.272   4.827 -0.0551  0.2073 -0.0437
12371W        W27502   4.194   0.803   4.391  0.1818 -0.3861 -0.0511
12372W        W27503   4.108  11.647  13.109  0.2174  0.0948  0.1669
12373W        W27504  15.964   1.995   1.907 -0.3102  0.1024  0.0187
12374W        W27505   1.365   2.216   1.610  0.2407  0.0341  0.2807
12375W        W27506   1.131  12.674   3.497  0.2202  0.0747 -0.4455
12376W        W27507   5.866   4.243  16.597  0.3481  0.1599 -0.0345
12377W        W27508  12.850  13.367   3.324 -0.3424  0.0626 -0.0897
12378W        W27509  11.230  10.494   3.873  0.1121  0.2231 -0.2060
12379W        W27510   3.119   9.313   5.345 -0.0229 -0.0360  0.0793
12380W        W27511   7.913  13.643   1.460 -0.2285 -0.0107  0.2163
12381W        W27512   2.391  12.524  12.959  0.3609  0.2244 -0.0962
12382W        W27513   0.123  11.213   1.553 -0.2322  0.1709 -0.0280
12383W        W27514   5.383   0.206   0.158  0.0443 -0.0126  0.0824
12384W        W27515   0.916  16.292   1.076 -0.0204 -0.3233 -0.1509
12385W        W27516   0.351  16.830   4.559 -0.0139 -0.0644  0.0084
12386W        W27517   3.468  10.694  15.801 -0.2139 -0.0879  0.1248
12387W        W27518   3.019   8.614  11.646  0.0578 -0.2209  0.0325
12388W        W27519  11.197   1.430   3.568  0.1100 -0.2947  0.2564
12389W        W27520   9.941   1.477  15.773 -0.1944  0.0280  0.3025
12390W        W27521   7.335  13.843  16.585 -0.1765 -0.0264 -0.2663
12391W        W27522   2.799   2.573  13.208  0.2211 -0.3027 -0.1592
12392W        W27523  11.101   9.313   5.441 -0.1207 -0.1674  0.0501
12393W        W27524  16.116   6.304  11.109 -0.1769  0.0968  0.3477
12394W        W27525   0.060  13.518  15.365  0.0259 -0.2208  0.0189
12395W        W27526  10.825  14.679   4.593  0.3133 -0.1249  0.2313
12396W        W27527  17.008  14.973   4.097  0.2419  0.3603  0.0615
12397W        W27528   6.010  17.714   1.234 -0.1114 -0.0066  0.2556
12398W        W27529   4.213   5.866   0.890  0.2711  0.1718 -0.1102
12399W        W27530   3.632   4.349   2.696 -0.2774 -0.0286 -0.1311
12400W        W27531  15.383   0.976   1.438 -0.1203 -0.0820 -0.0705
12401W        W27532  11.365   2.059   0.102  0.3117  0.4209  0.0270
12402W        W27533  11.628   7.550   5.279 -0.0230  0.2321  0.1519
12403W        W27534   0.341   5.874  16.751 -0.0039  0.0196 -0.3563
12404W        W27535   8.386   9.517   2.542 -0.0724  0.2470 -0.2115
12405W        W27536   7.726  15.571  14.917 -0.1914  0.3210  0.0442
12406W        W27537   5.538   8.143   5.651 -0.2478  0.2231  0.0771
12407W        W27538   9.809   5.366   1.799  0.1978 -0.1421 -0.0627
12408W        W27539  14.309   9.241   5.073  0.1499  0.0737  0.1032
12409W        W27540   5.296   9.160  13.862 -0.0847  0.3485  0.0023
12410W        W27541  13.916   2.147  14.118 -0.1254  0.2642 -0.1839
12411W        W27542   1.580  16.585  16.317 -0.3399 -0.1622 -0.2130
12412W        W27543   4.365   9.045   4.849 -0.3135 -0.0567  0.2138
12413W        W27544   8.803  13.385   4.719  0.3179 -0.0778 -0.0384
12414W        W27545  11.023   9.094   2.578  0.2366  0.2754 -0.1362
12415W        W27546   8.164   7.033   5.483  0.6321 -0.1190  0.1450
12416W        W27547   9.971   0.717   0.552 -0.2390  0.0835  0.1501
12417W        W27548  12.607   2.551   0.790 -0.1228  0.2985 -0.1583
12418W        W27549   8.347   2.682   5.392  0.0623  0.1470  0.3833
12419W        W27550  16.295   1.033  15.125  0.3726 -0.0852  0.1287
12420W        W27551   2.443   4.597   5.323 -0.1165 -0.3083  0.0611
12421W        W27552   5.082  17.128  13.443  0.2794 -0.3376 -0.2055
12422W        W27553   5.067   2.708   4.150 -0.1015  0.0515 -0.0611
12423W        W27554  14.323   8.346   4.897 -0.1599 -0.1073  0.1206
12424W        W27555   6.407   7.007   1.830  0.2889 -0.0741 -0.1132
12425W        W27556   9.214   6.792  14.903  0.0007 -0.0698  0.0231
12426W        W27557   4.712  12.921  12.753 -0.0700 -0.0965  0.1738
12427W        W27558  10.858   8.057   4.002  0.0798  0.3409 -0.2687
12428W        W27559   3.785   8.762   0.393  0.0080  0.0641 -0.0545
12429W        W27560   5.902   3.143   1.038  0.2426 -0.1516 -0.1006
12430W        W27561   0.775  11.382   4.626 -0.2172  0.0578  0.0832
12431W        W27562   7.884  13.829   2.470  0.0246 -0.1907  0.1263
12432W        W27563  13.366   4.781  16.867  0.0218  0.0946  0.0590
12433W        W27564  13.957  15.204  15.851  0.3926 -0.0665  0.0512
12434W        W27565   1.100  16.605   3.130  0.1572 -0.0273 -0.1463
12435W        W27566   3.854  15.909  14.681  0.4611  0.0900 -0.0021
12436W        W27567  11.958  15.526   5.341 -0.1132 -0.0196 -0.0575
12437W        W27568  13.767   7.865   1.266  0.0643 -0.1488  0.1643
12438W        W27569  14.207  16.800  13.969 -0.3543 -0.2087 -0.0115
12439W        W27570  17.679   5.752  13.443 -0.1074 -0.4511  0.0157
12440W        W27571   7.872   7.547  12.432  0.2800 -0.0620 -0.0622
12441W        W27572   0.513  12.528   3.375 -0.0120  0.0553 -0.0106
12442W        W27573   8.775   4.277   2.937 -0.0671  0.1370  0.4414
12443W        W27574   3.456  16.403   4.968 -0.1784 -0.1574 -0.1143
12444W        W27575   0.969  12.311   3.195 -0.1562  0.2472  0.2123
12445W        W27576  14.497   3.187  15.825 -0.0273  0.0258 -0.2600
12446W        W27577   7.288   9.617   4.205 -0.0055 -0.0687  0.3015
12447W        W27578  13.213   5.414  11.644 -0.2059 -0.1851  0.0044
12448W        W27579  12.806  11.089   3.794 -0.0912 -0.1504  0.0085
12449W        W27580   3.209  17.597   1.356  0.0346  0.1176  0.1628
12450W        W27581   6.388   2.936   4.133 -0.2267  0.1225  0.0886
12451W        W27582  13.417   0.236  15.834  0.1447 -0.0941  0.0716
12452W        W27583  12.459  13.106   6.422  0.1057 -0.0395  0.1398
12453W        W27584   4.620  14.972   0.467 -0.1019 -0.0512  0.0597
12454W        W27585  14.086  14.291  12.456 -0.0960  0.0702 -0.0045
12455W        W27586   9.492   3.201   5.909 -0.0278 -0.0538  0.1932
12456W        W27587  13.025  10.870   3.423 -0.2234 -0.1520  0.1155
12457W        W27588  13.714   2.195   4.634  0.1998 -0.2364  0.1689
12458W        W27589   1.688  15.016   4.396  0.0254  0.2577  0.0691
12459W        W27590  10.882   1.774   3.384  0.0813  0.1941 -0.2484
12460W        W27591  13.056   3.469  15.708  0.2149 -0.0441 -0.0138
12461W        W27592   8.593   5.398   5.610 -0.2211  0.0636  0.0358
12462W        W27593   3.748  11.757  11.004 -0.1205  0.2819  0.2543
12463W        W27594   5.096  11.322  12.922 -0.0912 -0.0313 -0.0458
12464W        W27595   2.431  10.350   4.995 -0.1927  0.0140  0.1815
12465W        W27596   1.009   8.926  15.243 -0.1460  0.2175  0.1939
12466W        W27597   4.487  15.621  16.174  0.4453  0.2188 -0.2270
12467W        W27598   9.503  12.572  11.764 -0.2039  0.2596 -0.1589
12468W        W27599  12.993  16.808  15.856 -0.0074 -0.1656 -0.1218
12469W        W27600  12.177   9.661  14.808 -0.3579  0.0425 -0.0403
12470W        W27601  14.231  17.160   1.670  0.4711 -0.0667  0.1874
12471W        W27602  12.543   2.236  16.090  0.0896  0.1055 -0.2113
12472W        W27603   9.504   5.036  12.077 -0.1641  0.0967  0.0949
12473W        W27604   8.649   9.196  12.053 -0.1165  0.1387  0.2185
12474W        W27605  10.580  11.769   2.076  0.1169  0.0236  0.3265
12475W        W27606   0.340   7.991  13.375 -0.0578  0.1962 -0.1047
12476W        W27607   1.939   5.320   5.273 -0.2915 -0.1214 -0.0870
12477W        W27608  10.495  12.611  14.331 -0.1470 -0.3131  0.1745
12478W        W27609   5.544   4.821   4.958  0.1645  0.3412  0.2131
12479W        W27610  15.751  12.785  11.885  0.0525  0.2519  0.1114
12480W        W27611  17.155  11.427  12.760  0.2821 -0.0150  0.0048
12481W        W27612   7.490  11.182  16.126  0.3993 -0.1702 -0.1137
12482W        W27613  15.257   2.811  16.789  0.0017  0.0123 -0.0790
12483W        W27614  11.609   9.075  13.787  0.1470 -0.0451 -0.0561
12484W        W27615   0.329  16.771   3.465  0.2101 -0.0801 -0.0881
12485W        W27616  16.936  17.256   3.346 -0.1603 -0.1482 -0.2476
12486W        W27617  14.698   7.171  12.420  0.2459 -0.1266 -0.0468
12487W        W27618  16.405   3.869   5.019 -0.0878 -0.5270 -0.1339
12488W        W27619   8.937   6.530   0.631  0.0851 -0.1159 -0.1865
12489W        W27620   6.570   9.250   3.168 -0.1382 -0.1220 -0.1489
12490W        W27621   2.501  15.358   0.290 -0.2117 -0.2131  0.3590
12491W        W27622  14.489   6.838   1.028 -0.1103 -0.1649 -0.1518
12492W        W27623   4.342  13.764  12.173  0.0874 -0.2098  0.1630
12493W        W27624   9.215   1.295   0.958  0.1287  0.1538  0.0173
12494W        W27625  11.358  13.041  11.624 -0.1450 -0.4425 -0.1753
12495W        W27626   2.861   4.644   4.596  0.0482  0.0605  0.2050
12496W        W27627   8.511   4.415  15.458  0.3495  0.4464  0.3979
12497W        W27628   2.152  14.162   1.470  0.2852 -0.0411 -0.1645
12498W        W27629  12.917  14.878   0.357  0.0293 -0.3068  0.0168
12499W        W27630  11.923  16.355   5.722 -0.2760  0.0393 -0.0509
12500W        W27631   4.392   6.829  13.836  0.0465 -0.0041 -0.2243
12501W        W27632   3.232   0.296   5.547 -0.1152  0.0236 -0.0472
12502W        W27633  13.268   5.219  12.424 -0.2041 -0.2991 -0.1551
12503W        W27634  15.782   2.992  16.159  0.4231 -0.1296 -0.2627
12504W        W27635   2.218  12.086  13.706  0.2716 -0.1206  0.1056
12505W        W27636  11.878  14.284   0.892 -0.1471  0.1998  0.0334
12506W        W27637   4.733   9.493  12.647  0.0023  0.3523  0.1452
12507W        W27638   0.271  10.795  12.958 -0.1602 -0.0648 -0.2194
12508W        W27639   4.677  12.156  14.638  0.0897  0.1108  0.0068
12509W        W27640   6.061  15.808   3.205 -0.3741  0.2644 -0.0840
12510W        W27641   7.752   4.219   0.158  0.2157 -0.0333  0.1133
12511W        W27642   3.605   3.644  15.605  0.1217  0.0900  0.1584
12512W        W27643  17.697   3.351   5.410 -0.0806  0.3430  0.0317
12513W        W27644   0.106   9.924   3.330  0.0556 -0.0932 -0.1613
12514W        W27645   9.120  14.936   0.980  0.1256  0.1664 -0.2344
12515W        W27646  17.151  10.797   2.250 -0.0593  0.1586  0.0810
12516W        W27647   2.768   9.927   2.391  0.1316  0.2603  0.3651
12517W        W27648  13.080  14.772  11.756 -0.3058 -0.0727  0.1361
12518W        W27649   1.627  11.343  15.808  0.1257  0.0024 -0.0771
12519W        W27650  14.629   4.360   4.377 -0.1326  0.2090 -0.1026
12520W        W27651   8.076  12.773   3.221  0.0601  0.3439 -0.0291
12521W        W27652   5.146   9.887   1.179  0.0255  0.3647 -0.0565
12522W        W27653  10.428  10.199  15.433  0.2093 -0.1583  0.2202
12523W        W27654   3.127   0.909   0.784 -0.2405  0.1461  0.3418
12524W        W27655  15.980  13.449   6.055  0.1257  0.2083  0.2522
12525W        W27656  10.704  10.688   5.721 -0.0591 -0.0475 -0.2844
12526W        W27657   7.031  10.563  14.332  0.4295 -0.1801  0.0219
12527W        W27658  15.510   5.319   5.601 -0.1338 -0.2012  0.0058
12528W        W27659   6.271  10.814   6.159 -0.0889 -0.0081  0.2605
12529W        W27660  15.516   1.870  14.856 -0.0816  0.2943 -0.0302
12530W        W27661  17.710  17.378  16.604 -0.0862 -0.2297  0.0188
12531W        W27662  17.326   4.599   2.112 -0.0428  0.0055  0.0541
12532W        W27663   6.901   0.362   5.686  0.1761 -0.0338 -0.1951
12533W        W27664  14.708  16.186   2.945 -0.1029 -0.0779  0.1387
12534W        W27665   1.866  12.212  15.318 -0.1471 -0.1408  0.1058
12535W        W27666   3.027  16.807   2.167 -0.0954  0.0138 -0.3012
12536W        W27667  12.831   7.383   5.834 -0.3161 -0.0327 -0.1658
12537W        W27668   0.587   1.084   2.352  0.1458  0.0473  0.3707
12538W        W27669   9.664  14.718  14.823  0.2476  0.2652 -0.0984
12539W        W27670  14.273   8.764   2.994  0.1148  0.1011 -0.2649
12540W        W27671  15.062  12.502  13.635 -0.0912  0.2897  0.0014
12541W        W27672  13.422   6.334   3.751 -0.0762  0.0537  0.1841
12542W        W27673   8.831  15.519   0.362 -0.2205  0.1688  0.0274
12543W        W27674  15.263  17.163  12.250  0.0370  0.1120 -0.0309
12544W        W27675   1.348  15.334   4.556 -0.0795 -0.0508 -0.2060
12545W        W27676   7.394  13.120  12.145 -0.2438 -0.0164  0.1457
12546W        W27677   1.688   7.876  11.839  0.0065  0.0272 -0.2305
12547W        W27678  15.338  10.055  15.424 -0.0031  0.1341  0.1896
12548W        W27679   1.814   4.110  15.726  0.3293  0.1561  0.0140
12549W        W27680  12.519  14.409   1.157  0.0671 -0.0799  0.1652
12550W        W27681   1.659  14.087  13.094 -0.1842 -0.1675 -0.2629
12551W        W27682   9.205   4.431   1.350 -0.1841 -0.2254 -0.0102
12552W        W27683  15.049  10.759   1.367 -0.0796  0.0209 -0.0595
12553W        W27684   5.752  11.215   4.501 -0.2256 -0.3106  0.0697
12554W        W27685   7.563   2.801   1.979  0.0564 -0.0835  0.0615
12555W        W27686  10.532  10.081  11.250  0.3410  0.2726  0.0952
12556W        W27687   3.263  17.310   2.281  0.1962  0.0659 -0.4767
12557W        W27688  14.544   9.964  14.288  0.2408 -0.0416  0.2889
12558W        W27689  14.654   1.520   1.260 -0.1543  0.1827  0.1342
12559W        W27690  13.643   4.137  15.657  0.1698  0.0414 -0.2457
12560W        W27691  10.342   8.301  13.166  0.2237  0.1706  0.0283
12561W        W27692  11.561  10.618   5.826 -0.0296 -0.0383  0.0094
12562W        W27693   7.944   6.056   4.040 -0.0691  0.0415 -0.1870
12563W        W27694   6.285  15.276   4.076 -0.0308 -0.1071  0.2901
12564W        W27695   1.808   5.864   3.395 -0.1767  0.0652 -0.0254
12565W        W27696   0.599   1.421  11.792 -0.0021  0.0613  0.3230
12566W        W27697  12.333   0.935  13.861  0.2665 -0.4430  0.0978
12567W        W27698   2.651   6.901  13.067 -0.0084 -0.1928 -0.1273
12568W        W27699  12.316  14.591   5.568  0.1921 -0.2745  0.2033
12569W        W27700   8.963  12.178   5.430  0.4372  0.1578  0.1428
12570W        W27701   0.423   8.533   1.610  0.0446 -0.0036 -0.0317
12571W        W27702   8.882   8.540  14.851  0.1151 -0.1339 -0.2491
12572W        W27703  11.585  14.189  12.794  0.2484  0.1886  0.0614
12573W        W27704   4.262   5.067  15.895  0.0615  0.0382 -0.3643
12574W        W27705   6.650  15.834   0.831 -0.0712  0.0523 -0.0791
12575W        W27706   8.384  12.147   5.445  0.2018 -0.3523 -0.0228
12576W        W27707   7.468   0.463   0.721  0.1298 -0.0273  0.2543
12577W        W27708   0.630   2.874  12.663  0.0458  0.0572  0.1224
12578W        W27709   7.866   4.487   3.595  0.0548  0.2118 -0.1390
12579W        W27710  17.357   5.368  16.847 -0.0432  0.1257  0.1201
12580W        W27711  11.212   1.059  14.659  0.0451 -0.1687  0.0882
12581W        W27712  13.765  15.722  13.319 -0.2221 -0.0259  0.0561
12582W        W27713  11.201   8.795  14.578 -0.2649  0.1332  0.0924
12583W        W27714   1.015  11.243   1.727  0.2553  0.0690 -0.2546
12584W        W27715  14.235  15.902   4.235 -0.2318  0.1980 -0.1300
12585W        W27716   0.157  11.904  14.889  0.1222  0.0189 -0.2521
12586W        W27717  17.535  13.492   0.613 -0.1737 -0.1861  0.3948
12587W        W27718  14.310   2.592   0.313  0.0592 -0.0387  0.2897
12588W        W27719  13.741  14.414  12.065 -0.1866  0.0280  0.1129
12589W        W27720   2.115  11.679   1.718  0.0347 -0.2628  0.1573
12590W        W27721   1.380  12.156  12.454 -0.2677 -0.1430  0.0021
12591W        W27722   1.844  14.578  11.356  0.1302  0.3187  0.1552
12592W        W27723  11.383   6.285   5.462  0.0974 -0.1579 -0.2822
12593W        W27724   1.121   2.492  11.403  0.4152  0.3431 -0.1411
12594W        W27725   5.889  10.779  14.883 -0.0919  0.0700 -0.1147
12595W        W27726   1.954  15.714  15.056 -0.0118 -0.4561  0.1284
12596W        W27727  16.968  14.180  13.894 -0.0247 -0.0210 -0.0821
12597W        W27728  11.445  17.241  15.505  0.0275 -0.0191 -0.0250
12598W        W27729   5.651  10.798  13.379  0.2292 -0.2719  0.3185
12599W        W27730   7.640  12.290   0.377  0.1855  0.0143  0.0586
12600W        W27731  11.577  10.493   3.509 -0.1248  0.0040 -0.0672
12601W        W27732  12.807   0.940   0.981 -0.0679  0.0111  0.1341
12602W        W27733   0.057  10.564   4.891  0.0320  0.0712  0.1120
12603W        W27734   7.385  10.387   2.265 -0.0299 -0.1031  0.2255
12604W        W27735   2.812   8.502  14.466  0.0839  0.3155  0.0970
12605W        W27736   6.777   3.124   1.658  0.0376  0.0023  0.3049
12606W        W27737  11.775   1.913  16.185 -0.2174  0.0197 -0.1798
12607W        W27738   2.273  16.140   0.789  0.0718 -0.3175  0.2121
12608W        W27739  12.862   6.963   0.723 -0.3849  0.0443 -0.2523
12609W        W27740   8.458   5.861   3.557 -0.1130 -0.2450 -0.0046
12610W        W27741   8.324  14.842   5.147 -0.0040 -0.0706  0.0699
12611W        W27742  10.733  12.337   5.479  0.2966 -0.0139  0.0614
12612W        W27743   5.938  17.475  15.288  0.0499  0.3276  0.5034
12613W        W27744  11.136  14.225   2.464 -0.2925 -0.0566 -0.0613
12614W        W27745  16.670  16.316   3.165  0.0861  0.1145 -0.0657
12615W        W27746  12.068   1.548   4.107  0.1153  0.0348  0.1289
12616W        W27747   9.393  10.935  14.031  0.0024 -0.3488  0.1331
12617W        W27748  17.405  12.933   0.434 -0.2306  0.0439  0.2594
12618W        W27749   9.845   7.885  14.844  0.0479  0.2641  0.1456
12619W        W27750  14.648  12.859  15.397  0.1681  0.2616 -0.2379
12620W        W27751   7.890  17.571   4.398 -0.0175 -0.3741 -0.1020
12621W        W27752  10.644   9.346  15.265  0.2809  0.2682 -0.0155
12622W        W27753  17.644  15.892  15.244  0.1236 -0.0111 -0.0621
12623W        W27754  15.557   8.551   5.132 -0.2131  0.1558  0.3890
12624W        W27755   0.166  10.205  12.655  0.1264 -0.1482 -0.0408
12625W        W27756   0.457   1.225   3.275  0.1676  0.0792 -0.0910
12626W        W27757  17.588   8.674  16.746 -0.0785 -0.4265  0.0482
12627W        W27758  11.591   5.430  10.585  0.1407  0.2469 -0.1361
12628W        W27759  16.382   2.610   2.670 -0.1561 -0.0770 -0.1480
12629W        W27760   5.813   2.288   4.272 -0.1576 -0.1461  0.0878
12630W        W27761   9.254   8.848  15.622 -0.2262  0.0035  0.1723
12631W        W27762  16.137   1.390   5.482  0.1529 -0.1029 -0.1180
12632W        W27763   0.307  16.551   0.323 -0.0374  0.3057 -0.1052
12633W        W27764   6.207  12.442   5.625  0.1614 -0.2040 -0.2012
12634W        W27765   0.484   7.930  14.049 -0.1339 -0.0601  0.1281
12635W        W27766  10.273  15.817   2.229  0.0995 -0.1070  0.1967
12636W        W27767   2.107  15.577  16.335  0.0693 -0.2826 -0.2081
12637W        W27768   7.587   0.820  11.810  0.0126 -0.0998  0.0781
12638W        W27769   5.228   7.186   5.593  0.0121 -0.1722  0.0339
12639W        W27770  14.825   8.696   0.636  0.0831 -0.1464  0.2253
12640W        W27771  14.935   4.296   1.618 -0.0999 -0.0779 -0.0799
12641W        W27772   3.093  10.910   4.092 -0.3479  0.1191  0.1530
12642W        W27773  10.820   5.193  16.507 -0.0545  0.1407  0.1614
12643W        W27774   1.542  10.082  13.686 -0.0994 -0.0349 -0.1508
12644W        W27775  17.108  14.483   5.672 -0.1015 -0.1353 -0.0903
12645W        W27776   2.619   1.758  15.497  0.4206 -0.2345  0.2760
12646W        W27777  16.792   9.899  15.079  0.0971  0.0270 -0.0379
12647W        W27778   6.403   3.848   5.120  0.2854  0.1796  0.1363
12648W        W27779   3.406   7.173   1.983 -0.0639  0.1654  0.2559
12649W        W27780   3.840   0.996  12.439  0.0655  0.2625  0.1590
12650W        W27781   8.985   2.162  14.036 -0.3070 -0.1789 -0.0542
12651W        W27782   3.030   7.788  14.017  0.4743  0.0995 -0.1691
12652W        W27783  11.625   3.761   3.806  0.2127 -0.3948 -0.0479
12653W        W27784   5.748   0.466   5.608  0.0374 -0.1106  0.1731
12654W        W27785  13.045  14.100  14.504 -0.3275  0.3641 -0.2855
12655W        W27786  15.428  14.440  15.404  0.0390 -0.1626  0.0697
12656W        W27787   8.359  13.886   1.422  0.1648 -0.1028  0.2135
12657W        W27788   0.541  10.083   4.258  0.3826 -0.1349 -0.3412
12658W        W27789  14.812   4.996  13.326 -0.1490 -0.2222 -0.0331
12659W        W27790  17.374  12.774   1.741  0.2006  0.1492 -0.1828
12660W        W27791  15.218   4.477  11.540 -0.1874 -0.1515  0.2165
12661W        W27792  13.895   7.680  10.527  0.0328 -0.1117  0.3010
12662W        W27793   8.964   5.250   1.010 -0.0497 -0.0322 -0.0537
12663W        W27794   3.508   1.871   0.174 -0.2979 -0.3042  0.0357
12664W        W27795   4.948  11.771  16.010 -0.1847  0.0198  0.0080
12665W        W27796   8.621  16.549  14.901  0.0536  0.1182  0.0114
12666W        W27797  16.801   8.714  16.776 -0.0906 -0.1057 -0.1284
12667W        W27798   6.540   8.888   0.678 -0.1347 -0.2653  0.0641
12668W        W27799  15.614   5.191   1.772 -0.1895  0.1751  0.1260
12669W        W27800  17.402   3.208  13.825  0.0631 -0.1397  0.2555
12670W        W27801   9.127  11.627  13.401  0.0465  0.0067 -0.0038
12671W        W27802   2.306   1.859   5.251 -0.0472 -0.0762 -0.2828
12672W        W27803   3.543  12.342   5.966 -0.1126 -0.0074  0.2531
12673W        W27804  10.915  10.362   2.332  0.0215 -0.2571  0.1815
12674W        W27805   2.498   0.138   2.928  0.2775  0.0327  0.1542
12675W        W27806   9.035  13.169   5.526 -0.0818 -0.1947 -0.3274
12676W        W27807  10.572   9.918   5.386 -0.0439 -0.3907  0.0957
12677W        W27808  14.933   1.735   2.074 -0.4251  0.2729  0.0604
12678W        W27809   4.097   0.409  11.990 -0.0878  0.1874  0.1470
12679W        W27810  13.586   8.125  14.122 -0.0681  0.0655 -0.1078
12680W        W27811   9.434  16.601   3.166 -0.1027 -0.1253  0.2548
12681W        W27812   4.721   6.659   4.120 -0.1053  0.0956  0.1346
12682W        W27813   8.953  11.943   0.744  0.2287  0.1222 -0.0191
12683W        W27814   9.528   2.689  12.315 -0.2706 -0.1057 -0.0611
12684W        W27815  10.277  10.419   0.677  0.0222  0.1386 -0.1345
12685W        W27816  15.850   8.771   2.581  0.2677  0.1089  0.0522
12686W        W27817  10.645  14.834  12.098 -0.0106  0.0159  0.2279
12687W        W27818   7.530  16.874   0.102  0.1138 -0.1699  0.1648
12688W        W27819  10.278   2.773  14.843 -0.0928 -0.0906 -0.1775
12689W        W27820   3.915  16.802  14.615 -0.0211 -0.1103  0.0909
12690W        W27821  14.968  12.746   5.347  0.2037 -0.0528 -0.0473
12691W        W27822  16.741   6.727   4.798 -0.0464 -0.2488  0.2221
12692W        W27823   3.704   5.810  10.972 -0.1059  0.1775 -0.0420
12693W        W27824   8.953  16.973   5.121 -0.1165 -0.1956 -0.1570
12694W        W27825   9.820  14.013   1.950 -0.2268 -0.2334  0.0402
12695W        W27826   5.604   6.085   2.712  0.3927 -0.0037 -0.0856
12696W        W27827   5.465  14.491   2.865  0.0057  0.1075 -0.1696
12697W        W27828  13.558   3.478   4.090 -0.1922 -0.1552 -0.3922
12698W        W27829   1.357  11.975   3.019 -0.0599 -0.3333 -0.2907
12699W        W27830  13.449   0.249   2.943 -0.0878  0.1140  0.2231
12700W        W27831  12.902   5.099  16.926 -0.1357  0.0169 -0.1207
12701W        W27832   7.681   4.331   5.432  0.2266  0.0408 -0.1008
12702W        W27833   9.455   6.012  10.624 -0.0479 -0.2220  0.2890
12703W        W27834   7.777  13.366   5.012 -0.1080  0.0090 -0.1456
12704W        W27835   8.530  15.599   4.492 -0.1219  0.1970  0.1756
12705W        W27836   2.511  10.777  15.849 -0.0156 -0.0459  0.1835
12706W        W27837  14.644   7.879  11.192 -0.1363 -0.0840  0.1015
12707W        W27838   7.883  11.487  15.378  0.5068 -0.0332 -0.1235
12708W        W27839   6.413   2.489  16.270  0.0052 -0.1438 -0.1439
12709W        W27840   3.169   2.220  15.156 -0.1184 -0.0293  0.1384
12710W        W27841   2.998   7.084  12.703  0.3990 -0.1539  0.1030
12711W        W27842  11.075  12.093  14.063 -0.1743 -0.2421 -0.3037
12712W        W27843   3.491   2.103  14.496  0.1489 -0.1741  0.2358
12713W        W27844   5.411  13.819   2.293  0.0864 -0.0957  0.2141
12714W        W27845  11.285  10.840  16.806  0.1278 -0.3559  0.1553
12715W        W27846   6.275   9.376  14.697  0.0689  0.3718  0.3220
12716W        W27847  11.491   6.849  16.824  0.2848  0.1036 -0.1513
12717W        W27848   0.544   6.168   9.758 -0.1344  0.3197 -0.2065
12718W        W27849  14.186  10.650   1.580  0.1818 -0.3378 -0.2265
12719W        W27850  14.826  13.106   1.179 -0.0341 -0.0200  0.3014
12720W        W27851  10.914   0.538   4.502 -0.0945 -0.0495  0.0023
12721W        W27852  17.044  15.087  16.223 -0.1982 -0.2155  0.1635
12722W        W27853  12.423   9.230  11.980  0.1200 -0.4372 -0.3000
12723W        W27854  15.398   3.303  13.132 -0.1165  0.2895  0.0580
12724W        W27855  17.676  10.825   0.663  0.1504  0.0114 -0.0053
12725W        W27856   6.427   4.555   1.613 -0.0386  0.0047  0.0167
12726W        W27857  12.598  14.094  13.172  0.0556  0.0466 -0.0348
12727W        W27858  15.658   7.467   0.138  0.1139 -0.0330  0.1978
12728W        W27859  13.357   2.314  14.640 -0.0409 -0.0431  0.0901
12729W        W27860  11.034  17.457  16.135  0.0792  0.1123  0.0330
12730W        W27861   2.775  16.913   0.665 -0.1095 -0.0969  0.2012
12731W        W27862  10.025  14.791   6.097  0.3532 -0.0663 -0.0637
12732W        W27863   6.865   5.302   1.112  0.0452 -0.1941 -0.1188
12733W        W27864   4.265  15.283   3.580 -0.0652  0.0646  0.0487
12734W        W27865   0.231  14.739   5.911 -0.0878 -0.4223  0.0023
12735W        W27866  14.589   4.962   5.484  0.2132  0.0691  0.0774
12736W        W27867  11.876  14.426   4.693  0.0169  0.2544  0.0985
12737W        W27868   4.700  17.611   3.923  0.0752 -0.0297 -0.1292
12738W        W27869  11.716   8.667  13.285 -0.2142  0.0111  0.1167
12739W        W27870  12.362  15.539   0.625  0.0412  0.0460 -0.1581
12740W        W27871  17.326   4.769   4.577 -0.2369 -0.6017 -0.1667
12741W        W27872  11.876   2.204  14.526 -0.1614  0.1023 -0.0275
12742W        W27873   7.834   9.726  16.748  0.0684  0.2251  0.1106
12743W        W27874   3.365  14.087   2.741 -0.2226 -0.0764 -0.2624
12744W        W27875   5.836   5.921  11.481  0.1451 -0.1006 -0.1046
12745W        W27876   2.447   7.097   1.110 -0.1491 -0.0904  0.2624
12746W        W27877   4.708  10.052   3.020 -0.0811 -0.3707  0.1839
12747W        W27878   0.510   1.744  14.865  0.2591 -0.3166 -0.0437
12748W        W27879  16.726  14.496  13.232  0.1459 -0.2987  0.0090
12749W        W27880   3.850   6.806  14.298 -0.1893 -0.2386 -0.3273
12750W        W27881   2.591   2.530  12.697 -0.0329  0.0244  0.0161
12751W        W27882  15.695  16.797  16.469 -0.0557 -0.2481 -0.3123
12752W        W27883   0.476   7.180  14.869  0.1501  0.0736  0.3144
12753W        W27884   3.423  13.304   5.663 -0.0033 -0.1324  0.2525
12754W        W27885  10.884   1.582   6.676  0.0174  0.2486  0.3361
12755W        W27886  12.662   5.164   3.030 -0.1885 -0.4394  0.1121
12756W        W27887   8.478  12.725   1.843  0.2520 -0.2665 -0.0710
12757W        W27888   5.768   4.646  12.907  0.2344 -0.2033  0.2326
12758W        W27889   0.448   4.240   3.892 -0.1992  0.1135 -0.1584
12759W        W27890   0.404  17.621  16.426 -0.2180 -0.3843  0.2935
12760W        W27891  17.258   1.819  12.114  0.0950 -0.0489  0.1316
12761W        W27892  14.564   5.652  16.243  0.2712 -0.0241 -0.3168
12762W        W27893   8.741   9.515  15.295  0.1620 -0.1939 -0.0317
12763W        W27894  15.426  12.750   1.126 -0.1524 -0.0423 -0.1496
12764W        W27895   6.702   9.583  11.581  0.0243  0.2864 -0.1399
12765W        W27896   3.175   7.093   0.394  0.2647 -0.2156 -0.3842
12766W        W27897   4.756  15.884  15.196  0.2306 -0.0815 -0.3803
12767W        W27898   9.246  17.242   5.488 -0.2529 -0.0188  0.1319
12768W        W27899  12.112  10.466  14.791 -0.0419 -0.0468 -0.1368
12769W        W27900   8.565  16.986  13.827  0.0685  0.0905 -0.0512
12770W        W27901   3.371  10.623   5.143  0.0485  0.1723 -0.1111
12771W        W27902   5.902   3.239  16.121  0.1649  0.4068 -0.0727
12772W        W27903  15.606   7.101  13.888  0.1375 -0.2022 -0.2480
12773W        W27904   1.257  13.914  11.681  0.0163 -0.1128  0.1454
12774W        W27905  16.921  14.626   1.150  0.1194  0.4569 -0.0577
12775W        W27906   0.889   5.531  12.674  0.3870 -0.0607 -0.3796
12776W        W27907  16.152  15.968  11.878 -0.2559 -0.2217 -0.2363
12777W        W27908  16.882  11.753   2.657 -0.0971  0.1145 -0.2109
12778W        W27909   6.555   1.821   5.353 -0.1218 -0.0970 -0.0292
12779W        W27910  11.849  15.681  11.668 -0.2079  0.0672 -0.1128
12780W        W27911   1.052   5.407   4.061 -0.0125 -0.0957  0.3608
12781W        W27912  12.068   9.159  15.551  0.2158  0.5622  0.3003
12782W        W27913   8.945  17.473  11.918 -0.0578  0.1594 -0.0815
12783W        W27914  11.031  13.043   5.293  0.2514  0.0816 -0.2354
12784W        W27915   1.188   4.009   3.799 -0.0996 -0.1608 -0.1773
12785W        W27916   9.498   4.857  16.428 -0.2695  0.0389 -0.2255
12786W        W27917  17.068  15.779   0.909 -0.2839  0.2007  0.0649
12787W        W27918   6.516   1.905  14.185  0.0015 -0.0641 -0.0869
12788W        W27919  15.848  15.657   2.329  0.0772 -0.1236 -0.1294
12789W        W27920  14.612   1.404   4.767  0.0188 -0.0090  0.0287
12790W        W27921   1.048   3.105  16.381 -0.0012 -0.0100 -0.0566
12791W        W27922   9.929   3.241   3.910  0.3807 -0.2089  0.1102
12792W        W27923   8.005  17.667   2.194 -0.2828 -0.0284  0.1511
12793W        W27924  12.502   6.324   1.209  0.0986  0.1504 -0.0896
12794W        W27925  10.285  17.190   5.132  0.1125 -0.2021 -0.0580
12795W        W27926   9.563  16.961  11.957  0.1627 -0.1189 -0.1641
12796W        W27927   1.675   3.880   1.168  0.3777 -0.0467 -0.0147
12797W        W27928  14.885  15.557  12.553 -0.0942 -0.3540  0.0052
12798W        W27929   2.363   6.637  10.790  0.1623  0.1829 -0.2528
12799W        W27930  14.386   6.304   5.373 -0.0316  0.2078 -0.4224
12800W        W27931   0.623  12.087   3.671  0.0646  0.1063  0.2142
12801W        W27932  12.761  13.658  16.626  0.0764 -0.1421 -0.0008
12802W        W27933  12.122  12.092  14.674 -0.3395 -0.0958 -0.1128
12803W        W27934   7.357   7.077   1.974 -0.2191 -0.1110 -0.1074
12804W        W27935  12.554  14.713  10.911 -0.4242 -0.4913 -0.0515
12805W        W27936   3.261   8.511   0.344 -0.1585  0.0091  0.1562
12806W        W27937  16.275   2.925  16.140  0.0282 -0.1657  0.0368
12807W        W27938  16.759   3.672  12.118 -0.0367 -0.2265  0.1198
12808W        W27939  13.003   8.136   0.819  0.0152 -0.0828  0.0343
12809W        W27940  15.268   9.582   1.282 -0.2238  0.0081  0.0345
12810W        W27941  11.290   2.669   3.710  0.0042  0.0388 -0.3328
12811W        W27942  14.150   2.251   5.406 -0.1882  0.0495 -0.0934
12812W        W27943   1.963  14.241   4.584  0.1623  0.0466  0.2180
12813W        W27944  10.479   3.636  11.407  0.2904 -0.1352  0.3908
12814W        W27945   9.435  13.859  15.318  0.2180 -0.0365  0.0555
12815W        W27946   4.269   5.191  16.359 -0.1360 -0.0778  0.0403
12816W        W27947   4.113   0.139   0.499  0.2474  0.0920  0.0780
12817W        W27948  10.743  15.084  13.464  0.1452 -0.0558  0.1674
12818W        W27949  14.151   4.225  13.234 -0.1842 -0.2441 -0.0458
12819W        W27950  11.426   1.660   5.480 -0.2209  0.1380 -0.2245
12820W        W27951   0.123  12.178   2.464 -0.1595 -0.0330  0.3874
12821W        W27952   2.181   3.589  14.157 -0.2825  0.0596 -0.2230
12822W        W27953   2.252  14.107   5.258  0.0297  0.0510 -0.0797
12823W        W27954   1.120  10.013  12.276 -0.1896  0.0472  0.2434
12824W        W27955   8.045   2.043   2.602  0.0171  0.2255 -0.1236
12825W        W27956  12.058  17.697  13.688 -0.1386 -0.0681 -0.0989
12826W        W27957   8.215   7.193  12.259 -0.2467  0.1918  0.0005
12827W        W27958   7.522   9.766  11.749 -0.1294  0.1612 -0.1733
12828W        W27959  16.503  10.629   2.759 -0.0573 -0.0652  0.2036
12829W        W27960  16.392  15.685   3.839  0.2844 -0.2694  0.0405
12830W        W27961  14.372   7.472   1.647 -0.2653  0.0789 -0.0676
12831W        W27962   6.795  12.499   5.006  0.2263  0.1057 -0.3286
12832W        W27963  15.630  16.207   2.401 -0.1177 -0.1086  0.0887
12833W        W27964   0.572  10.541  13.916 -0.1107  0.4179  0.1474
12834W        W27965  14.381  12.456   0.342 -0.0070  0.0271  0.0068
12835W        W27966   1.857  12.748   3.119  0.0245 -0.0588 -0.1113
12836W        W27967   8.495  11.214  13.746  0.1493  0.1605 -0.1626
12837W        W27968   2.029   8.003  15.065  0.3884  0.2735 -0.2133
12838W        W27969   8.318   1.683   0.850 -0.0271 -0.0968 -0.0299
12839W        W27970  14.705   4.323   1.022  0.0148  0.1956  0.1275
12840W        W27971  15.781   9.508   1.132  0.1037  0.1265  0.2267
12841W        W27972   5.313  15.400   6.185  0.3373  0.2461 -0.1143
12842W        W27973  12.330  17.335  15.558 -0.0202 -0.1932 -0.0399
12843W        W27974   7.371   1.761   0.193  0.0539 -0.4485 -0.1635
12844W        W27975   9.809  12.440   2.234 -0.1672  0.0033  0.0995
12845W        W27976  16.697  17.332  15.230  0.1860  0.2327  0.0084
12846W        W27977   5.451   2.247   3.359 -0.0130  0.0556 -0.1511
12847W        W27978   5.698  14.055   5.804  0.2372  0.3006  0.0007
12848W        W27979  14.070  11.579  14.336  0.0656 -0.1219  0.3034
12849W        W27980  16.748  17.511  15.723  0.0369 -0.0765  0.1709
12850W        W27981  10.383  12.093  15.206  0.0010  0.2956  0.1109
12851W        W27982  11.497   7.685  13.813  0.1277  0.1542 -0.0557
12852W        W27983  14.012  15.279   0.273 -0.2176  0.3003 -0.2348
12853W        W27984   3.061   2.089  12.857 -0.2685  0.0780 -0.2884
12854W        W27985   4.511   9.326   3.500  0.2143 -0.1175 -0.1264
12855W        W27986   0.681   1.496  13.404  0.0296  0.0834 -0.1922
12856W        W27987  14.956   6.388   3.784  0.1223  0.0862 -0.0608
12857W        W27988   3.424   4.439   3.202  0.2290 -0.1345  0.0808
12858W        W27989  16.840  16.808   3.128  0.0063  0.1256 -0.0986
12859W        W27990   8.717  16.927   0.887 -0.2831 -0.1185 -0.2058
12860W        W27991   8.059  10.878   1.270  0.1669 -0.0747 -0.1799
12861W        W27992   9.856   6.546  14.250  0.1427 -0.0139 -0.0662
12862W        W27993  12.607  17.309   2.626 -0.1341 -0.1734  0.0694
12863W        W27994  10.994   9.883  12.961 -0.2997  0.0103  0.1352
12864W        W27995   4.512  13.088  14.430 -0.0185 -0.0835  0.0713
12865W        W27996  11.657  12.710  12.027 -0.0351  0.3398  0.0186
12866W        W27997  12.581   7.494  16.073  0.1975 -0.2515 -0.0009
12867W        W27998   9.760  13.833   4.974 -0.1431  0.1414  0.0179
12868W        W27999   5.754   8.270   0.685  0.1426  0.0158  0.0474
12869W        W28000  16.998   4.167  10.896  0.0379 -0.3108 -0.0653
12870W        W28001  13.326  13.094   4.956  0.3734 -0.2951  0.0901
12871W        W28002  11.687  14.936   4.495  0.2299 -0.1007 -0.0419
12872W        W28003   7.052   6.992   5.413  0.0601  0.0176 -0.2379
12873W        W28004   2.443  15.672   0.734 -0.3888 -0.1484  0.0969
12874W        W28005   5.218   4.007  14.134 -0.4148  0.1367 -0.1431
12875W        W28006  14.824  13.136  14.144 -0.1484  0.2781  0.0926
12876W        W28007  17.512   6.769   5.397  0.0558 -0.0185  0.0559
12877W        W28008   8.761   8.457  12.832  0.1629  0.2422  0.0596
12878W        W28009  15.439   5.187   3.749  0.1021 -0.1665  0.0929
12879W        W28010  10.851  10.872  16.612 -0.3888  0.1999  0.4214
12880W        W28011   9.555   2.825   5.614 -0.0201  0.3469  0.0439
12881W        W28012   1.890   8.044  16.544  0.0010  0.2634  0.1355
12882W        W28013   1.064  16.012  11.952  0.2469  0.0159 -0.4195
12883W        W28014   2.884   2.524  10.401  0.1504  0.0081 -0.0601
12884W        W28015  14.593  15.111  16.849 -0.1327  0.0318  0.0587
12885W        W28016  13.126   1.019  12.873 -0.0809 -0.0331  0.0591
12886W        W28017   0.750   6.714  13.446 -0.1146 -0.0376  0.1175
12887W        W28018  17.674   8.202   0.160 -0.1894  0.3833  0.0672
12888W        W28019   1.556  10.707   4.686 -0.0450  0.2768 -0.0545
12889W        W28020   0.040   5.647   2.659 -0.0133  0.1812 -0.1899
12890W        W28021   9.956   9.014   2.395 -0.0837  0.0099  0.1864
12891W        W28022  16.135   8.000  11.709 -0.0751 -0.2657  0.1099
12892W        W28023  16.656  10.852  14.108  0.1358  0.1620  0.3291
12893W        W28024  10.824   7.552  16.549 -0.2730 -0.0408 -0.0789
12894W        W28025  17.530   7.278   5.444  0.1906 -0.1863  0.0517
12895W        W28026  10.506  15.073   4.566  0.0643  0.1571  0.2404
12896W        W28027  13.319   3.912   3.934  0.1910  0.1894 -0.0459
12897W        W28028   5.532   0.802   4.544  0.2341  0.0440 -0.1666
12898W        W28029   8.103  12.249   5.866 -0.0191 -0.0889  0.0198
12899W        W28030   9.583   5.484  13.760 -0.0765  0.1941 -0.0530
12900W        W28031  10.147  11.286   5.922  0.0817  0.1924  0.0930
12901W        W28032   9.660   9.946   3.758 -0.2708 -0.1729  0.0632
12902W        W28033   0.631  16.800   3.021 -0.1093 -0.0985  0.2493
12903W        W28034  17.536   3.588  14.908 -0.2036 -0.0283 -0.1810
12904W        W28035  10.624   7.685  14.303  0.0694 -0.2543  0.0620
12905W        W28036   3.715   4.013  10.902  0.0591 -0.2811  0.0251
12906W        W28037   0.117   6.689   4.995 -0.2783 -0.1483  0.0980
12907W        W28038   0.192   3.906  12.811  0.3426 -0.1472  0.0811
12908W        W28039   8.651   6.010   2.219  0.3073  0.0460 -0.0204
12909W        W28040   7.271   5.664   0.922  0.2398  0.0967  0.0522
12910W        W28041   4.519   4.886  13.120  0.1239 -0.0137 -0.0368
12911W        W28042   9.340   5.087   3.493 -0.4021 -0.0566 -0.0669
12912W        W28043   3.113   1.898   0.529  0.1275 -0.0993  0.1130
12913W        W28044   5.740  16.167  14.060 -0.0499  0.1676 -0.1901
12914W        W28045   6.526  11.508   1.426 -0.1186 -0.0557  0.2245
12915W        W28046  12.044  13.089   5.029 -0.1846 -0.0127 -0.1025
12916W        W28047  12.366  13.708   3.565  0.5269  0.5079 -0.1251
12917W        W28048   2.417   0.790  16.512  0.0006  0.1856  0.0537
12918W        W28049   8.763   4.849  10.904  0.0940  0.0365  0.4269
12919W        W28050   2.125   2.768   0.637  0.1179 -0.0742  0.0070
12920W        W28051   9.879   9.949   0.866  0.0559  0.1574 -0.0267
12921W        W28052  15.286   4.390   5.910  0.1222 -0.3281 -0.1545
12922W        W28053  15.534  14.865   5.891  0.0811 -0.1607  0.0690
12923W        W28054   0.442  11.069   0.483  0.0030 -0.1607 -0.2413
12924W        W28055   5.344   3.257   1.054  0.1007 -0.2961  0.0613
12925W        W28056  10.149   7.807  14.417  0.2805  0.2593  0.2296
12926W        W28057  15.066   4.629  16.600  0.1296  0.2063 -0.2278
12927W        W28058   0.957  13.345  16.324  0.1198  0.2016 -0.0851
12928W        W28059   0.010  13.618   2.543  0.0953 -0.0643  0.2514
12929W        W28060  11.436  12.776   5.538  0.1431 -0.3322 -0.4419
12930W        W28061  16.145  14.905   4.151 -0.0896 -0.2954 -0.1920
12931W        W28062  13.508   9.073   2.806 -0.0760  0.0652 -0.0777
12932W        W28063   4.835   6.795   0.403 -0.4841  0.2893 -0.1682
12933W        W28064  11.244   5.479   0.348  0.0643 -0.0522  0.0084
12934W        W28065  13.791  12.542   1.628  0.1046  0.1334  0.1364
12935W        W28066  14.342  12.538  11.685  0.0562  0.1279  0.1884
12936W        W28067   7.552   8.409   3.416 -0.0041  0.2476  0.0274
12937W        W28068  17.479  15.483  12.324 -0.0793 -0.0378  0.0750
12938W        W28069  12.365   2.093   0.780 -0.0068 -0.1880 -0.2354
12939W        W28070  15.280  13.659   5.393 -0.1241  0.2450 -0.1555
12940W        W28071  15.338   9.777   5.003  0.0940  0.3020 -0.1644
12941W        W28072   3.561  16.443  13.874  0.1874 -0.1799 -0.0187
12942W        W28073   1.614   6.583   5.006 -0.1215  0.1233 -0.0920
12943W        W28074  10.013  12.163  13.787  0.1870  0.2065 -0.1905
12944W        W28075  10.240  10.646   2.811 -0.1688 -0.2044 -0.1981
12945W        W28076  12.763  11.009   5.971  0.3154  0.1193  0.0392
12946W        W28077   8.513   0.698  12.795 -0.0951 -0.2677  0.2173
12947W        W28078   6.043   8.979   4.533 -0.2242 -0.3228 -0.0310
12948W        W28079   5.704  10.105   1.206  0.1182  0.2474  0.0596
12949W        W28080   0.827  11.905   1.837  0.0711  0.2051  0.1416
12950W        W28081  17.677   7.905  11.995  0.2095 -0.1581  0.0001
12951W        W28082   1.330   7.922   2.129  0.0820  0.0900  0.1436
12952W        W28083  11.787   0.191  12.455 -0.3244 -0.2001  0.3273
12953W        W28084  15.698   7.387  13.401 -0.1632 -0.1812  0.0175
12954W        W28085  15.943  15.331  12.350  0.0851  0.1397  0.2542
12955W        W28086   7.192  17.384   1.947 -0.1603 -0.0615  0.0936
12956W        W28087   6.961  15.414   0.836  0.1123 -0.0225 -0.0895
12957W        W28088  16.438   9.458  16.401  0.0542 -0.0915 -0.0929
12958W        W28089  11.845   7.248   4.310 -0.0553 -0.1198  0.0349
12959W        W28090  12.738  17.495   5.472  0.2844 -0.1714 -0.0932
12960W        W28091   8.654   1.721  11.844  0.0860 -0.0009  0.1706
12961W        W28092   6.210   7.179   0.336 -0.0489 -0.1562 -0.2529
12962W        W28093  10.397   8.508   1.155  0.0957 -0.2553  0.0087
12963W        W28094   7.412   5.300  12.973 -0.3114 -0.0702  0.2678
12964W        W28095   8.775   6.190   3.522 -0.0627  0.0433 -0.1017
12965W        W28096   5.365  15.691   4.193  0.0972  0.1346  0.1435
12966W        W28097  11.822   5.008  16.124  0.0979  0.1834 -0.0832
12967W        W28098   4.767  14.730  14.538 -0.0023 -0.2439 -0.0721
12968W        W28099   6.568   0.043  15.567 -0.3251  0.1256  0.0160
12969W        W28100   5.244   6.812  15.141 -0.0995  0.0890 -0.0081
12970W        W28101  17.324   2.008   1.498  0.0349 -0.0312 -0.1390
12971W        W28102   9.073  10.843  13.178 -0.1117  0.1005 -0.0405
12972W        W28103   2.800  14.303   2.842  0.3128 -0.2860  0.1198
12973W        W28104   8.440  10.145  14.233 -0.0883  0.3579 -0.2500
12974W        W28105  10.731  17.031   2.518 -0.1256  0.1883  0.1219
12975W        W28106  11.416  10.081   5.791 -0.1822 -0.0263 -0.1518
12976W        W28107   5.183  16.481   3.613  0.1785 -0.0242  0.1408
12977W        W28108   0.924  12.697  11.237 -0.0425 -0.0388 -0.1993
12978W        W28109   2.490  11.336   5.244  0.1196 -0.0065 -0.2356
12979W        W28110  10.674   1.051   6.718 -0.3287  0.1125 -0.2891
12980W        W28111   3.684   6.471   4.847 -0.4617 -0.0018 -0.0765
12981W        W28112   1.544   1.006   2.520  0.1655  0.3378 -0.0691
12982W        W28113   5.860   6.439  14.941 -0.4580 -0.1516 -0.3061
12983W        W28114   5.217  15.727  15.606  0.0401 -0.0755 -0.0534
12984W        W28115   6.163  13.539  16.251 -0.0902  0.2322 -0.0669
12985W        W28116   5.848   5.760  11.977 -0.1294 -0.1155 -0.1374
12986W        W28117  15.889  12.637  11.360 -0.2360  0.4067  0.0239
12987W        W28118   8.263   8.720   4.622  0.2540  0.0770 -0.2321
12988W        W28119   0.402   2.243   1.166 -0.0610  0.2478 -0.1864
12989W        W28120  10.887   2.765  14.200  0.1828 -0.0350  0.0770
12990W        W28121   9.634   1.283  15.011  0.0133 -0.0629 -0.1439
12991W        W28122   5.105  11.806   2.305 -0.0910 -0.0453  0.1849
12992W        W28123  12.438  12.325  16.229 -0.1524  0.1601  0.1184
12993W        W28124   5.505   5.405  15.792  0.3076 -0.0537 -0.1294
12994W        W28125  14.971  13.424  13.647 -0.1511 -0.0996  0.3436
12995W        W28126  17.455   3.031  11.894 -0.1243  0.4197  0.2547
12996W        W28127   9.914   3.380   5.016  0.2916 -0.0600  0.0323
12997W        W28128  16.795  12.846   2.419 -0.0760  0.0700 -0.2149
12998W        W28129  17.152   8.881   2.926 -0.2167  0.1412 -0.0696
12999W        W28130  13.697   9.761   0.094  0.2991 -0.0395 -0.2560
13000W        W28131  17.472   9.578  10.977 -0.1669  0.4674 -0.0662
13001W        W28132   0.575   5.589  15.809  0.2421  0.1814 -0.1053
13002W        W28133   6.966  17.108  16.235 -0.2770  0.1377  0.0906
13003W        W28134   9.782   6.210   0.396  0.3700  0.1574 -0.0294
13004W        W28135   5.897  14.478  16.369 -0.0476 -0.1479  0.1179
13005W        W28136  12.007  11.519   4.626 -0.0062 -0.1018  0.0510
13006W        W28137  16.161   3.382  13.219  0.0056  0.0817 -0.0213
13007W        W28138   9.571  14.718   3.830  0.0633 -0.1313 -0.0162
13008W        W28139  12.195  13.620   5.129  0.0269 -0.0224 -0.0439
13009W        W28140   5.720   5.015  13.558 -0.1167 -0.1841  0.0072
13010W        W28141   2.532   0.388   0.080  0.1294 -0.3573  0.0202
13011W        W28142  16.184   5.375  13.299 -0.1781  0.0383  0.2100
13012W        W28143  13.970  17.526   1.375  0.0602 -0.1608 -0.4038
13013W        W28144   5.214  10.890  13.246  0.1582  0.1855 -0.1993
13014W        W28145   2.589   8.900  12.449  0.0869  0.1073  0.1528
13015W        W28146  17.659   1.388  16.026 -0.2791  0.4674 -0.2461
13016W        W28147   9.331   1.341  12.174 -0.2851  0.1192 -0.3699
13017W        W28148   9.558   4.783  15.096 -0.1672  0.2906 -0.1090
13018W        W28149  12.552  14.452   2.577  0.2236 -0.2279  0.2438
13019W        W28150  12.457   2.072  12.743 -0.1182  0.0624  0.0584
13020W        W28151  12.949  17.183   0.387  0.2868  0.1972 -0.3690
13021W        W28152   2.241   8.179  15.478  0.0561  0.0413 -0.1253
13022W        W28153  16.658   7.590  11.160 -0.1238 -0.3463 -0.1944
13023W        W28154   7.177   4.977  13.353 -0.2049 -0.2714 -0.3199
13024W        W28155   3.684   1.971   1.137 -0.1519  0.1624 -0.3136
13025W        W28156  16.929  13.845  16.758  0.1238  0.1520 -0.2112
13026W        W28157   7.856  14.382   3.370  0.0069 -0.3428  0.0648
13027W        W28158   4.896  12.223   0.069 -0.1157  0.0819  0.1236
13028W        W28159   5.669   7.703   1.401  0.0176 -0.2194 -0.1012
13029W        W28160   5.552  15.711  12.326  0.0640  0.2499 -0.2649
13030W        W28161   7.669  14.865   1.290 -0.0497  0.0942  0.0485
13031W        W28162  15.308  14.706   3.045  0.0515 -0.1066  0.0474
13032W        W28163   3.781  13.918  12.930 -0.1090  0.3152  0.1366
13033W        W28164  16.760  14.628  14.173  0.4818  0.0422 -0.2720
13034W        W28165  12.588   0.575   2.762  0.0936 -0.2533  0.0357
13035W        W28166  15.872  17.520   1.698 -0.2096  0.1674 -0.0416
13036W        W28167   7.252   9.594  13.403 -0.0473  0.1333 -0.3132
13037W        W28168  11.542  12.180   1.216 -0.0596 -0.2692 -0.0437
13038W        W28169  11.683   1.713  15.156 -0.0158 -0.0769  0.0083
13039W        W28170  10.467  14.964  16.605 -0.0926 -0.0269  0.1198
13040W        W28171  16.886  11.359  16.423  0.2898 -0.3360 -0.1180
13041W        W28172   4.522   6.287  15.261  0.2820  0.1202 -0.2535
13042W        W28173  13.649  13.957  11.715  0.0016 -0.1080  0.0240
13043W        W28174   3.767   3.880   1.401  0.0374  0.0793 -0.1476
13044W        W28175   4.814   1.031  14.195 -0.1778 -0.4239 -0.1351
13045W        W28176  12.397   8.821   4.216  0.1952 -0.6018  0.3846
13046W        W28177  14.454  13.383   0.704 -0.0019 -0.0364 -0.0350
13047W        W28178   5.824   8.615   5.677  0.2093  0.2398 -0.1188
13048W        W28179   4.277   8.298   2.084 -0.0196  0.0297 -0.0691
13049W        W28180   9.591   2.832   2.743 -0.0418  0.1231 -0.0694
13050W        W28181  12.727   7.264  10.401 -0.0314  0.0682  0.1357
13051W        W28182  17.219   7.973   5.081 -0.0833  0.0889 -0.1031
13052W        W28183  12.321   9.063   3.350 -0.2527 -0.0818  0.0079
13053W        W28184  14.637  14.582   5.420  0.0943 -0.0068 -0.0647
13054W        W28185   9.541   6.001  12.372  0.0584 -0.0411 -0.4746
13055W        W28186   7.446  14.571   3.073  0.0279  0.1468  0.0867
13056W        W28187  13.680   5.581  11.445 -0.0553 -0.0757  0.1363
13057W        W28188   2.071   2.327   0.899 -0.1534 -0.1370 -0.3553
13058W        W28189   6.493  10.369   3.925 -0.1631 -0.1107  0.0192
13059W        W28190   6.484  10.612   5.689  0.2136  0.2050  0.1890
13060W        W28191   6.590   0.260   4.496  0.0308 -0.0544 -0.1999
13061W        W28192  14.389   7.721  15.540  0.1316 -0.0122  0.2808
13062W        W28193   4.889  10.436   4.805 -0.1286  0.1090 -0.1270
13063W        W28194  15.425   0.721  13.244  0.2212  0.3938 -0.0792
13064W        W28195   7.284   8.198  12.400  0.1568  0.0812 -0.0817
13065W        W28196  13.491   9.921  14.964 -0.3246  0.2863 -0.0999
13066W        W28197  10.081  17.605   1.844 -0.0927  0.1870 -0.0969
13067W        W28198   6.074   4.977  14.105 -0.0225 -0.0954  0.1615
13068W        W28199  15.438  12.922   5.146 -0.2013  0.0395 -0.1620
13069W        W28200   5.131   0.017  14.869 -0.3395 -0.2281  0.1235
13070W        W28201  16.315  11.722   4.295  0.4251  0.2230 -0.0205
13071W        W28202  14.906   6.371   5.482 -0.2965  0.3737  0.2231
13072W        W28203  16.085  13.712   3.251 -0.1851  0.0659  0.2100
13073W        W28204   1.981   9.169  15.714  0.1609 -0.1280 -0.0988
13074W        W28205   3.601   1.457   1.092  0.1040 -0.2054 -0.1796
13075W        W28206   4.748  14.249  13.022  0.0858 -0.0261  0.1198
13076W        W28207  12.145   2.069   2.837 -0.0543  0.2126  0.0989
13077W        W28208  13.094   4.368  12.413  0.0935  0.1122 -0.0980
13078W        W28209   0.360   5.083   9.797 -0.0433  0.3044 -0.0605
13079W        W28210   1.882   4.242  16.224  0.1446  0.1558 -0.2128
13080W        W28211   9.145   7.874  15.992 -0.0812  0.2605 -0.0631
13081W        W28212  10.323  15.970   1.782  0.1835 -0.0208  0.1613
13082W        W28213   7.138   3.559  11.706 -0.3040 -0.0943  0.3472
13083W        W28214   8.903  16.598  12.481  0.2442 -0.3360  0.1960
13084W        W28215  12.164   9.830  11.552 -0.3490 -0.0376 -0.1558
13085W        W28216   7.949  16.913  11.941 -0.2905  0.1399 -0.0126
13086W        W28217   2.701  16.449  14.301  0.1568  0.0407 -0.0297
13087W        W28218  10.867  10.085   5.025 -0.2234 -0.0972  0.4243
13088W        W28219  12.030   1.857   3.751  0.0841  0.2106  0.0973
13089W        W28220  14.043  12.694   3.373 -0.0875 -0.0641 -0.0528
13090W        W28221  10.705  11.857   1.032  0.1000  0.0654  0.4482
13091W        W28222   4.652   2.914  14.407 -0.2831  0.0676 -0.0095
13092W        W28223  14.572   4.826   0.997  0.1215  0.1648  0.0535
13093W        W28224  11.929  13.783  12.722 -0.1341  0.0916  0.1875
13094W        W28225   5.499  10.066   3.680 -0.1232 -0.1418  0.0569
13095W        W28226  10.253  15.118   1.172 -0.2184 -0.2370  0.2082
13096W        W28227   5.391  15.828   1.698 -0.6461 -0.0146 -0.2714
13097W        W28228  10.470   6.112  16.107 -0.0062  0.0262  0.2003
13098W        W28229   3.826  10.292  14.903  0.2087  0.2640 -0.2382
13099W        W28230   0.587   5.178   4.071 -0.2749  0.3952  0.0408
13100W        W28231  15.577   7.243   3.535 -0.0262 -0.1984  0.0828
13101W        W28232   7.458  10.086  13.060 -0.0484  0.0526  0.0508
13102W        W28233   4.974  13.744   0.345  0.0621 -0.1483  0.0028
13103W        W28234  11.001  10.255   3.505  0.2997 -0.0993 -0.1474
13104W        W28235  15.066  15.597  16.309 -0.0535 -0.0025 -0.1239
13105W        W28236   4.794  14.266  14.446  0.2281 -0.2058  0.1388
13106W        W28237   3.477  12.850   2.634  0.2007 -0.0499 -0.1571
13107W        W28238   5.681  16.370   2.208  0.0924 -0.1925  0.4632
13108W        W28239   0.343   5.489   1.483 -0.2181  0.2298 -0.2414
13109W        W28240   0.175   1.651  11.965 -0.2413  0.0459  0.1497
13110W        W28241  11.476   5.106   3.567  0.0876 -0.0270  0.1833
13111W        W28242   5.697   1.242   4.867 -0.0271  0.1048 -0.2675
13112W        W28243  12.664  13.974   1.891 -0.0043  0.4319  0.0590
13113W        W28244  17.489   2.682   2.380  0.0139  0.0504 -0.0487
13114W        W28245  15.880   6.090   5.211  0.0700  0.2283  0.1231
13115W        W28246   9.819  16.631   1.349 -0.0020 -0.0716 -0.0950
13116W        W28247  11.219   9.947  16.433  0.1443  0.2657  0.1796
13117W        W28248   4.364   9.378   4.389 -0.1102 -0.0380 -0.1226
13118W        W28249  12.680   0.679   4.342 -0.0615 -0.0725 -0.1791
13119W        W28250   1.444   7.212   0.037 -0.0885 -0.0144  0.1009
13120W        W28251   7.096  13.863   3.429  0.2899  0.1033  0.1164
13121W        W28252   1.053   5.355  14.480  0.0091 -0.0168 -0.0772
13122W        W28253   5.734  12.802   4.473  0.0879  0.1287  0.0859
13123W        W28254   7.191  17.394  15.917  0.2749  0.0815  0.1878
13124W        W28255   9.613  10.590  11.698 -0.0327  0.1640  0.1118
13125W        W28256   6.808  11.967   0.300 -0.1038 -0.1209 -0.0915
13126W        W28257  11.569  10.272   5.135 -0.0254 -0.2205  0.1067
13127W        W28258  15.871   0.519  16.440 -0.1420 -0.1527 -0.2098
13128W        W28259   8.399   6.921  14.093 -0.0210  0.0788  0.0823
13129W        W28260   0.736   7.496  14.089 -0.2368  0.2128 -0.1398
13130W        W28261   3.593  15.039   3.018  0.0460  0.0423  0.1888
13131W        W28262  12.165  17.680   2.464 -0.0764  0.0459  0.1616
13132W        W28263   6.395   0.752   1.670  0.0798 -0.3743  0.3899
13133W        W28264  17.587  12.773   3.549 -0.3754 -0.1062  0.1809
13134W        W28265   9.012   2.387   4.872 -0.1670  0.0624  0.0476
13135W        W28266  11.305  12.407  13.657  0.2398  0.0106 -0.0239
13136W        W28267   7.609  15.687   3.109  0.0166  0.0960 -0.2415
13137W        W28268   0.015  17.571  11.369 -0.0496 -0.1092  0.3729
13138W        W28269   7.813   9.361   1.233  0.1178 -0.0593 -0.2845
13139W        W28270   1.963  10.696   3.112  0.1380 -0.2301  0.1449
13140W        W28271   8.432   5.288   2.692  0.1768 -0.1176 -0.1238
13141W        W28272  10.868   3.139   0.527 -0.1374 -0.4639  0.1563
13142W        W28273   0.878  14.137  11.303  0.0040  0.1916 -0.0826
13143W        W28274   1.525  12.076   0.430 -0.0943  0.3273  0.1387
13144W        W28275  17.550  17.033  14.941 -0.2774 -0.2792 -0.0634
13145W        W28276   0.564  12.356   2.376  0.0081 -0.2494  0.1843
13146W        W28277  14.163  11.344  11.343 -0.2330 -0.0612 -0.1455
13147W        W28278   7.785  17.178   1.967 -0.1118 -0.0699  0.4154
13148W        W28279   9.065   6.901  16.175 -0.2837  0.1102  0.2553
13149W        W28280   0.666  16.682   1.802  0.0205 -0.0766  0.2511
13150W        W28281  15.079   6.722   0.335 -0.0897 -0.1793 -0.3117
13151W        W28282   8.511   2.914  14.221  0.1102 -0.2106  0.0667
13152W        W28283  15.393   8.378  13.329  0.0011 -0.0449 -0.3089
13153W        W28284   5.512  13.120   5.521  0.0864 -0.0732 -0.0950
13154W        W28285   5.418   2.239  15.320  0.0088  0.2294 -0.2897
13155W        W28286  17.415  17.052  10.527 -0.0580  0.0290 -0.0211
13156W        W28287   2.776  14.903  12.017  0.1871  0.1607  0.1276
13157W        W28288  14.170   4.878   0.676 -0.0451  0.0747  0.0018
13158W        W28289  11.617   3.563   0.608  0.0073  0.1952 -0.1647
13159W        W28290   8.455   9.011  14.822  0.0284 -0.1275 -0.4580
13160W        W28291  16.040   5.083  16.101  0.0393  0.4159  0.2162
13161W        W28292   1.562  17.061  15.064  0.2004  0.2123 -0.0091
13162W        W28293   1.604   1.404  13.986 -0.5013 -0.0383  0.0188
13163W        W28294   9.475   4.054  12.520  0.0611  0.1637 -0.0682
13164W        W28295  12.728  14.268   4.249 -0.0069 -0.1695  0.0049
13165W        W28296  11.152   9.643   2.426  0.1544 -0.1936  0.1650
13166W        W28297   6.336   8.825   4.122  0.2658 -0.0146  0.0566
13167W        W28298  14.167  12.405   5.262 -0.3748 -0.0995 -0.0997
13168W        W28299  16.094   0.364   5.307 -0.0701 -0.0445  0.0305
13169W        W28300   5.197   6.060  16.285 -0.0090  0.0701 -0.0022
13170W        W28301  16.746  17.058  13.345 -0.0942 -0.1855  0.2001
13171W        W28302   9.882  11.203   5.439 -0.0282  0.3118 -0.0255
13172W        W28303  15.048   3.542   4.829  0.2873  0.2642 -0.1156
13173W        W28304   9.465   5.405  16.490 -0.0778 -0.1736 -0.1564
13174W        W28305  15.972  16.750   4.222  0.4235  0.1383 -0.1346
13175W        W28306  12.789  17.101  14.696  0.0149  0.0100 -0.2372
13176W        W28307   4.665  16.378   3.740 -0.0904 -0.0495 -0.0353
13177W        W28308   2.147  10.212  16.230 -0.3392 -0.0399 -0.0184
13178W        W28309  11.603   2.298  14.106 -0.3327  0.1167 -0.5366
13179W        W28310  11.266   3.953  10.270  0.0031 -0.1773 -0.1519
13180W        W28311   8.501  15.502  16.796  0.0218 -0.1963  0.0841
13181W        W28312   3.006  16.821   3.075  0.1421 -0.1043  0.1930
13182W        W28313  16.101   6.201  14.994 -0.3659 -0.1475  0.1077
13183W        W28314   8.925  15.719  16.214 -0.0001  0.2879  0.2613
13184W        W28315   3.795   5.961  15.609  0.1835 -0.0588  0.0659
13185W        W28316   7.978   6.141  14.975 -0.2128  0.0676  0.0627
13186W        W28317   0.949  14.701   3.837 -0.0712 -0.0171  0.0105
13187W        W28318   2.251   7.527   1.419 -0.1570  0.0950 -0.1070
13188W        W28319  12.241  16.696   4.623 -0.1499  0.0823 -0.2070
13189W        W28320  11.232   4.049   2.353  0.1853 -0.3771 -0.2939
13190W        W28321  10.588   7.465  11.285  0.0641  0.1571  0.2076
13191W        W28322  16.187  11.041  16.796 -0.0251  0.1683 -0.2435
13192W        W28323   7.611   5.465  13.973 -0.0028 -0.1551  0.0115
13193W        W28324  14.585   5.579  11.755  0.1681  0.2771  0.1712
13194W        W28325   1.041  17.070   0.002 -0.1869 -0.0329 -0.0627
13195W        W28326   5.508   6.593  12.365 -0.1336 -0.1987 -0.2983
13196W        W28327   8.736   0.345  15.631  0.2056  0.0169 -0.0194
13197W        W28328  12.451  14.254  12.735 -0.1044  0.0938  0.0637
13198W        W28329   1.304  12.691  12.376 -0.1363 -0.0835 -0.2851
13199W        W28330   2.595   7.560  13.728 -0.0244 -0.0270  0.0688
13200W        W28331  16.190   9.528  16.820  0.2540  0.0148 -0.0256
13201W        W28332   1.841   2.968   2.690 -0.2394  0.3139 -0.0947
13202W        W28333  12.671   4.642   0.824 -0.0327  0.0581 -0.0637
13203W        W28334   6.873  16.223  13.608  0.0564  0.1572  0.0643
13204W        W28335   3.969  10.519  11.249  0.2525  0.1598 -0.1741
13205W        W28336   4.018  14.841   5.705  0.0257 -0.2634 -0.0059
13206W        W28337   4.534   2.341  15.832  0.0424  0.2381 -0.0748
13207W        W28338   1.119  11.207  15.903 -0.0526  0.2540 -0.0778
13208W        W28339  10.053   9.877  16.042  0.2732 -0.0178 -0.1605
13209W        W28340   2.879  14.714  16.837 -0.1228 -0.0620 -0.1988
13210W        W28341   9.731   4.052   2.821  0.1015 -0.0188 -0.1637
13211W        W28342   9.355  13.357  16.071  0.1390  0.1482  0.1949
13212W        W28343  12.220   0.163   5.296  0.0323  0.0870 -0.0217
13213W        W28344   3.284   9.496   0.246 -0.1075 -0.1635  0.1510
13214W        W28345   2.460   2.184   3.650  0.2518  0.1360  0.0994
13215W        W28346   3.428   9.479  12.031  0.1570  0.0456 -0.2198
13216W        W28347  17.575   5.255  11.534  0.0823 -0.0580 -0.0279
13217W        W28348   9.482   2.018   3.597 -0.3099  0.0775 -0.0518
13218W        W28349  16.875   5.383  16.161 -0.0167 -0.2659  0.0701
13219W        W28350   7.722   0.358   5.428 -0.0321 -0.2048  0.3520
13220W        W28351  12.627  10.123   4.090  0.2707 -0.3200  0.2063
13221W        W28352   2.577  16.122   6.620  0.2963  0.2881 -0.2493
13222W        W28353  15.571   1.789  15.329  0.1448  0.0501 -0.0673
13223W        W28354   4.484   6.321   2.054  0.3022  0.0283  0.2046
13224W        W28355  11.055  12.306   4.237 -0.1034  0.1045  0.3327
13225W        W28356   5.583  14.928   0.758  0.0649  0.1669  0.2995
13226W        W28357   1.675   7.028  12.291 -0.2738 -0.2266 -0.0522
13227W        W28358   2.492  15.931  16.415 -0.2002 -0.2455  0.3880
13228W        W28359  13.603   1.005   4.030  0.2693  0.2880  0.5015
13229W        W28360   9.773  17.510   3.902  0.3327 -0.0240 -0.0718
13230W        W28361  12.051   8.606   0.247 -0.3859  0.1305  0.3500
13231W        W28362  12.947   5.941   2.877  0.2186  0.0811 -0.0341
13232W        W28363   1.822   0.712   3.415  0.1977  0.0965 -0.2058
13233W        W28364   6.861   9.925  11.159  0.4142 -0.0569 -0.0251
13234W        W28365  15.859   6.402   1.608  0.0066 -0.1980 -0.0731
13235W        W28366   3.677   0.076   0.755 -0.0908  0.0369 -0.1962
13236W        W28367  17.275  12.534   6.209 -0.3657  0.0925  0.0459
13237W        W28368  10.385   6.669  11.872  0.3614 -0.1484 -0.1125
13238W        W28369   8.037   2.293  13.562  0.0677 -0.0069  0.0781
13239W        W28370   8.431  11.657  12.472 -0.2951  0.2181 -0.0733
13240W        W28371  11.872   0.539  15.396 -0.0694 -0.2299  0.0529
13241W        W28372  13.703  12.138  12.203 -0.2770 -0.2382 -0.5143
13242W        W28373  10.788   2.324  16.495 -0.0736  0.0392  0.2408
13243W        W28374   4.696   3.681   1.849 -0.0779  0.0498  0.1922
13244W        W28375   1.658  16.527  12.752 -0.2537  0.3051  0.0133
13245W        W28376   7.374   9.097   0.062 -0.1475  0.0586  0.2690
13246W        W28377  10.559   2.066   0.798  0.5190 -0.2657 -0.1302
13247W        W28378   5.673   5.582   2.491 -0.3203  0.1185  0.2020
13248W        W28379   1.844   4.068   0.282  0.2228 -0.2018 -0.0467
13249W        W28380   1.646  11.502   2.893 -0.2465  0.2684 -0.0287
13250W        W28381  14.789   4.776   2.130 -0.0508 -0.1687  0.2445
13251W        W28382  11.168  17.001  15.206  0.1086  0.1659  0.0663
13252W        W28383   8.056   9.632   2.109  0.0964  0.2441  0.2900
13253W        W28384  15.330   1.954   5.204  0.1554 -0.0385  0.1417
13254W        W28385   8.738  13.281  14.084  0.1149  0.0151  0.1910
13255W        W28386   2.521   6.556  16.560 -0.1042 -0.2043  0.0598
13256W        W28387   6.772  11.276   2.145  0.1238  0.2675  0.4531
13257W        W28388   5.065  14.853  11.451 -0.1203 -0.1126  0.2429
13258W        W28389  14.483   5.696   4.866  0.0127 -0.0004 -0.2683
13259W        W28390   4.741   2.407   3.925  0.1784  0.0653  0.1968
13260W        W28391  13.057   3.051  16.576  0.1721  0.4322 -0.0228
13261W        W28392   6.257  13.887  13.778  0.0668  0.1527 -0.0613
13262W        W28393  15.941   9.112   4.765 -0.1224  0.0583 -0.2490
13263W        W28394  16.315   1.340  15.549  0.0877 -0.2638 -0.0342
13264W        W28395   9.063  11.804   5.105  0.0387 -0.1620 -0.2250
13265W        W28396  13.218  13.440  16.840 -0.0901 -0.1326 -0.0216
13266W        W28397   3.111   9.693  13.020  0.1050 -0.1326 -0.1258
13267W        W28398   2.080  15.286   1.032 -0.0206  0.0629  0.0720
13268W        W28399   1.608   2.708  15.559 -0.2036  0.1451 -0.1662
13269W        W28400  12.775   6.617  13.046 -0.3595  0.0505 -0.0607
13270W        W28401   9.998  14.591   3.206 -0.0938  0.1366 -0.1449
13271W        W28402  16.082  10.584   1.352  0.2404  0.0307 -0.0150
13272W        W28403   7.352  15.211  14.325 -0.4833 -0.1506  0.0104
13273W        W28404  11.810   3.128   0.375 -0.2634 -0.1119 -0.1310
13274W        W28405  16.969  14.486   3.790  0.0592  0.0640  0.0932
13275W        W28406   2.239  12.025   4.662  0.0800  0.1353  0.0370
13276W        W28407   2.723  14.135   3.380 -0.1002 -0.2736 -0.0068
13277W        W28408  13.534  11.806  15.102 -0.0147 -0.3601  0.0035
13278W        W28409  16.929   4.472   0.516  0.1453 -0.1792  0.4285
13279W        W28410  10.087   8.212   2.444 -0.3009  0.0355  0.0738
13280W        W28411  13.353   7.898  13.244 -0.0094  0.3200  0.0727
13281W        W28412   8.948   7.715  10.970  0.2246 -0.0464 -0.1412
13282W        W28413   0.884  11.769  16.723  0.1364  0.2839  0.0430
13283W        W28414   7.209  11.108   0.007 -0.0272  0.2491 -0.0507
13284W        W28415   2.881  15.457   3.524 -0.0018 -0.4550  0.1494
13285W        W28416   1.529   0.799   3.862  0.0807  0.2332  0.0879
13286W        W28417   7.904  15.665   5.371 -0.0283  0.3308 -0.0815
13287W        W28418   5.036   4.073   5.191  0.0827  0.0964 -0.1410
13288W        W28419   8.246   2.173  14.019  0.3358  0.0893 -0.0755
13289W        W28420   1.808  10.028  11.809 -0.1962 -0.0862 -0.0216
13290W        W28421  14.921  10.976   4.615  0.0876  0.2083 -0.0724
13291W        W28422   8.928   9.434   3.179 -0.2056 -0.3959  0.1126
13292W        W28423   2.807  10.630   1.178 -0.1302  0.2745  0.0705
13293W        W28424   0.814  17.075   3.448 -0.1166  0.1896  0.1411
13294W        W28425   4.011  13.355  12.268 -0.1977 -0.1743  0.3332
13295W        W28426   9.279  11.520  11.437  0.2617  0.1337  0.0698
13296W        W28427   8.009   3.935   5.239 -0.3430 -0.4081  0.1290
13297W        W28428   2.795   7.022  16.535  0.0922  0.3547 -0.0800
13298W        W28429   2.033  11.225   2.034  0.0070 -0.0021  0.0865
13299W        W28430  11.579  10.815   5.222 -0.0094  0.0525  0.3513
13300W        W28431   9.722   7.921  14.031  0.2096 -0.1022  0.0028
13301W        W28432   5.622   0.458   2.248 -0.0808  0.1012  0.0043
13302W        W28433  16.166   6.671  16.629 -0.0821 -0.0840 -0.1140
13303W        W28434   0.520  10.109  15.157 -0.0844  0.1036  0.1520
13304W        W28435   0.292  13.383   1.283  0.1713 -0.3702 -0.1924
13305W        W28436  13.609  17.273   5.766  0.1027  0.1637  0.1911
13306W        W28437   3.942   7.158  12.966 -0.0880 -0.0494 -0.1269
13307W        W28438   7.066   0.804  12.040 -0.0945  0.1870 -0.2059
13308W        W28439   3.814   7.713  12.655  0.0202 -0.0022  0.1245
13309W        W28440  14.085   8.703  14.097  0.2500  0.3664  0.1084
13310W        W28441   1.521  12.492   5.913  0.1225 -0.2750  0.1650
13311W        W28442  12.302  11.928  14.014  0.0734  0.1721  0.2364
13312W        W28443  15.185   3.772  13.113 -0.2937  0.0893 -0.3812
13313W        W28444  10.955   8.725   4.308 -0.0939  0.3261 -0.0530
13314W        W28445  15.722  14.808  16.617  0.0321  0.2226  0.0109
13315W        W28446   8.224   4.076   1.270  0.1411  0.0691 -0.3426
13316W        W28447   1.763  10.258   2.231  0.2292  0.1176 -0.0784
13317W        W28448   9.122   9.577  15.784 -0.1077 -0.1528  0.1381
13318W        W28449  13.318   4.324   2.947 -0.1195 -0.0934 -0.3772
13319W        W28450  14.851  11.514   4.906  0.3006 -0.0397  0.0929
13320W        W28451  16.613   2.819  16.899  0.2329  0.3812 -0.1141
13321W        W28452  12.120  14.844   5.983 -0.2401  0.0950  0.1531
13322W        W28453   4.721   8.923   5.251  0.0534  0.0141 -0.0790
13323W        W28454  14.334  15.951  14.948  0.1842  0.0096  0.2020
13324W        W28455   7.728  16.829  11.488  0.3233 -0.1348  0.0371
13325W        W28456  12.070  17.435  14.164 -0.1028  0.0877  0.2750
13326W        W28457  14.104  14.511  13.448 -0.1451 -0.2430 -0.1706
13327W        W28458  12.899  14.426  11.246  0.2592  0.1243  0.1434
13328W        W28459   3.072   3.607   6.122 -0.0686  0.0779  0.0952
13329W        W28460  14.888   6.931  11.983  0.1091 -0.3033 -0.3704
13330W        W28461  11.967   7.305  16.296 -0.0248  0.0975 -0.1331
13331W        W28462  12.104  14.900   3.332 -0.1033  0.3233 -0.2270
13332W        W28463  12.160   8.937   0.596  0.2606 -0.2783 -0.0704
13333W        W28464   4.997   7.108   3.255 -0.1553  0.1252 -0.0276
13334W        W28465   5.605   2.750   3.990 -0.0456 -0.1279 -0.0179
13335W        W28466   7.013  16.203  14.068 -0.2305  0.1169  0.0196
13336W        W28467   2.110   4.037   3.703  0.1151  0.3014 -0.1127
13337W        W28468   4.793   0.567  12.218  0.0188  0.1050  0.0739
13338W        W28469   3.574  10.200  11.579  0.0173 -0.0867 -0.0486
13339W        W28470  17.119   1.630   1.244  0.0637 -0.1493  0.1885
13340W        W28471  16.634   2.998   5.505  0.0030  0.1178 -0.0510
13341W        W28472  17.006  12.433  14.390  0.3523 -0.2084 -0.2547
13342W        W28473   3.459  11.780  15.726 -0.0826  0.1863 -0.2059
13343W        W28474   8.152   5.089   3.718  0.0786  0.0502  0.0401
13344W        W28475   5.466   6.045   2.193  0.2198  0.0516 -0.1924
13345W        W28476  17.495   7.022  11.936  0.2813  0.0270  0.1544
13346W        W28477   5.251   9.044   4.611  0.2284  0.0391  0.0484
13347W        W28478   8.323  11.256  13.255  0.2201  0.0978  0.4055
13348W        W28479  12.110  14.968  16.774  0.0852  0.1424  0.0866
13349W        W28480   8.902  14.241   5.869  0.0774 -0.2566 -0.2750
13350W        W28481   7.022   1.582   5.632  0.2384  0.2245 -0.0279
13351W        W28482  12.041  13.573   6.728 -0.0640 -0.2980 -0.0536
13352W        W28483   8.601   4.046  14.663  0.1230  0.0747  0.1411
13353W        W28484   6.107  14.053   0.811 -0.2385  0.4120 -0.0463
13354W        W28485   8.309  12.317   3.335 -0.0905  0.0296 -0.0261
13355W        W28486   8.701   1.931   4.087 -0.3067 -0.0138 -0.0156
13356W        W28487  15.618   3.183  13.928  0.1292 -0.0219 -0.1670
13357W        W28488   3.667   6.189   2.305  0.1632  0.0435 -0.2365
13358W        W28489   8.764  13.182  11.667 -0.1478  0.3837  0.0712
13359W        W28490   0.345  11.393   4.323 -0.0450  0.2655  0.1532
13360W        W28491   3.899   7.668   0.557 -0.0085  0.0221 -0.1465
13361W        W28492  12.435   6.361   4.881  0.1652  0.1601  0.0070
13362W        W28493  14.472   2.056   1.981  0.3245  0.1963  0.7204
13363W        W28494   0.502  12.851  11.586  0.1645 -0.0487 -0.2072
13364W        W28495  10.906   4.030   4.899  0.0124  0.0931  0.1350
13365W        W28496   7.339  15.863  14.983  0.1373 -0.2878 -0.1221
13366W        W28497   2.849  10.061  12.705  0.1995 -0.2233  0.1198
13367W        W28498  10.213  17.291  13.893  0.1322 -0.2347  0.2438
13368W        W28499  16.741  10.308  16.660  0.0344 -0.1741  0.1991
13369W        W28500   0.271   7.131  10.541 -0.0675  0.1542  0.0992
13370W        W28501  12.554  15.816   5.190  0.3617  0.0788  0.3681
13371W        W28502   2.497  11.969  11.808 -0.3112 -0.0340  0.4783
13372W        W28503   7.212  15.719  12.382 -0.0359  0.0430 -0.2091
13373W        W28504  14.380  16.997   5.777 -0.0611  0.4459  0.0537
13374W        W28505  13.907   2.702   4.570  0.3001 -0.1171  0.0226
13375W        W28506  16.545   3.528  15.320  0.0281  0.2261  0.0141
13376W        W28507  16.464  11.668   1.369  0.1787  0.2456  0.1243
13377W        W28508   3.620   4.177  14.971  0.0048  0.3314  0.1114
13378W        W28509   9.031  15.670  12.711 -0.0232 -0.1335 -0.2950
13379W        W28510   9.589  11.761  13.565 -0.0719 -0.1049  0.1688
13380W        W28511   3.481   8.350  11.891  0.0728 -0.1424 -0.1543
13381W        W28512  12.287   2.975   0.600  0.1004 -0.1542  0.2371
13382W        W28513   1.750   6.274  12.687 -0.2953  0.2139 -0.0553
13383W        W28514   9.826   5.285  11.633  0.1364 -0.1326  0.0926
13384W        W28515   4.291  15.441   6.414  0.1372  0.1992 -0.2416
13385W        W28516  12.994   0.745   1.615 -0.0492  0.0938  0.3268
13386W        W28517   5.649  11.530   1.478  0.0114 -0.0986  0.2368
13387W        W28518   8.712   2.589   3.438  0.0263  0.2508  0.0370
13388W        W28519   0.204  14.717  12.017  0.0388 -0.0283  0.0925
13389W        W28520  12.865   2.209   2.725  0.2173  0.3012 -0.0820
13390W        W28521   3.312   0.611   3.183  0.1800  0.1573 -0.1805
13391W        W28522  16.901  12.643   1.973  0.2291  0.2332  0.1343
13392W        W28523  11.395   6.986  13.122  0.0019  0.1494 -0.0302
13393W        W28524  15.699  11.002   4.301  0.0612 -0.0079 -0.0791
13394W        W28525   5.571   6.561   0.711  0.1040  0.0536  0.0397
13395W        W28526   2.995   2.880  16.839 -0.2485  0.3140 -0.0617
13396W        W28527   1.170   9.240  14.175  0.1793 -0.3243 -0.1526
13397W        W28528   3.828   5.314  16.056  0.4433  0.1235 -0.0497
13398W        W28529   9.785   7.580   3.539 -0.1344 -0.3875 -0.0275
13399W        W28530   0.119  16.729  15.924  0.1960 -0.0410  0.1869
13400W        W28531   2.846   7.028   0.848 -0.1627 -0.1617  0.1167
13401W        W28532   8.420   4.255   4.713 -0.0241 -0.0583 -0.1362
13402W        W28533  16.438  12.425   2.129 -0.2317  0.2751 -0.0045
13403W        W28534  16.188   4.460  12.647 -0.0946 -0.2004 -0.3366
13404W        W28535  10.076   8.622  15.623 -0.1100  0.0842  0.3723
13405W        W28536   6.832   8.481   0.462 -0.3393 -0.0410 -0.0399
13406W        W28537   7.639  16.595  12.670 -0.0272 -0.0629  0.0177
13407W        W28538  16.770   4.240  12.024  0.1956  0.1442 -0.1313
13408W        W28539  17.302   9.835   0.711 -0.2944  0.2477  0.1791
13409W        W28540   8.040  14.516   1.497  0.2207  0.0351  0.0013
13410W        W28541  12.956  12.979   5.691 -0.0261  0.1080  0.0177
13411W        W28542  12.330   0.185   2.960 -0.0629  0.0178 -0.0295
13412W        W28543  10.877   3.396   0.042  0.0876  0.3188 -0.0739
13413W        W28544  13.884  16.103  15.285 -0.1681 -0.1012 -0.2105
13414W        W28545   8.420  11.518  11.560  0.3537  0.0581  0.1135
13415W        W28546  13.384   6.569   2.344  0.1788 -0.0784  0.1477
13416W        W28547   9.400   1.941  11.368 -0.1188 -0.0815  0.1289
13417W        W28548   5.796   0.042  13.894 -0.1761  0.0346  0.2660
13418W        W28549   8.536   9.242   1.932 -0.2166 -0.5349 -0.0767
13419W        W28550   0.978   9.928   0.558  0.2337 -0.0113 -0.1053
13420W        W28551   2.217   2.740   1.168  0.0739 -0.3569 -0.1609
13421W        W28552   2.721   5.956   1.671  0.0160  0.0660 -0.1789
13422W        W28553   8.300   4.765   4.489  0.3720 -0.1798  0.2801
13423W        W28554   6.596   9.494   6.223  0.2723  0.1386  0.1569
13424W        W28555  16.245  11.532   2.034  0.0557 -0.2067 -0.2151
13425W        W28556  10.283  12.135   1.568  0.1611  0.0928 -0.0814
13426W        W28557  11.371   5.883   4.574 -0.1135 -0.1452  0.3549
13427W        W28558   6.168   3.488  12.790  0.3145  0.0998 -0.2173
13428W        W28559   9.450   7.836   5.132  0.0165  0.1484  0.1273
13429W        W28560  14.149  12.565  15.343 -0.2114 -0.0521 -0.1372
13430W        W28561   5.650  17.435   3.755  0.1629  0.0916 -0.3621
13431W        W28562   7.731   1.553   2.018  0.2403 -0.1220 -0.1300
13432W        W28563   8.326  16.694  13.428  0.1625  0.0029 -0.1420
13433W        W28564   5.958  16.396  14.482 -0.0893 -0.0605  0.1468
13434W        W28565  11.618  14.102   4.018 -0.0052  0.1981  0.2246
13435W        W28566  10.921  11.916   0.500  0.1035 -0.0057  0.2271
13436W        W28567   5.202   5.912   3.000  0.0109  0.0455  0.1819
13437W        W28568  14.456   9.811  15.230 -0.3809 -0.0842  0.3921
13438W        W28569  10.838   9.001  12.697 -0.0216  0.1070 -0.1250
13439W        W28570   9.457   8.850   0.253 -0.0765  0.0188 -0.4595
13440W        W28571   7.058   9.768  12.033  0.0328 -0.1345  0.0321
13441W        W28572   0.133  16.135  16.729  0.1519  0.0855  0.3103
13442W        W28573   3.041   5.802   2.717 -0.1831  0.0342 -0.2091
13443W        W28574  14.253  13.269  12.307  0.2697  0.0629 -0.1729
13444W        W28575  13.116  16.451   1.690 -0.2454  0.0100  0.2103
13445W        W28576   3.858   6.355   3.768  0.0872  0.0875 -0.1331
13446W        W28577   4.779   0.973  16.755 -0.0573 -0.0076  0.0163
13447W        W28578  10.460  10.808  15.339  0.2881  0.3664 -0.3836
13448W        W28579  11.240  13.972   4.995  0.1205 -0.1323 -0.0537
13449W        W28580   2.735   6.137   3.623  0.1343  0.1690 -0.1280
13450W        W28581  12.513   4.628  14.089 -0.0578  0.2000 -0.0365
13451W        W28582   7.660   8.007  16.540  0.2752  0.1955 -0.3044
13452W        W28583   4.786   2.625  11.407  0.3143 -0.2557  0.0639
13453W        W28584  16.170  13.331   5.292  0.0328 -0.2461 -0.0450
13454W        W28585   3.666   7.157  13.495 -0.3437 -0.0005 -0.1274
13455W        W28586  12.552  14.817  11.971 -0.0632  0.0555 -0.1259
13456W        W28587   1.422   4.695  11.999  0.0136  0.2729  0.3627
13457W        W28588   7.529   7.930   3.582  0.0673  0.1768 -0.3002
13458W        W28589   9.955   5.140  10.818 -0.0750  0.2213 -0.2123
13459W        W28590  12.816  10.231   1.331 -0.0629 -0.1928 -0.3384
13460W        W28591  17.176   1.704   5.132 -0.1636 -0.0850  0.0144
13461W        W28592  15.954  15.045  13.827 -0.0775 -0.1545  0.3941
13462W        W28593  11.164   4.459  15.392 -0.0917  0.1850 -0.1872
13463W        W28594  12.967   4.278   4.016  0.1215 -0.2758  0.1701
13464W        W28595   2.151  12.935  13.068 -0.1842  0.3661 -0.1112
13465W        W28596  14.570  10.848   1.253 -0.0664  0.1512 -0.1242
13466W        W28597  13.195   2.951  12.182  0.1662  0.1134  0.1614
13467W        W28598  11.781  11.927   1.562 -0.0058 -0.1522  0.2347
13468W        W28599   0.966   3.091   2.782  0.0239  0.3115 -0.2851
13469W        W28600   5.997  14.888   1.653  0.4481 -0.1140  0.2517
13470W        W28601  15.269  10.570  12.727  0.3624 -0.1166  0.0765
13471W        W28602   0.447   7.046  15.990  0.0048  0.0551  0.1942
13472W        W28603  12.759   6.650   4.030 -0.0300  0.0298  0.3709
13473W        W28604   4.402   9.030  14.656  0.0972  0.2864  0.0744
13474W        W28605   4.036   6.907  15.790  0.0804  0.2056  0.0937
13475W        W28606  12.967   6.722  11.553 -0.1161 -0.2273 -0.1751
13476W        W28607  16.841   8.143  14.444  0.0319 -0.1087 -0.0110
13477W        W28608   2.677   1.765  13.006 -0.0501 -0.2745 -0.0763
13478W        W28609  10.907  11.558  14.825  0.2780 -0.1045  0.0529
13479W        W28610   4.481  12.144  14.168 -0.0154  0.1902  0.3609
13480W        W28611   6.249   5.898   1.061  0.1819 -0.1197  0.0226
13481W        W28612  13.384  10.746  14.203 -0.0835 -0.2594 -0.0779
13482W        W28613  12.922  17.077   5.481  0.2331  0.2142 -0.0186
13483W        W28614   8.239  15.491  13.650  0.2352  0.1106  0.0009
13484W        W28615   8.482   1.326   5.016 -0.1470 -0.0577  0.0473
13485W        W28616   1.224  16.282  16.100 -0.0274  0.0653  0.0169
13486W        W28617   9.821   0.724   3.203  0.1352  0.0995  0.2166
13487W        W28618   7.652   3.180   4.024  0.2323  0.0884 -0.0247
13488W        W28619  10.467  14.617   3.880  0.3275 -0.2090 -0.0077
13489W        W28620   3.329  11.985   5.173  0.1837  0.1395 -0.0028
13490W        W28621  11.837  16.740   1.897 -0.0029 -0.2982 -0.1640
13491W        W28622  12.024   0.084  15.249 -0.1113 -0.1910  0.0237
13492W        W28623  13.697   9.771   0.608  0.0882  0.0757 -0.1066
13493W        W28624  11.033  16.127   1.519 -0.3204 -0.0912 -0.0907
13494W        W28625  10.283   7.056  10.309  0.0604 -0.3607  0.0099
13495W        W28626   1.741  11.724  15.486 -0.0971 -0.2475 -0.3482
13496W        W28627   5.241  10.007  11.967  0.1247  0.0711  0.0009
13497W        W28628  16.738   3.561   2.832  0.1301 -0.2014 -0.1351
13498W        W28629   8.333  11.162  11.896  0.0575  0.0307 -0.2455
13499W        W28630   9.037  16.409  15.539 -0.1047 -0.1251  0.2002
13500W        W28631  13.223  10.422  11.237 -0.1212 -0.0802  0.1387
13501W        W28632  10.403   6.068   3.891 -0.0527 -0.0764  0.0636
13502W        W28633   4.284  16.418  13.423  0.2379  0.1310  0.2461
13503W        W28634   7.378  17.622   4.916  0.1880  0.0815  0.1313
13504W        W28635  16.207   9.644   2.408  0.0264  0.2931  0.0307
13505W        W28636  11.160  16.940  15.826  0.0132 -0.1068 -0.0073
13506W        W28637   3.684  16.709  16.796 -0.1105 -0.1287  0.4871
13507W        W28638  12.266   9.775   5.555 -0.1180  0.2440  0.2001
13508W        W28639   7.116   2.494  15.177  0.0065  0.0577 -0.1057
13509W        W28640  17.327  12.749  16.206 -0.1906 -0.0414 -0.0468
13510W        W28641   4.998   4.627   3.643 -0.0495 -0.1420 -0.2360
13511W        W28642   4.916   1.753  13.904 -0.0285  0.2680 -0.1257
13512W        W28643  14.286   3.447  12.967 -0.0091 -0.2794  0.2138
13513W        W28644  10.102  10.216   3.973  0.1841  0.0452  0.0489
13514W        W28645  10.773  16.982   1.942  0.0821 -0.1287  0.1871
13515W        W28646  14.496  15.749  13.082  0.1073 -0.0937  0.0050
13516W        W28647   3.059  12.069  15.632  0.0832 -0.0442 -0.0993
13517W        W28648   0.659  13.900   3.013  0.5925 -0.1707  0.2592
13518W        W28649  14.337   8.298  12.088  0.1916  0.0419 -0.0741
13519W        W28650   8.836   7.327  15.901 -0.1643  0.2204  0.3388
13520W        W28651  13.935   8.091  11.807 -0.2689 -0.1080  0.0807
13521W        W28652   2.333   4.539   2.922  0.1315 -0.1639 -0.0231
13522W        W28653   2.434   0.267   3.886  0.0952 -0.1885 -0.0280
13523W        W28654  12.804   8.819   3.235 -0.1059 -0.1025 -0.0072
13524W        W28655  14.538   4.595  13.252  0.0065  0.0417 -0.3261
13525W        W28656   2.591   7.386  12.810  0.1164  0.0519 -0.0330
13526W        W28657   2.998   2.102   2.924  0.0889 -0.0173 -0.2536
13527W        W28658  16.423  12.122   5.140  0.0793 -0.4298 -0.0470
13528W        W28659   2.192   2.258  12.522  0.4163  0.0396  0.3686
13529W        W28660   8.913   3.760  16.211 -0.2578 -0.0460 -0.0552
13530W        W28661   4.122  15.979   5.575  0.0856 -0.1056  0.1901
13531W        W28662  15.164   6.699   2.302  0.0097  0.0153  0.0046
13532W        W28663   4.421  13.153  12.149 -0.3166  0.0032 -0.1430
13533W        W28664  15.299  13.436   5.912  0.1288 -0.2022  0.0390
13534W        W28665   0.179  11.933  13.988 -0.0186  0.2542  0.3715
13535W        W28666   4.059   5.870  11.498  0.0273 -0.0325  0.4367
13536W        W28667  12.272  14.150  16.923  0.0120  0.1844 -0.1352
13537W        W28668  13.641  10.325   4.838 -0.1115  0.2399 -0.2928
13538W        W28669   2.252   3.134   4.169  0.0049 -0.0453 -0.0795
13539W        W28670  12.893  15.409   1.709  0.0172 -0.0179 -0.1584
13540W        W28671   5.382   1.386   5.738  0.0118 -0.0308 -0.1126
13541W        W28672   4.218   1.953  15.842  0.2248  0.1375 -0.1973
13542W        W28673   1.406   2.643   4.579  0.1802  0.0331 -0.0750
13543W        W28674   8.041   7.948   1.413  0.4194  0.2417 -0.3100
13544W        W28675   1.369  12.951   3.135  0.1051  0.0756  0.2389
13545W        W28676  11.841  17.488  15.645 -0.2805  0.4218 -0.1813
13546W        W28677  16.738  15.808  12.675  0.1146 -0.1797  0.0307
13547W        W28678  14.802   3.401  12.061 -0.0346  0.0433 -0.0804
13548W        W28679   4.676   7.074  11.508 -0.1383  0.0375 -0.2362
13549W        W28680  13.499   1.872  15.248  0.0908  0.0315 -0.2838
13550W        W28681   1.648   5.170   1.288  0.0060 -0.1662  0.0777
13551W        W28682  13.756   3.139  16.185  0.1783 -0.1697 -0.0230
13552W        W28683  13.695  17.513  16.738 -0.2640  0.3378  0.0640
13553W        W28684   1.717  11.466   5.559  0.3654 -0.0881 -0.2667
13554W        W28685  16.681   7.255   2.998 -0.0331 -0.1575  0.0774
13555W        W28686   6.449  11.770  12.036 -0.1796 -0.1398 -0.0434
13556W        W28687  17.545   0.648   2.802 -0.3775  0.1637  0.0388
13557W        W28688  13.394  13.276   0.507 -0.2466 -0.2492  0.2578
13558W        W28689   8.858   0.131  13.559 -0.4638 -0.0342 -0.0675
13559W        W28690  12.135  15.189   4.720 -0.1980  0.0520 -0.0311
13560W        W28691   9.000   2.830  12.524  0.1686 -0.1657 -0.4191
13561W        W28692   2.976  16.894   0.153 -0.1676  0.0396  0.0689
13562W        W28693  16.248   2.503  13.742 -0.2236  0.0930  0.1241
13563W        W28694   0.816   4.359   0.914  0.3759  0.0122 -0.1320
13564W        W28695  12.314   9.572   3.434  0.0787 -0.0847  0.1336
13565W        W28696  11.800   4.834  11.185  0.1648  0.1088 -0.1176
13566W        W28697   6.099  10.454   2.127  0.2223  0.0850 -0.1059
13567W        W28698  17.273  17.508  12.635  0.1172 -0.2587  0.2635
13568W        W28699  11.237   6.614   3.836 -0.0884  0.0433  0.0072
13569W        W28700   6.313   1.047  15.261  0.1188  0.4351 -0.1276
13570W        W28701   9.621  12.419  13.624  0.0399  0.0579  0.0329
13571W        W28702   1.855   4.277   4.211  0.1003  0.0071 -0.1195
13572W        W28703   5.671  15.911  13.607  0.2821  0.0463 -0.0880
13573W        W28704   9.629  15.069  16.057 -0.0446  0.0400  0.0825
13574W        W28705  17.363  14.367   3.006 -0.0934  0.1491  0.0904
13575W        W28706  11.863   9.739   3.640  0.2492 -0.1642  0.0999
13576W        W28707   0.083   7.750   1.666  0.0018 -0.0585 -0.1629
13577W        W28708   8.985   0.689   4.630 -0.2043  0.1581 -0.1755
13578W        W28709  14.568  17.014  15.148 -0.0405  0.0265 -0.0717
13579W        W28710   6.120   4.106  15.755 -0.4284  0.0603  0.0818
13580W        W28711   5.436   0.914  15.879  0.2618  0.2014 -0.0097
13581W        W28712  14.198   9.886  12.167  0.1043 -0.0091 -0.1022
13582W        W28713   8.001   5.622   0.188  0.1565 -0.0953  0.1868
13583W        W28714  17.498   0.503  14.013 -0.0853  0.0321  0.0826
13584W        W28715   5.926   0.761   1.404  0.1534 -0.1717  0.3918
13585W        W28716   3.094   2.583  12.698  0.0946 -0.2708  0.1335
13586W        W28717   9.519  15.367   1.743  0.1196  0.0409  0.2389
13587W        W28718  12.414  15.400   5.525  0.0866 -0.4243  0.2864
13588W        W28719  10.284   8.791  11.421 -0.2161  0.2258 -0.0475
13589W        W28720  11.232   3.238  14.903 -0.1038 -0.3664 -0.0910
13590W        W28721  13.676  15.308  12.055 -0.3894 -0.1557 -0.1529
13591W        W28722  14.656   8.989  12.815 -0.1179 -0.0416 -0.2523
13592W        W28723   4.403   1.745  16.705 -0.3430  0.0639 -0.1630
13593W        W28724   1.571   0.143  14.253  0.0872 -0.0061 -0.0898
13594W        W28725   3.073  10.214   1.479  0.2693 -0.1463  0.2578
13595W        W28726  15.696  11.479   0.945  0.0976 -0.1379 -0.1078
13596W        W28727  11.701   9.981  16.883 -0.1230  0.2206  0.0804
13597W        W28728  10.890   1.541  15.664  0.2838 -0.1921  0.2080
13598W        W28729   0.996   7.076  14.354 -0.0490  0.3034  0.1906
13599W        W28730   4.045  17.001  12.198 -0.0971 -0.2921 -0.0816
13600W        W28731   6.838   1.208  11.214  0.1012 -0.3202  0.1472
13601W        W28732   3.475   9.953  16.323  0.2925  0.0191 -0.0760
13602W        W28733  15.044  16.293   3.698 -0.2091  0.0325 -0.0814
13603W        W28734   8.656   5.553  14.071 -0.0306  0.1976  0.0465
13604W        W28735   9.681  10.406   1.836  0.0028 -0.0080 -0.0358
13605W        W28736  15.370  14.017   2.075 -0.1228 -0.0427  0.0604
13606W        W28737   6.934   7.806  13.037  0.1122 -0.3924 -0.1835
13607W        W28738  11.884  11.723   5.207 -0.0938 -0.3129 -0.0480
13608W        W28739  16.074   1.770   5.810 -0.1886 -0.2041 -0.1593
13609W        W28740  12.425   4.153  14.104  0.1966  0.0992  0.3016
13610W        W28741   7.660   5.393   4.555  0.2385  0.1924  0.2693
13611W        W28742   4.398  12.128  11.602  0.1523 -0.0582 -0.0099
13612W        W28743  11.787   2.681  12.622  0.1165  0.0760 -0.1472
13613W        W28744  15.937   8.223   0.060 -0.1414 -0.2045 -0.3460
13614W        W28745  14.503  15.689   4.722 -0.0040 -0.1774 -0.1075
13615W        W28746   2.904   4.004  12.770  0.2674  0.2333 -0.0677
13616W        W28747   2.297   3.493   4.544  0.0253 -0.0420 -0.1286
13617W        W28748  12.291   5.644  16.050 -0.1075 -0.1015 -0.2185
13618W        W28749   2.973   5.194   3.286  0.1097  0.1621  0.1767
13619W        W28750   7.951   8.734  15.451 -0.0821  0.1584  0.2048
13620W        W28751  11.956  11.692  13.685 -0.1934  0.1084  0.0543
13621W        W28752   5.522   8.999   2.431  0.2732 -0.1484  0.2440
13622W        W28753  11.066  12.272   1.066 -0.2067  0.2864  0.0336
13623W        W28754  17.326   1.870  15.425  0.0564 -0.2216 -0.1064
13624W        W28755   3.060  11.432  15.606  0.0308 -0.0325 -0.2458
13625W        W28756  16.545  12.200  11.908  0.0529  0.4030 -0.0738
13626W        W28757  17.496   2.908  13.410  0.1404 -0.1890  0.0610
13627W        W28758  10.778   5.269  12.644 -0.0698  0.1837 -0.2850
13628W        W28759   4.544  16.147  12.496  0.2984 -0.4121  0.1393
13629W        W28760   3.776  16.219  11.905  0.0760 -0.0256  0.4394
13630W        W28761  13.916  13.052  16.009  0.3259  0.4337  0.0221
13631W        W28762   2.338   7.720  14.729 -0.3056  0.2608  0.0028
13632W        W28763   0.297   3.125   1.599  0.0912 -0.3582  0.4270
13633W        W28764  16.213  12.785  13.971 -0.4347  0.0798 -0.0542
13634W        W28765   7.006  13.418  14.606 -0.1615 -0.1728  0.1305
13635W        W28766   2.131  17.628   1.826  0.0283  0.3204 -0.1649
13636W        W28767   0.227  17.330  11.709  0.2954  0.1450  0.1060
13637W        W28768  14.517  11.021   2.244  0.2796 -0.0961 -0.0471
13638W        W28769  16.954  15.449  12.326 -0.2309 -0.1152 -0.1167
13639W        W28770  12.214   2.332  12.003 -0.1337 -0.2006  0.0226
13640W        W28771  11.093  17.266   5.897 -0.1103  0.0832  0.2695
13641W        W28772   9.993   1.932  16.475  0.0703 -0.2424  0.0702
13642W        W28773   7.942   6.212   5.289 -0.0018 -0.2218  0.1341
13643W        W28774   1.608  17.308  13.883  0.3309  0.1284  0.1239
13644W        W28775   1.138  14.469  15.224  0.2934 -0.0591 -0.1488
13645W        W28776   4.156  17.593   3.112 -0.1182 -0.0054  0.2313
13646W        W28777   6.772   4.953  12.417 -0.2766 -0.3264 -0.1687
13647W        W28778  10.937   6.888   0.176  0.1433 -0.0864  0.1005
13648W        W28779   1.402  17.174   1.859 -0.0831 -0.1486 -0.2790
13649W        W28780  11.846  10.095   1.258 -0.1962  0.0118  0.1238
13650W        W28781   1.853   2.470   2.878 -0.1181 -0.4589 -0.2671
13651W        W28782  10.766  17.028  13.394  0.0110 -0.0176 -0.0631
13652W        W28783  10.835  11.743  13.249  0.0505 -0.3902 -0.2309
13653W        W28784  14.292   2.278  16.828  0.2712  0.1223 -0.2021
13654W        W28785  14.863  15.047  13.452  0.0572 -0.0435  0.2499
13655W        W28786   7.357   2.097  14.704 -0.1953  0.0686  0.1383
13656W        W28787  13.479   7.007  16.399 -0.1881  0.0942  0.0805
13657W        W28788  13.841  12.691   2.141  0.1542  0.0615  0.3676
13658W        W28789  10.703  13.027   6.106  0.0020  0.0229  0.0672
13659W        W28790  13.032  13.084  13.215 -0.1597  0.1857 -0.1249
13660W        W28791  10.352  16.712   3.115 -0.0631  0.0002 -0.2015
13661W        W28792   9.943   2.635   1.309 -0.0345  0.1681  0.1016
13662W        W28793   0.142   8.140  14.363  0.0310 -0.3109  0.0165
13663W        W28794  15.440   8.974   2.248 -0.0116 -0.1123  0.1474
13664W        W28795   4.118   4.713  15.506  0.0292 -0.0776  0.3160
13665W        W28796  16.271   3.197  16.878 -0.4275 -0.1156  0.0679
13666W        W28797   2.568  16.493   0.463 -0.0424 -0.0346 -0.0929
13667W        W28798   8.732   9.171   4.361  0.1450 -0.1152 -0.1783
13668W        W28799  11.296  15.747   1.714 -0.0880 -0.0059 -0.1292
13669W        W28800  17.452   0.511  13.152  0.0793 -0.2251 -0.0179
13670W        W28801   5.356  13.231   1.630  0.2382 -0.1347  0.0989
13671W        W28802   1.795   1.954  11.794  0.3657 -0.0431  0.2093
13672W        W28803  11.726  17.669   2.734 -0.2653 -0.0639  0.0580
13673W        W28804  10.535  12.957   5.319 -0.3193 -0.0877 -0.2628
13674W        W28805   0.959  15.030   3.192 -0.1167  0.1264 -0.4217
13675W        W28806   2.493   1.151   0.443  0.1219 -0.0075  0.1203
13676W        W28807   6.865   5.819   3.993 -0.0894 -0.2296  0.0778
13677W        W28808   8.221  12.159  12.265 -0.1694 -0.1400  0.4376
13678W        W28809   6.612  17.470   2.100 -0.2349 -0.1870 -0.1914
13679W        W28810   3.004   1.250  15.495 -0.0310 -0.1526 -0.1718
13680W        W28811   4.927   6.815  15.931 -0.2087  0.0027 -0.1605
13681W        W28812  13.891   5.438  16.933 -0.0281  0.0756 -0.0699
13682W        W28813  13.191   2.997   2.455 -0.0894 -0.2213 -0.2630
13683W        W28814  16.157  16.688   4.715 -0.1408 -0.0003 -0.1346
13684W        W28815   1.364   5.086  10.540  0.2693  0.1644 -0.3570
13685W        W28816  13.013   7.807  15.414 -0.2157  0.3108  0.0720
13686W        W28817  16.608   0.307  11.728  0.0079 -0.2732 -0.2654
13687W        W28818  13.193   3.304   1.764 -0.0919 -0.0963  0.1954
13688W        W28819   1.240   3.410  16.007  0.0707 -0.1668 -0.0478
13689W        W28820   1.459  14.374   6.211  0.2464  0.0108 -0.2631
13690W        W28821  10.349   0.532  12.385 -0.0039 -0.1620  0.0737
13691W        W28822  13.764  12.748  14.895 -0.2475 -0.2239  0.3685
13692W        W28823   3.918   1.581   5.824 -0.0879 -0.0535  0.0147
13693W        W28824  13.326   1.817   5.878 -0.1784 -0.0133  0.3765
13694W        W28825   4.865   8.418   5.131 -0.1037  0.1138  0.3046
13695W        W28826   0.850   2.118   1.426 -0.0772  0.0493  0.0159
13696W        W28827   4.735   8.342   3.400  0.0203 -0.0347  0.1023
13697W        W28828  15.597   4.531  13.564 -0.2350 -0.0628  0.1438
13698W        W28829   9.828  16.004   2.072  0.2054  0.1008  0.2112
13699W        W28830  15.068  11.442  14.316 -0.2234  0.1165  0.1190
13700W        W28831   7.363  17.704   4.191 -0.0983  0.1428 -0.0146
13701W        W28832  15.445   3.556   4.091  0.2900 -0.0116  0.2184
13702W        W28833  10.813   8.395   0.393  0.0682  0.4764 -0.1442
13703W        W28834   5.065  12.293   4.988 -0.1330 -0.1315  0.1694
13704W        W28835   8.057   6.303   2.409  0.2117 -0.0449  0.0908
13705W        W28836   1.179  12.630  15.214  0.1440 -0.2914 -0.1052
13706W        W28837  12.826   4.862  16.009 -0.4029  0.0923  0.2079
13707W        W28838  16.216  11.181  12.493  0.0745 -0.0858 -0.2364
13708W        W28839  10.317  14.183  15.455 -0.1385  0.1749 -0.1651
13709W        W28840   7.405  16.403   4.231 -0.1824 -0.0403 -0.1181
13710W        W28841  15.679  11.423  12.731  0.0096 -0.1947 -0.2717
13711W        W28842   1.012  13.869   3.455  0.2086 -0.1079  0.0015
13712W        W28843  16.798   4.358   0.056 -0.0917  0.2116 -0.0857
13713W        W28844  10.401  15.176  11.856  0.0599 -0.1911 -0.0365
13714W        W28845  14.989  14.066   0.163 -0.1434  0.1428 -0.0467
13715W        W28846  15.254   3.755   2.223 -0.0564 -0.2555  0.0807
13716W        W28847   2.285   7.262  10.134 -0.0848  0.1495  0.1268
13717W        W28848   7.851  15.069  13.740 -0.4090  0.2551 -0.0532
13718W        W28849   4.596   8.976  13.264 -0.1702  0.2918 -0.2382
13719W        W28850  14.537  15.525   0.175  0.1933  0.3637 -0.2340
13720W        W28851   8.494  12.478   6.370  0.2023  0.1531 -0.0490
13721W        W28852  17.180   0.952  16.473  0.0093  0.0084  0.0847
13722W        W28853   8.128  13.034   3.868  0.1255  0.2249 -0.0304
13723W        W28854   6.838   9.126  13.484  0.0114  0.0798 -0.0391
13724W        W28855  14.806  11.766  11.961 -0.1312  0.3257 -0.1044
13725W        W28856  12.545   3.248  13.689 -0.1084  0.3055  0.0906
13726W        W28857   1.620  14.374  14.867  0.0735  0.1096 -0.0112
13727W        W28858   1.528  11.733   4.288  0.0814  0.2752  0.0994
13728W        W28859   9.994  12.504  11.664  0.0652  0.0505 -0.0263
13729W        W28860  16.346   6.492   1.633  0.0474  0.0401  0.2529
13730W        W28861  14.732  10.773  13.862  0.0204 -0.1532 -0.1679
13731W        W28862   6.833   7.833   1.943  0.0090  0.1176  0.0244
13732W        W28863  13.426   8.394  13.240  0.0389  0.1485 -0.3292
13733W        W28864   1.225  11.234  12.025 -0.3310  0.0471  0.2239
13734W        W28865  16.603   9.345  14.656 -0.3316 -0.3586 -0.0474
13735W        W28866  16.781   8.587   4.964  0.0268  0.1660  0.1012
13736W        W28867   8.138   8.249   4.728 -0.1971 -0.1125  0.0096
13737W        W28868   5.777  15.285   0.472 -0.3344  0.1715  0.0162
13738W        W28869   0.553   3.266  12.369 -0.3251  0.1162 -0.0923
13739W        W28870  11.795   3.839   4.973  0.3903 -0.0135 -0.0467
13740W        W28871  17.665  11.940  15.712 -0.1532 -0.0347  0.0657
13741W        W28872   7.361  15.981  12.801 -0.0588 -0.0225 -0.1351
13742W        W28873   1.092   9.103   0.011  0.1042  0.0122  0.0745
13743W        W28874   2.606   3.323   0.182 -0.1171  0.3019  0.2387
13744W        W28875  12.847  12.023  14.084 -0.0557 -0.2002 -0.1118
13745W        W28876   6.827  10.221   4.892  0.1599  0.0699 -0.3191
13746W        W28877   2.706  10.679   6.392  0.0610  0.0668  0.3886
13747W        W28878   6.495  12.805   0.481  0.0959  0.0020 -0.0073
13748W        W28879   8.959   8.372  11.556 -0.2475  0.1625  0.0303
13749W        W28880   3.536  11.020  11.501 -0.2984  0.4844  0.1144
13750W        W28881   2.121   0.852   1.200  0.2320  0.0811  0.1080
13751W        W28882  16.100  17.006  16.804  0.2068 -0.0978 -0.2533
13752W        W28883   1.880   5.057  14.152  0.0414 -0.0980 -0.1438
13753W        W28884   3.701   2.133  11.878 -0.1504 -0.2686  0.0265
13754W        W28885   6.963  11.187  13.162 -0.0330 -0.0003  0.0386
13755W        W28886  10.282  17.100  13.398 -0.0263 -0.1350  0.0762
13756W        W28887  15.203   3.964  11.845  0.1300  0.1130 -0.4693
13757W        W28888  10.941   8.571   1.838 -0.1680 -0.1334 -0.1423
13758W        W28889  10.415   2.334   1.397  0.1081 -0.1631  0.0270
13759W        W28890   0.193   6.012   0.750  0.0016 -0.1527  0.1559
13760W        W28891  15.171   1.086  14.266 -0.0714  0.2118  0.0486
13761W        W28892   2.871  11.873  12.358 -0.0228  0.0258  0.1108
13762W        W28893   9.780  16.589   6.685 -0.1022 -0.0209  0.2064
13763W        W28894   5.614  16.098   4.840 -0.4695 -0.0508 -0.0840
13764W        W28895   7.348   8.467  14.045  0.0736 -0.0660  0.0394
13765W        W28896   4.924   0.192   1.944 -0.0735  0.0981  0.0643
13766W        W28897   2.581  10.220   1.387  0.1918  0.3044 -0.0381
13767W        W28898   2.039  16.111  12.003  0.0039  0.0583 -0.3058
13768W        W28899   3.867   4.456  10.755 -0.0232 -0.0267  0.1739
13769W        W28900   5.726  13.206   0.164 -0.0036 -0.4316  0.0087
13770W        W28901   0.202  16.970  13.496  0.0912 -0.2370 -0.2040
13771W        W28902   4.901   7.480  12.261  0.0202 -0.0339  0.1563
13772W        W28903   7.088  12.854   0.598  0.0151  0.1812 -0.0964
13773W        W28904  15.569   6.221  12.344 -0.4364 -0.0245 -0.0234
13774W        W28905  11.730   5.730   5.176  0.2453  0.1367 -0.3094
13775W        W28906   3.763   9.694   0.448  0.1244  0.3095  0.1804
13776W        W28907   2.033   6.519   1.797  0.0216 -0.3633  0.2089
13777W        W28908   1.710  12.878   4.046  0.2174 -0.1326  0.1799
13778W        W28909   8.620   2.863  12.154  0.2088  0.1184 -0.0880
13779W        W28910   2.964   5.829  10.637 -0.0196  0.3545  0.0189
13780W        W28911   6.575   3.914  15.793 -0.1261 -0.0146  0.3351
13781W        W28912  10.659   4.247   3.873 -0.2658  0.0997 -0.0227
13782W        W28913   9.342  15.805   3.184  0.2075  0.2592 -0.0419
13783W        W28914   7.191   8.212  15.115 -0.0662 -0.2187 -0.2555
13784W        W28915   5.444   9.568   2.468  0.0781 -0.1014  0.2541
13785W        W28916   4.195  11.128   3.704 -0.2855  0.1791  0.2184
13786W        W28917   1.882  11.996  12.348 -0.0015 -0.4763  0.2465
13787W        W28918  13.875  13.700   0.149  0.2134 -0.3870  0.2158
13788W        W28919  15.448  14.412   5.029  0.0147  0.1585  0.1836
13789W        W28920  10.149   0.219  13.479  0.2277 -0.1827 -0.0865
13790W        W28921  14.539  17.453   5.977 -0.0712 -0.0541  0.1504
13791W        W28922   2.599   7.010  13.644  0.1571 -0.2959 -0.0443
13792W        W28923   6.636   4.371   4.103  0.2045  0.0740  0.1505
13793W        W28924  12.916   1.017   2.049  0.0871  0.3047 -0.0813
13794W        W28925   1.046  15.307   4.955  0.4738 -0.0921  0.1211
13795W        W28926   2.067   1.941  14.673  0.4346 -0.1423 -0.0148
13796W        W28927   0.367  15.844  12.928 -0.0678  0.1577  0.3012
13797W        W28928  13.251  13.082  16.492 -0.0758 -0.2626 -0.0302
13798W        W28929  13.204   1.145  13.506 -0.1010 -0.0555  0.0042
13799W        W28930  10.266  17.136   3.383  0.0926 -0.0067 -0.4009
13800W        W28931  15.778  17.683   6.553  0.2889 -0.0039  0.0681
13801W        W28932   1.676   9.083  14.219  0.0196 -0.0500 -0.1879
13802W        W28933   0.895  13.684  14.802 -0.1762  0.3692  0.0111
13803W        W28934   9.833  14.902   1.629 -0.0228  0.4379  0.2906
13804W        W28935   5.010   7.953  15.771 -0.0367  0.2847 -0.0370
13805W        W28936  15.701  17.532   4.597  0.1678 -0.2113  0.1883
13806W        W28937   2.496   7.181  15.597  0.0787 -0.0416  0.1747
13807W        W28938   8.727   7.723   0.353  0.0200  0.0431 -0.3467
13808W        W28939   4.252  11.131   4.833  0.1042 -0.2506  0.1050
13809W        W28940   0.041  14.628   3.240 -0.0259 -0.1049  0.3907
13810W        W28941   9.866   6.027  14.205  0.2017  0.1569  0.1794
13811W        W28942  12.922   2.382   0.414 -0.3097 -0.1273 -0.2351
13812W        W28943  13.516   4.549  15.447  0.0367  0.0539  0.2654
13813W        W28944  17.549  13.005   3.992 -0.1430  0.0548 -0.2518
13814W        W28945  13.884   2.196   2.112  0.1457 -0.0626  0.0859
13815W        W28946   0.091   8.893   2.289  0.1274  0.2448 -0.3204
13816W        W28947  10.251   7.608  11.659 -0.3987 -0.0674  0.2944
13817W        W28948   4.839  14.080   3.903  0.1978  0.1757  0.0314
13818W        W28949   3.346  11.427  16.111  0.4217 -0.0449  0.0493
13819W        W28950  13.347   6.429   1.875 -0.1047  0.3210 -0.1453
13820W        W28951  13.768   1.644  16.570 -0.0427  0.0752  0.3009
13821W        W28952  11.175  14.035   0.281  0.2659 -0.0746  0.1395
13822W        W28953   9.182   9.291   0.366 -0.0719  0.1819  0.1579
13823W        W28954  11.433  16.246   1.836  0.1298 -0.0719 -0.3580
13824W        W28955  10.607  16.471  14.557 -0.2418  0.0184 -0.3164
13825W        W28956  16.778  15.911  14.508 -0.0694 -0.1153 -0.2163
13826W        W28957  11.651   6.604  12.939 -0.0112 -0.1271 -0.1361
13827W        W28958  14.285  11.183  15.235  0.0198  0.3006  0.0359
13828W        W28959   6.495  13.370   4.643 -0.0768  0.2414 -0.0154
13829W        W28960  14.196  12.371  12.728 -0.2473  0.2100  0.0791
13830W        W28961   0.756  14.233   0.522 -0.0499 -0.1723 -0.1455
13831W        W28962   2.054   5.837  15.412 -0.1686  0.0743 -0.1681
13832W        W28963  13.510   1.126   5.422  0.0225  0.1286  0.1425
13833W        W28964   1.651  12.185  16.371 -0.3471  0.0001 -0.0283
13834W        W28965   1.995   2.794  16.083  0.2664  0.1340  0.1610
13835W        W28966  14.745   6.306   2.751 -0.2040  0.0007  0.1047
13836W        W28967  10.549  16.833  13.844 -0.0769 -0.3425  0.0967
13837W        W28968   7.959  17.251   0.877  0.2233  0.1832 -0.0301
13838W        W28969  10.754  10.971  13.591  0.0786  0.0587  0.2248
13839W        W28970   3.771   6.799   2.277 -0.0525 -0.0457 -0.1620
13840W        W28971   5.201   4.908   4.051  0.2401 -0.0263 -0.0945
13841W        W28972  12.575   4.877   2.179  0.1899 -0.1596 -0.0599
13842W        W28973   8.032   1.843  11.035 -0.2952  0.0447 -0.1477
13843W        W28974  13.800  10.699   5.168  0.4782  0.1146  0.4284
13844W        W28975   0.371   5.221  13.944  0.0710  0.1216  0.0478
13845W        W28976   3.253  11.703  16.525 -0.2493 -0.2788 -0.3171
13846W        W28977  14.588  15.706   1.107 -0.1226  0.1660  0.0418
13847W        W28978   2.506  12.138   2.413 -0.1660 -0.1560 -0.0212
13848W        W28979   5.412   4.632  16.252  0.2221 -0.2917  0.2059
13849W        W28980   4.974  14.611  14.074 -0.0699 -0.1164  0.0726
13850W        W28981   0.652   3.205   5.637  0.0522 -0.2771  0.3189
13851W        W28982  12.821   7.697  14.374  0.1380  0.1277  0.1593
13852W        W28983  10.494   2.348  15.745  0.2131  0.2249  0.1972
13853W        W28984  14.753  14.014  15.111  0.0911 -0.0335 -0.2579
13854W        W28985   5.541   1.385   3.675  0.1204  0.2033 -0.0840
13855W        W28986   5.274  11.161  12.456  0.2016  0.1631 -0.1523
13856W        W28987   6.046   8.390   3.298  0.1870 -0.0277 -0.1929
13857W        W28988   9.004  12.962   0.674  0.0817 -0.1910 -0.4228
13858W        W28989  11.888  15.306  11.315 -0.0708 -0.0691  0.3023
13859W        W28990   6.108   5.875  12.892 -0.2429  0.4585 -0.0761
13860W        W28991  14.640  10.074  14.734 -0.1768 -0.2658 -0.0105
13861W        W28992   2.404   6.705   4.297  0.0854  0.1547 -0.0300
13862W        W28993   9.694   2.241  16.087 -0.2707  0.1432  0.0309
13863W        W28994   1.626  16.804  11.894 -0.2136  0.2988 -0.1578
13864W        W28995  13.031  11.047   4.672  0.0126  0.1024  0.2086
13865W        W28996   6.939   1.817   0.991 -0.1797 -0.2008  0.3015
13866W        W28997   6.664  17.448   0.687 -0.2040 -0.0350 -0.0176
13867W        W28998   0.283  10.847   4.048 -0.4330  0.0171 -0.0891
13868W        W28999   4.560   4.122  12.520  0.0568  0.2045  0.1530
13869W        W29000  10.554   7.766  13.816  0.0479  0.1104  0.0771
13870W        W29001  12.394   4.976  16.782 -0.2171 -0.0034 -0.2741
13871W        W29002  14.343   3.179  14.365  0.1443  0.3486  0.3830
13872W        W29003   6.078  16.132   3.981 -0.2028  0.0361  0.0216
13873W        W29004  12.090   5.875   2.976 -0.1232 -0.0292  0.2811
13874W        W29005   5.166   6.317  15.240 -0.2148 -0.2339 -0.0193
13875W        W29006   0.615  15.336   5.994 -0.3469 -0.0787 -0.0450
13876W        W29007   6.512   4.915   2.362 -0.5803 -0.2436  0.0583
13877W        W29008   5.010   8.044  16.292  0.1236 -0.1167 -0.0553
13878W        W29009   3.924  14.496  15.432 -0.1126  0.1692  0.2169
13879W        W29010  16.952   1.093   4.495  0.4424 -0.2474  0.1001
13880W        W29011  12.545   0.947   6.363  0.0052 -0.0864  0.4012
13881W        W29012   9.184   2.908  14.892 -0.1262 -0.0555 -0.1203
13882W        W29013  11.345   0.444   3.046 -0.1733 -0.1530 -0.0111
13883W        W29014   1.717  13.527   1.972  0.2612 -0.1079 -0.3255
13884W        W29015  14.939   0.678   0.104  0.0445  0.1257 -0.1137
13885W        W29016   6.531   8.088   0.425  0.0135 -0.1306  0.2259
13886W        W29017  16.217   0.989  13.317 -0.2500 -0.2371  0.1603
13887W        W29018  13.327   0.893   3.597 -0.0515  0.3720  0.1680
13888W        W29019  15.259   7.359   0.960  0.1075  0.1015 -0.4167
13889W        W29020  12.554  16.550  11.769  0.2558  0.0992  0.0151
13890W        W29021   3.065  12.949   0.780 -0.0026  0.0181 -0.0259
13891W        W29022   4.321  17.113  14.095 -0.0617 -0.1502 -0.3655
13892W        W29023  16.284  11.311   5.427 -0.2720  0.1636  0.3361
13893W        W29024  14.201   2.770   4.141 -0.3416  0.1367  0.3112
13894W        W29025  14.736   3.645  13.033  0.1167 -0.0695 -0.2206
13895W        W29026  16.727   6.645  12.416  0.2035  0.0366 -0.0308
13896W        W29027   8.813  12.362  13.157 -0.0954 -0.0578 -0.3889
13897W        W29028   5.689   9.061   1.871  0.0304 -0.0077  0.2162
13898W        W29029   1.632   2.079  10.910  0.1167 -0.1669  0.1598
13899W        W29030   4.587   7.162  15.667 -0.2409  0.0479 -0.1995
13900W        W29031  16.125   7.744  14.778 -0.0230 -0.1268 -0.0708
13901W        W29032   0.587   7.361   4.499 -0.0751 -0.2415  0.0600
13902W        W29033   2.069  14.891  12.752  0.0290  0.0748 -0.0389
13903W        W29034  11.926   7.133  10.970  0.0461  0.2134  0.0831
13904W        W29035   8.925   6.151   0.975 -0.0663 -0.3661 -0.0353
13905W        W29036   6.896   9.110   2.408 -0.0625 -0.5779  0.2360
13906W        W29037   3.467   9.365  13.911 -0.1703  0.1194 -0.2080
13907W        W29038   2.164   5.868  13.511  0.0658 -0.0332  0.3356
13908W        W29039  17.068   8.275  15.419 -0.0933 -0.1915  0.4349
13909W        W29040  13.625   8.701  12.658  0.3753 -0.2285  0.1809
13910W        W29041   2.301  15.775   2.147  0.0417 -0.0895  0.2682
13911W        W29042   1.632   3.900   3.553  0.1990 -0.2548  0.1863
13912W        W29043   5.389   1.892  14.109  0.2329 -0.0257 -0.0023
13913W        W29044  17.562   0.995   5.774  0.0428 -0.0570  0.0866
13914W        W29045   2.198   7.433   1.884  0.4123  0.2245 -0.0899
13915W        W29046   9.113  17.021  15.446 -0.0283  0.0808  0.0815
13916W        W29047  11.320   5.501   4.854 -0.1878  0.1889  0.0680
13917W        W29048   0.729   7.617   2.523 -0.1930 -0.1499 -0.2014
13918W        W29049  17.465   4.185   5.412 -0.0398  0.1356  0.1201
13919W        W29050   7.728  11.621  12.041  0.1901  0.0458 -0.2550
13920W        W29051   2.540  10.924  14.166 -0.1492  0.1015  0.0187
13921W        W29052  17.327   3.755   1.903 -0.0823  0.1346  0.0042
13922W        W29053   0.945  16.439  13.738 -0.1174 -0.3422  0.1568
13923W        W29054  10.978   8.239  14.515  0.0983  0.2814  0.3034
13924W        W29055   6.757   7.335  15.147  0.0702 -0.0354 -0.3352
13925W        W29056   3.958   4.101   2.451  0.2648 -0.0569  0.1952
13926W        W29057   9.998  13.773   2.882  0.3362 -0.1568 -0.0423
13927W        W29058  15.486   2.274  13.161 -0.1008  0.0275  0.1329
13928W        W29059  11.036   3.541   5.220  0.1051  0.2701 -0.2484
13929W        W29060  14.822  10.362  14.304  0.2682  0.1455 -0.2969
13930W        W29061  16.032   0.887  15.639  0.1220  0.0171 -0.4109
13931W        W29062   3.270   4.641  14.861  0.0203 -0.1726 -0.0305
13932W        W29063  10.077   5.291   1.102  0.1565 -0.1502  0.2137
13933W        W29064   0.982   9.848   2.200  0.2937 -0.1179 -0.1225
13934W        W29065  13.444  16.374   0.279 -0.1348  0.2179 -0.0439
13935W        W29066   4.229   6.727   1.111  0.0504 -0.1411 -0.0115
13936W        W29067   9.944   8.253  14.476 -0.0431 -0.1444  0.0604
13937W        W29068   3.703  15.630  16.080  0.2375 -0.1767  0.2482
13938W        W29069  16.987  10.892   2.725 -0.0722 -0.1076  0.1212
13939W        W29070   0.335   2.881   2.357  0.3229  0.0465 -0.3627
13940W        W29071   4.644   2.814   0.643  0.1463 -0.0669 -0.1398
13941W        W29072   9.425   0.293  16.317  0.0560 -0.0175 -0.0661
13942W        W29073   2.706  17.469  14.834  0.0000  0.0800  0.3134
13943W        W29074   9.972   4.943  11.951 -0.0950  0.0959  0.1730
13944W        W29075  10.148  10.356  12.423  0.0361 -0.1749  0.0902
13945W        W29076   1.230   6.307   5.146 -0.0911 -0.0092  0.4871
13946W        W29077   7.324   9.498  16.557 -0.0210  0.1286  0.1912
13947W        W29078   1.207   3.117  13.157 -0.1856 -0.1387 -0.1620
13948W        W29079   8.698   7.939  12.555  0.0105 -0.1283 -0.1520
13949W        W29080   2.775   4.240  11.406  0.1136 -0.4206  0.0195
13950W        W29081  16.943   5.022   2.417 -0.1470 -0.0348 -0.3328
13951W        W29082   5.745  15.569   5.914  0.0313 -0.0251  0.1079
13952W        W29083  11.114   3.973  13.804 -0.0108  0.1283 -0.0366
13953W        W29084  10.366   8.294   3.964  0.0951 -0.1126 -0.0393
13954W        W29085  10.364  17.086   0.165 -0.2039  0.0519 -0.2621
13955W        W29086  14.776   4.925  12.413  0.0415 -0.0484  0.1413
13956W        W29087  16.903   9.753   3.113  0.0373  0.2029 -0.2417
13957W        W29088   4.414   5.345   4.206  0.1280  0.2335  0.1224
13958W        W29089   6.969   7.219  12.687  0.0660  0.0405  0.3990
13959W        W29090   3.911   9.253   4.121 -0.0369 -0.2313 -0.0288
13960W        W29091   3.635  14.374  16.788 -0.0784  0.0409  0.4631
13961W        W29092   5.009   1.097  13.374 -0.1077  0.1342 -0.0840
13962W        W29093  11.814   7.501   2.493  0.2269 -0.2250  0.1027
13963W        W29094   5.443  15.464  14.340 -0.0266  0.4427  0.1403
13964W        W29095   6.841   8.885   2.845  0.1016  0.1524 -0.4263
13965W        W29096   5.923   1.194  11.991  0.0966  0.0326 -0.1676
13966W        W29097   2.062   4.064   4.633 -0.1298 -0.0809  0.0260
13967W        W29098   3.741   3.478  10.816  0.1282 -0.0948 -0.0792
13968W        W29099  12.369   7.802  14.635 -0.1573  0.0989 -0.1556
13969W        W29100  12.166   8.175  15.867  0.3826 -0.0257 -0.2058
13970W        W29101  11.977   3.894  12.875  0.0115 -0.1329  0.0487
13971W        W29102  16.303   3.396   4.700  0.1164 -0.0355  0.2377
13972W        W29103   4.074   9.205  16.149 -0.1885  0.2155  0.0720
13973W        W29104   8.016   5.000  14.799 -0.0190  0.2385  0.1017
13974W        W29105  13.170   9.894  13.471 -0.3006  0.1004  0.1226
13975W        W29106   0.334  11.093  12.069  0.3193 -0.0177 -0.0274
13976W        W29107   3.036   8.702  13.977  0.1748 -0.1047  0.1432
13977W        W29108  12.381  14.154   0.480  0.1688 -0.3211  0.2601
13978W        W29109  13.916  13.248   0.544  0.0230  0.2279  0.0170
13979W        W29110  14.856  13.495   4.077  0.0516  0.1016 -0.0405
13980W        W29111   5.702  10.254  14.059 -0.0533 -0.0733  0.0984
13981W        W29112  12.753   7.901   2.566 -0.0872 -0.0992 -0.0009
13982W        W29113   1.642   6.511   3.914  0.0014  0.0687  0.1276
13983W        W29114  16.992   4.609  14.043  0.0074 -0.1891  0.0436
13984W        W29115  15.015   3.314   3.747  0.4528 -0.2330 -0.0671
13985W        W29116   4.005   8.155   0.312 -0.2181  0.1971  0.2191
13986W        W29117  16.312   3.392  12.767  0.5002 -0.1121 -0.2136
13987W        W29118  17.274  12.670  15.288  0.0431 -0.2765  0.5293
13988W        W29119   2.856   8.607   0.931  0.0276 -0.0058 -0.0096
13989W        W29120   0.183   5.195  11.910  0.0124 -0.2888  0.0914
13990W        W29121  10.835  15.157  16.909 -0.0675 -0.0517 -0.1988
13991W        W29122  15.299  12.274   1.196  0.2311 -0.0370  0.1651
13992W        W29123  13.686   7.068   0.827 -0.1634  0.0925  0.2409
13993W        W29124   7.342   5.742  16.432  0.1120 -0.2191 -0.2223
13994W        W29125   4.923  16.750   5.035  0.3639  0.2564 -0.0042
13995W        W29126  16.006   8.802   5.147 -0.0052  0.1654 -0.2517
13996W        W29127   1.675  10.143   6.449  0.1053  0.0140  0.3012
13997W        W29128  12.357  17.230   0.289 -0.2925 -0.0406  0.0895
13998W        W29129  11.353  10.997  12.109  0.1817 -0.0802  0.1617
13999W        W29130  14.435  14.981  15.114  0.1713  0.1432 -0.1047
14000W        W29131  10.562   6.901  13.226  0.1003 -0.1273 -0.1737
14001W        W29132  15.679   8.564  13.816  0.0304 -0.1216 -0.0419
14002W        W29133   6.490   6.891  12.823 -0.1546 -0.0445  0.1914
14003W        W29134  14.581   4.491  16.387  0.0586 -0.1254  0.0440
14004W        W29135  10.723   3.254  12.763 -0.1313  0.0791  0.1504
14005W        W29136  13.367   6.751  13.941  0.0044 -0.1318  0.2167
14006W        W29137   6.934   2.082  14.975 -0.0043 -0.2914 -0.3658
14007W        W29138   2.667   9.323  13.435 -0.3208 -0.1957 -0.0518
14008W        W29139  17.246   7.735   0.793 -0.0341  0.1093 -0.1876
14009W        W29140   8.995  10.159   0.859 -0.0704  0.0256  0.0860
14010W        W29141   5.677  10.638   1.414 -0.3486  0.2319  0.0681
14011W        W29142   4.522   7.308   3.345 -0.1197  0.0691 -0.2742
14012W        W29143   5.863  15.521   6.811 -0.0447 -0.1882 -0.1797
14013W        W29144   6.081   7.817   0.364 -0.2702 -0.1238  0.1071
14014W        W29145  16.578   7.378  15.982 -0.0691  0.0563 -0.0403
14015W        W29146   5.424   5.366  16.736 -0.1425  0.1994  0.0593
14016W        W29147  13.204   5.786  13.895 -0.1557  0.1769 -0.1277
14017W        W29148   0.161  14.144   3.295  0.0644 -0.4380 -0.1059
14018W        W29149  15.093   4.393  16.193 -0.3029 -0.0200  0.0058
14019W        W29150   4.975   3.210   1.462 -0.1175  0.0151 -0.3127
14020W        W29151  17.424   3.665   3.377  0.1283  0.0119 -0.3006
14021W        W29152   2.011   1.405  12.731 -0.1795 -0.1388 -0.1988
14022W        W29153  10.584  11.441   3.111  0.0615  0.1466  0.0876
14023W        W29154  12.815  14.633  12.383 -0.2400  0.0482  0.0362
14024W        W29155  17.306   4.902  12.376 -0.1120 -0.3324  0.2350
14025W        W29156   0.700   8.328   6.059 -0.2907 -0.0915  0.0882
14026W        W29157   1.369   8.125  14.601  0.0425 -0.0485 -0.4313
14027W        W29158  12.745   5.850  14.502  0.0926 -0.1660  0.0469
14028W        W29159   4.064   3.576  15.735  0.0666  0.1711  0.3364
14029W        W29160   6.980   0.527  15.618 -0.0228 -0.0845  0.1695
14030W        W29161   6.710  16.603   5.635  0.1016  0.2512  0.2327
14031W        W29162  16.745  12.538   4.825 -0.1959 -0.0329 -0.1471
14032W        W29163   8.089   7.984  13.520  0.0481 -0.3373 -0.0418
14033W        W29164  15.415   6.586   1.564  0.2100 -0.2219 -0.0251
14034W        W29165  10.301  10.949  16.240  0.0111  0.1363  0.1430
14035W        W29166   9.567   7.217  12.220  0.1634  0.0925 -0.0104
14036W        W29167   5.620  12.071  13.658  0.1248  0.0754  0.1034
14037W        W29168  16.685   1.212   0.421 -0.1661  0.0395 -0.1432
14038W        W29169   1.826   0.625  11.669 -0.0196  0.0844  0.1016
14039W        W29170   3.831   1.927  13.682 -0.0239 -0.0575  0.0633
14040W        W29171  16.050   6.105  10.630  0.0704  0.0333  0.0405
14041W        W29172  12.841   5.027  15.011  0.0652  0.1391 -0.0555
14042W        W29173   4.040  11.775  11.756  0.2835 -0.1288  0.0221
14043W        W29174   3.128   2.117   4.659  0.0196  0.0681  0.0481
14044W        W29175   0.028   2.939   3.566  0.1978 -0.2666 -0.2102
14045W        W29176   2.396   5.311   3.040 -0.0460 -0.0860 -0.0227
14046W        W29177   3.942  16.111   3.386  0.2773 -0.0276  0.1400
14047W        W29178   1.209   0.578  15.355 -0.0265 -0.1079  0.0068
14048W        W29179   2.673   7.909  12.708 -0.1828 -0.2927  0.1261
14049W        W29180  10.921  15.993  16.000  0.0754 -0.0950  0.2109
14050W        W29181  10.194   9.732  10.983  0.2793  0.3174  0.4097
14051W        W29182   6.473  13.187  11.523  0.0139 -0.0707  0.1066
14052W        W29183  13.903   3.883  12.957  0.0089 -0.1449  0.2813
14053W        W29184   9.558  15.760  14.012  0.1398 -0.1775  0.0640
14054W        W29185  12.292   0.004   6.357 -0.3262  0.0074  0.1496
14055W        W29186   7.842  10.185   3.916 -0.1498 -0.0407 -0.0331
14056W        W29187   0.670   9.003   0.240  0.1331 -0.2099 -0.1806
14057W        W29188   8.575  14.656  15.819  0.0650 -0.0492 -0.2769
14058W        W29189   5.629   7.059  12.091 -0.1185 -0.0333 -0.3286
14059W        W29190   2.255  15.704  15.517  0.1256 -0.1621  0.0300
14060W        W29191  10.911  11.399   2.144  0.1640 -0.0037  0.2605
14061W        W29192   9.680  15.474   0.957 -0.2720 -0.2161  0.1439
14062W        W29193  11.453   6.449  16.443 -0.2790 -0.2835  0.0441
14063W        W29194  14.920  13.792  16.036 -0.3289  0.1086  0.2265
14064W        W29195  11.689   5.377  16.890  0.0712 -0.1079  0.0250
14065W        W29196   6.831  15.205   5.958  0.1004  0.1082  0.3832
14066W        W29197  14.016  15.125   2.554 -0.4263 -0.0203 -0.1723
14067W        W29198   3.370  13.368   0.853  0.1945  0.3297 -0.3257
14068W        W29199  17.206  14.706  13.321 -0.0194  0.1178 -0.1547
14069W        W29200  16.034   7.764   0.315  0.1856 -0.0004  0.1023
14070W        W29201   3.449  16.202  12.891  0.2156  0.0604  0.1389
14071W        W29202  10.410  14.565   2.801  0.2248 -0.1950  0.0019
14072W        W29203   7.852   5.872  16.312 -0.0459  0.0238  0.0498
14073W        W29204   5.764  11.743  16.180 -0.2849  0.0285 -0.1260
14074W        W29205  14.574   9.137   2.017  0.1981  0.1723 -0.0508
14075W        W29206  11.813   8.565   2.867  0.1778 -0.1585 -0.1523
14076W        W29207   6.993   3.629   4.274 -0.0150 -0.0382  0.0453
14077W        W29208  15.860   9.155  11.677  0.1133 -0.4120 -0.0154
14078W        W29209   8.083   5.279   3.254  0.1409 -0.0958 -0.1365
14079W        W29210  16.084  16.394  16.730 -0.0718  0.0249  0.2361
14080W        W29211   4.946  16.481  14.176 -0.2562  0.0754 -0.0730
14081W        W29212  14.654   7.605   2.020 -0.1054 -0.0961  0.0694
14082W        W29213   9.023  10.143   4.188  0.1682 -0.0044  0.1389
14083W        W29214   7.276  16.446  16.894  0.2894  0.0250  0.0425
14084W        W29215  15.230   4.179   2.931  0.2173 -0.1015  0.1269
14085W        W29216  12.100   5.748   2.483 -0.0753 -0.1972 -0.1944
14086W        W29217  14.894   4.145  13.093 -0.0092  0.1402 -0.3611
14087W        W29218   5.383  12.170   0.222 -0.0829 -0.1991  0.1841
14088W        W29219   8.110  17.170  16.239 -0.0193  0.1996  0.2369
14089W        W29220   5.152   0.929  13.817 -0.1146  0.3279  0.0756
14090W        W29221   1.418   0.355   5.480 -0.1581 -0.0530 -0.2578
14091W        W29222  12.645   1.996  16.583 -0.1281  0.2976 -0.1006
14092W        W29223   5.104   4.460   2.574  0.1194 -0.1512  0.0645
14093W        W29224   2.446   6.716  12.106  0.0445  0.0773  0.2134
14094W        W29225  15.014   2.668   3.999  0.1634 -0.2545 -0.1807
14095W        W29226  12.913   9.088  12.025  0.1798 -0.2185  0.1750
14096W        W29227   2.130   2.489   2.359  0.2007  0.0462 -0.0049
14097W        W29228   8.830   3.231   2.548  0.0230 -0.0897  0.0249
14098W        W29229  15.578  15.835   4.287 -0.0871 -0.1808 -0.0445
14099W        W29230  11.159   3.896  15.676  0.1284  0.1509 -0.1952
14100W        W29231   3.526   7.642   2.138  0.0853 -0.0333  0.2638
14101W        W29232   5.087  12.474  16.565  0.0066 -0.1706 -0.0521
14102W        W29233   1.948   3.725  13.739 -0.0724  0.1479 -0.2905
14103W        W29234  10.121  14.939  12.762  0.0308  0.2190 -0.1256
14104W        W29235  12.671   5.831  16.372  0.1875  0.1739  0.0572
14105W        W29236   1.794  14.791  14.094 -0.0058  0.2347  0.0399
14106W        W29237   9.671  13.580   2.018  0.0813  0.1539 -0.0001
14107W        W29238  10.945   1.656  14.517  0.2297  0.0085 -0.0995
14108W        W29239  15.056  17.135   5.115  0.1963  0.3592 -0.1418
14109W        W29240   6.601   5.236  11.124 -0.1944  0.1231 -0.0525
14110W        W29241   1.487   7.846   3.316  0.0345  0.1909 -0.2225
14111W        W29242   0.169   7.524  12.257 -0.2739  0.0417  0.0798
14112W        W29243  17.179   5.628  13.559  0.1803  0.0167 -0.1481
14113W        W29244  15.809   7.501   2.493  0.1658 -0.0349 -0.1228
14114W        W29245  15.728   5.219   2.287 -0.0193 -0.2930 -0.2395
14115W        W29246  13.607   0.825  16.760 -0.3184 -0.3238  0.2879
14116W        W29247   3.057  13.028  15.191  0.0480  0.1984  0.1061
14117W        W29248  14.292  14.089   5.433  0.2036  0.0258 -0.0524
14118W        W29249   7.329   9.397   4.672  0.0439 -0.1013 -0.1861
14119W        W29250   1.983  12.028  11.822  0.1109  0.1226  0.1508
14120W        W29251   8.187  14.628   0.917 -0.1929  0.0218 -0.0228
14121W        W29252  13.957   9.300   1.872 -0.2520  0.1460 -0.2206
14122W        W29253  11.505   0.005   3.540 -0.2233  0.1575 -0.1187
14123W        W29254  13.754   3.821   4.359 -0.1945  0.1617 -0.4366
14124W        W29255   3.516   0.529  14.063 -0.0393  0.1562  0.0121
14125W        W29256  12.960  11.232   5.163 -0.3195 -0.0234  0.2472
14126W        W29257  10.244   8.239  14.878  0.2158  0.1572 -0.2886
14127W        W29258   7.746   8.491  16.381 -0.2901  0.0601  0.1817
14128W        W29259  17.517   9.978   0.285  0.1654 -0.1978  0.2344
14129W        W29260   0.953   3.694  14.868 -0.1237 -0.1786 -0.4291
14130W        W29261  17.398  14.775   3.684 -0.1655 -0.1078  0.2211
14131W        W29262  10.166  12.340   2.662 -0.0176 -0.0125  0.2049
14132W        W29263   5.036  10.319   6.084 -0.1345  0.1288 -0.1013
14133W        W29264  15.150   1.032   3.293 -0.0434  0.3112  0.1530
14134W        W29265   5.098   8.430   1.795 -0.0149 -0.1096 -0.0372
14135W        W29266   3.773   2.019   5.744  0.0678 -0.1512 -0.0712
14136W        W29267   4.311   8.766  11.134 -0.0740 -0.0389  0.3015
14137W        W29268  12.695   5.629   0.856 -0.1041 -0.0429  0.2120
14138W        W29269   1.125  13.433   3.761  0.1675 -0.1949 -0.0063
14139W        W29270   7.156  13.516   5.925  0.6419  0.0057 -0.2628
14140W        W29271   0.650  15.741   3.627  0.1079  0.1823 -0.0083
14141W        W29272   4.700  12.876   4.335  0.0768 -0.1578 -0.0860
14142W        W29273  15.091   6.205  12.498  0.2532 -0.1296  0.0266
14143W        W29274  14.392  16.391  16.697  0.2193  0.0990  0.1283
14144W        W29275  13.726  17.700   3.698 -0.2060 -0.1722  0.0382
14145W        W29276   2.133  15.802  12.601 -0.0691  0.1967  0.0368
14146W        W29277  13.643  15.697  16.045  0.3713 -0.5530 -0.2054
14147W        W29278   4.312   4.738  10.852 -0.0711 -0.1850 -0.0035
14148W        W29279   6.850  15.943  15.007  0.1005 -0.0592 -0.1881
14149W        W29280   5.632  17.491  15.967  0.0057 -0.1495  0.0521
14150W        W29281   7.086  13.213  12.496  0.3697 -0.1912 -0.1195
14151W        W29282   6.904   9.029   0.360  0.1759  0.0853 -0.1007
14152W        W29283   9.900  13.044   2.012 -0.0949  0.0117  0.2494
14153W        W29284  11.000  13.940   1.901 -0.0902  0.0464  0.0541
14154W        W29285   8.384   8.110   1.074 -0.1068 -0.2937  0.1580
14155W        W29286  14.518   2.031   3.738 -0.0909  0.0223 -0.0558
14156W        W29287  13.846  10.802  11.912  0.0848 -0.1439 -0.2574
14157W        W29288   4.071   0.170   5.191 -0.1074 -0.2992  0.0039
14158W        W29289  15.564  16.474  13.516  0.2062  0.2930  0.0473
14159W        W29290   4.164   0.894   1.741  0.1365  0.1270 -0.1472
14160W        W29291  12.163   3.453   0.563  0.0929  0.1743  0.2039
14161W        W29292  12.354   0.412  14.784  0.0560 -0.3870 -0.0954
14162W        W29293   0.927   5.338   1.705  0.1919 -0.1528 -0.0047
14163W        W29294   1.294  16.711   5.853 -0.0289 -0.1553  0.2656
14164W        W29295  15.961   5.970   3.743  0.0550  0.1515  0.2131
14165W        W29296  16.461  11.920   2.277 -0.1215  0.0048  0.2663
14166W        W29297   1.727   7.648  16.826 -0.4330 -0.1016  0.1373
14167W        W29298   2.622   4.878  14.222  0.0146  0.1016  0.1048
14168W        W29299   4.744  13.051  15.830 -0.1326  0.0996 -0.3357
14169W        W29300   9.559   5.124  16.059 -0.0768  0.0283  0.0560
14170W        W29301  15.847  15.691   6.139 -0.3174  0.1303  0.1756
14171W        W29302  14.105   6.565   0.892 -0.0361 -0.0342 -0.1397
14172W        W29303   5.856  10.382   2.662  0.0698 -0.0329 -0.1386
14173W        W29304  10.509  10.012  12.905  0.0420  0.1714  0.1850
14174W        W29305   7.547   0.124  13.006  0.1270 -0.1133 -0.0769
14175W        W29306   1.685   4.122  15.177 -0.3680  0.3450 -0.0053
14176W        W29307   7.597   3.099  13.375 -0.2295  0.0782 -0.1258
14177W        W29308   4.771   2.661  12.921  0.0042 -0.0085 -0.1252
14178W        W29309  16.843   9.518  16.100  0.3427  0.1414  0.0803
14179W        W29310   9.179  14.352  14.793 -0.3877 -0.0026 -0.0809
14180W        W29311   7.484   1.840   1.545  0.0827 -0.1284 -0.0927
14181W        W29312  11.127  15.133  14.479  0.2315 -0.0401 -0.0292
14182W        W29313  13.078  14.334  14.053  0.4062  0.0315 -0.1572
14183W        W29314   2.295   9.304  14.773 -0.0545 -0.0646 -0.2608
14184W        W29315   5.245   4.857  12.710 -0.0856 -0.0128  0.0846
14185W        W29316   3.205  14.504  13.271 -0.1946 -0.1997 -0.0136
14186W        W29317  12.304   7.720  11.808 -0.1642  0.3227  0.0153
14187W        W29318   5.134   4.096   1.845  0.0226  0.3232  0.0554
14188W        W29319   4.599   9.465   6.515 -0.1190 -0.0283  0.2402
14189W        W29320   3.530  10.233   3.673 -0.2019  0.0528  0.1685
14190W        W29321   0.970  13.133   0.120  0.1051 -0.0116  0.2982
14191W        W29322  11.456   3.139   4.400  0.0252 -0.2069 -0.1772
14192W        W29323   6.264  15.894   1.154  0.2285 -0.0145 -0.1750
14193W        W29324   8.691   3.383  13.320 -0.1007  0.1091  0.0104
14194W        W29325  14.117  17.315  15.252 -0.0335  0.2228 -0.1679
14195W        W29326  16.611   4.028   0.425  0.1951 -0.1441 -0.1943
14196W        W29327   0.483  12.270   5.056 -0.0528 -0.0537 -0.0592
14197W        W29328  10.629   7.678  12.764 -0.2498  0.0878  0.0338
14198W        W29329  17.013  15.485   3.204 -0.2020  0.0703 -0.1668
14199W        W29330  13.637   8.042  12.327 -0.0924  0.1612 -0.2605
14200W        W29331  14.176   2.328  14.843 -0.0521  0.2498 -0.2134
14201W        W29332   6.501  16.639   1.516  0.0986  0.0192 -0.0743
14202W        W29333   7.198   8.607  13.572  0.1315  0.2029  0.1188
14203W        W29334   9.073  10.009  11.564 -0.0442  0.0920 -0.1306
14204W        W29335   4.278   9.718  13.969 -0.1726  0.0311  0.0503
14205W        W29336  12.228   9.650   1.141 -0.1220  0.2612 -0.1408
14206W        W29337   1.597  15.394   3.673 -0.3033  0.3309 -0.0433
14207W        W29338  14.491  16.549  15.122  0.3035  0.1146  0.1503
14208W        W29339  15.603   5.887  14.504 -0.1197 -0.1450 -0.0096
14209W        W29340   7.591  12.630   4.425 -0.1086  0.2123  0.1356
14210W        W29341  11.223  10.099  15.099  0.0767  0.1028 -0.0520
14211W        W29342  12.515  11.567   1.644 -0.0859  0.2138 -0.1312
14212W        W29343   5.632   7.386   2.493  0.2821 -0.2516  0.0258
14213W        W29344   4.764  13.913   1.601 -0.2407  0.0502  0.1811
14214W        W29345   6.631  16.394  15.023  0.3075 -0.2527 -0.0323
14215W        W29346  12.845  13.847  16.153 -0.1772 -0.1077  0.2572
14216W        W29347   6.158  14.160  11.760 -0.3115  0.1804 -0.0580
14217W        W29348   8.377  11.820   5.882  0.0562  0.0022 -0.1182
14218W        W29349  10.226  15.173   3.487  0.1293 -0.1159 -0.1992
14219W        W29350   9.761   9.455  15.296 -0.4056 -0.1841  0.2166
14220W        W29351  15.464  13.140   3.591 -0.0690  0.1846  0.2480
14221W        W29352  17.304   8.617   0.960  0.1007 -0.2868  0.1647
14222W        W29353  16.570  16.890   4.840  0.0155  0.0484  0.0397
14223W        W29354  15.544  17.658   3.503  0.1694  0.0525 -0.1075
14224W        W29355   7.266  13.161   1.736 -0.3911  0.0689  0.0537
14225W        W29356   3.817  11.894   4.620 -0.0509  0.2038  0.1067
14226W        W29357  17.517  17.301   3.603 -0.1610 -0.3250  0.0513
14227W        W29358  15.197   0.949   2.417 -0.3667  0.0333  0.0137
14228W        W29359  16.908  15.268  15.047 -0.1249  0.0687 -0.1300
14229W        W29360   2.422   5.144   5.329 -0.0451 -0.2644  0.1479
14230W        W29361  14.467  13.784  16.433  0.0641  0.1193 -0.1052
14231W        W29362   1.088   7.016   2.641  0.1306  0.3542  0.2449
14232W        W29363   1.703   2.729  14.124 -0.1033 -0.0867  0.3220
14233W        W29364  17.271   9.726   4.800  0.1656  0.1247  0.0989
14234W        W29365  14.897   3.946   4.368  0.1636 -0.2325  0.0115
14235W        W29366  13.094   3.343  11.836 -0.0820  0.1380  0.2016
14236W        W29367   7.796  13.975   4.167  0.0784 -0.3676 -0.2388
14237W        W29368  14.226   4.187  15.530  0.0877  0.1856  0.1295
14238W        W29369  17.536  16.315   5.401 -0.2360  0.0462  0.0651
14239W        W29370  12.855   3.075  16.095 -0.0234 -0.2507 -0.2191
14240W        W29371  11.581   6.365  10.744 -0.1468  0.2121 -0.0723
14241W        W29372  16.161   8.460  13.857  0.1527  0.2870 -0.0593
14242W        W29373   6.152   3.443   0.770 -0.2516 -0.2904 -0.0981
14243W        W29374   9.842  13.531   3.285  0.0149  0.2151  0.2324
14244W        W29375   3.656   1.698   1.950  0.1061 -0.3359  0.1185
14245W        W29376   9.425   4.357   0.232  0.3120 -0.0457 -0.3594
14246W        W29377   8.548   6.812   5.787  0.1074 -0.0147  0.1545
14247W        W29378   9.614   7.760  16.195  0.2745 -0.0985  0.3759
14248W        W29379   5.345   1.415  13.879  0.3368  0.5864  0.3726
14249W        W29380  13.153   0.074  15.333 -0.1006  0.1669  0.2032
14250W        W29381   3.191  15.594   5.409 -0.0684 -0.0922  0.0401
14251W        W29382   3.244   4.164  10.970  0.5159 -0.0615  0.1684
14252W        W29383   8.299   9.587   0.429 -0.2092  0.0755  0.1346
14253W        W29384  16.763  15.082   3.004  0.2862  0.1827 -0.0433
14254W        W29385   8.477  10.208   0.874 -0.0599  0.0680  0.3606
14255W        W29386   0.831   2.680  16.046 -0.0569 -0.1880 -0.0881
14256W        W29387  10.043   7.592  15.258  0.0343  0.0249 -0.1266
14257W        W29388   7.820  11.457   0.562  0.1024  0.5100  0.0538
14258W        W29389  16.827   6.111   5.328  0.1609  0.2732 -0.1660
14259W        W29390  10.605   2.713   3.105 -0.2015  0.3861  0.0905
14260W        W29391  15.957  17.255   3.288  0.0874 -0.0186 -0.1175
14261W        W29392   7.864  16.575  16.306 -0.2043 -0.0239 -0.0499
14262W        W29393   4.785  10.151  15.698 -0.2341 -0.5280 -0.0855
14263W        W29394  17.419  12.104  15.151 -0.1141  0.2072 -0.0877
14264W        W29395  13.404   6.245  13.159 -0.3356 -0.1460  0.2146
14265W        W29396   1.739  17.660   6.110 -0.1054 -0.0572  0.1501
14266W        W29397   9.492  12.247   0.331  0.0660 -0.2561  0.3048
14267W        W29398   1.728  11.880   1.209 -0.1880 -0.2144  0.1569
14268W        W29399   4.802   3.960   4.321 -0.0355 -0.0859 -0.2085
14269W        W29400  11.510   7.338   0.793  0.0411 -0.0422 -0.0452
14270W        W29401   8.845   0.523   3.300 -0.2551  0.0363  0.0720
14271W        W29402   7.483   2.753   2.554 -0.1060 -0.1462  0.2614
14272W        W29403   3.259   5.096   2.135 -0.2276 -0.1655  0.1148
14273W        W29404   3.488   8.480   1.136 -0.2029  0.1897  0.1904
14274W        W29405  14.664   2.213  16.417  0.2001  0.0332 -0.0509
14275W        W29406   0.684   9.804   5.225 -0.1106 -0.3586  0.0434
14276W        W29407   6.319   1.029   5.133  0.1596  0.0581 -0.0106
14277W        W29408  17.409   2.617  16.540 -0.2114  0.2375 -0.1435
14278W        W29409   3.244  16.800  11.646 -0.0274 -0.2490  0.1904
14279W        W29410  15.952   6.062   6.226 -0.0271 -0.0577 -0.0712
14280W        W29411   8.598  12.246  15.069  0.1118 -0.0091  0.2408
14281W        W29412   7.798  15.615  14.341  0.0721 -0.0417 -0.0698
14282W        W29413  17.503  16.790   1.031 -0.1612 -0.0603 -0.1920
14283W        W29414  14.767   9.559   0.168 -0.0108 -0.2633 -0.0600
14284W        W29415   2.666  15.193  15.880 -0.1593 -0.0222  0.0528
14285W        W29416   5.368  15.518   0.746 -0.1426  0.2345 -0.2163
14286W        W29417  12.819   3.286  13.210  0.0435  0.0280  0.0624
14287W        W29418  12.091   2.813  16.768  0.1092  0.0796  0.0671
14288W        W29419  14.797   5.564   2.654 -0.2186 -0.0364  0.0546
14289W        W29420   3.150   1.914   5.140 -0.2933 -0.0767  0.1279
14290W        W29421   5.632   6.335  14.311  0.2161 -0.1294  0.2653
14291W        W29422   7.850  12.093  16.652  0.3670 -0.1182 -0.4044
14292W        W29423  13.872   6.249  16.904  0.0405 -0.0273  0.1066
14293W        W29424  16.544  14.436  12.514 -0.1264 -0.0322  0.0806
14294W        W29425  14.495   7.689   3.978 -0.2253 -0.0219 -0.3275
14295W        W29426  17.357  11.422   1.564  0.0596 -0.0298  0.3457
14296W        W29427  10.005   9.416  10.618 -0.0766 -0.0702 -0.0077
14297W        W29428   5.765   9.617  15.779 -0.1844 -0.1430  0.0163
14298W        W29429   0.420   0.457   1.488 -0.0245 -0.3850  0.0447
14299W        W29430  11.409   1.205  13.291  0.0977 -0.4537 -0.0960
14300W        W29431  12.728   2.053   4.442 -0.1908  0.2254  0.0384
14301W        W29432   7.957   4.054  11.009 -0.1157  0.0761 -0.0350
14302W        W29433   1.057   9.056  13.157 -0.1829 -0.1570 -0.0436
14303W        W29434  17.337   4.745  10.130  0.0554  0.1130 -0.2633
14304W        W29435  16.593   5.849  14.628 -0.1135 -0.0411 -0.2104
14305W        W29436   2.983   0.929  14.780  0.0807  0.1442 -0.2679
14306W        W29437   2.519   5.382   2.304  0.4124 -0.2543 -0.3354
14307W        W29438  16.696  16.758  14.705  0.0601  0.1856  0.0349
14308W        W29439   6.399  13.810   2.411  0.0138  0.0009  0.0312
14309W        W29440   3.383  14.812   3.940 -0.0228 -0.2740  0.2834
14310W        W29441   7.587  13.237  12.617  0.0055 -0.0603  0.1163
14311W        W29442   6.882  10.014  12.528 -0.0473  0.2402 -0.1247
14312W        W29443   0.514  13.049   0.061  0.0471  0.0812  0.1501
14313W        W29444   7.743   8.050  11.977  0.0060  0.5017  0.0493
14314W        W29445   7.202   8.272  14.508 -0.3852  0.0393  0.2875
14315W        W29446   4.901   7.159   4.175  0.1562 -0.1115  0.0066
14316W        W29447  14.049   1.084  14.909  0.0015 -0.1448 -0.1592
14317W        W29448  10.723  15.407   3.899 -0.2641  0.0491  0.0007
14318W        W29449   2.817   2.552  15.438 -0.2084  0.1353  0.1596
14319W        W29450   8.192  15.588  12.589  0.0734  0.1702 -0.0321
14320W        W29451  11.742   0.186  11.901 -0.0836  0.1923 -0.2555
14321W        W29452   6.302  17.074   4.985  0.0730  0.0024 -0.0843
14322W        W29453   9.231   6.945   1.764  0.3113 -0.0601  0.1659
14323W        W29454  11.760   5.715  13.880  0.1268 -0.2072  0.0663
14324W        W29455   9.611   0.073   5.044  0.1011  0.1067  0.0709
14325W        W29456   9.628   2.722   4.549 -0.1435 -0.2876  0.1429
14326W        W29457   6.852   8.818   3.392  0.1388 -0.0422  0.0384
14327W        W29458   4.524   1.030  12.141 -0.0458 -0.0063  0.3050
14328W        W29459   2.751   9.026  16.648  0.1499  0.1728 -0.2578
14329W        W29460   5.479   8.798  15.460  0.0998 -0.2311  0.2257
14330W        W29461  16.194   8.960  13.468 -0.4343  0.0248 -0.2581
14331W        W29462   7.193   3.139  12.502 -0.0422 -0.2623  0.0821
14332W        W29463  17.245   6.928   5.037  0.2069  0.1862  0.0199
14333W        W29464  15.718   9.964   3.464  0.0089  0.0694 -0.0595
14334W        W29465   1.477   8.227  14.112 -0.0777  0.0304  0.0465
14335W        W29466   9.066   5.973  14.191  0.2118 -0.0341 -0.2089
14336W        W29467   6.742   1.218  16.868  0.0219 -0.0066 -0.2573
14337W        W29468   7.807   6.744  11.479  0.2713 -0.2238  0.3736
14338W        W29469   9.871  14.003   0.521 -0.0363  0.3878 -0.1518
14339W        W29470   0.722  12.829   2.513 -0.2386 -0.0984  0.1617
14340W        W29471  13.310  16.196  12.521  0.0385 -0.1094  0.0171
14341W        W29472   1.335   6.898   3.983 -0.0361  0.1972  0.2469
14342W        W29473   9.577   1.184  15.924  0.4891  0.1092 -0.1720
14343W        W29474  11.568   2.300  12.837 -0.0878  0.0176  0.2370
14344W        W29475  10.405   5.214  16.249  0.1099  0.0699 -0.3741
14345W        W29476  13.485  11.050   3.304  0.0785  0.4885 -0.0394
14346W        W29477   1.496  14.070  15.263  0.1379 -0.0724 -0.0194
14347W        W29478  10.984  15.442  13.125  0.1161 -0.0640  0.2059
14348W        W29479  11.605   7.195  11.823 -0.0759  0.1760 -0.1947
14349W        W29480  11.981   7.387  13.932 -0.0705 -0.2915  0.2702
14350W        W29481  16.154   6.498  13.913  0.3252  0.0600 -0.0070
14351W        W29482   7.436   4.003  13.333 -0.4888 -0.0349 -0.1417
14352W        W29483   8.227   9.286   4.354 -0.0010  0.1180  0.0126
14353W        W29484   1.327   8.530  15.005  0.1065  0.1539  0.0396
14354W        W29485   7.258   2.235  16.259  0.0805  0.4353 -0.2424
14355W        W29486   6.436  13.653   1.393  0.0515  0.0003  0.0368
14356W        W29487   5.063   1.561   1.184  0.0112  0.3092  0.1671
14357W        W29488  11.772  16.965  16.475 -0.0853  0.5114  0.2449
14358W        W29489   2.381   2.315  15.476  0.0001 -0.3988 -0.1812
14359W        W29490  12.915   0.583   0.561  0.2904  0.0686 -0.0858
14360W        W29491   6.594  15.700   5.241 -0.2483  0.0670 -0.1811
14361W        W29492  17.562   7.764  14.525 -0.0934  0.0296  0.0960
14362W        W29493   2.494   2.227   1.174 -0.0154 -0.2500 -0.1311
14363W        W29494   6.755   9.416  16.393  0.2656 -0.1811 -0.1279
14364W        W29495   1.294   0.651   3.393  0.1358 -0.1324  0.0630
14365W        W29496  16.864  13.106  13.092  0.0171  0.2055  0.0198
14366W        W29497  12.040  14.916  14.922  0.0425  0.0788 -0.2555
14367W        W29498  16.303   8.587   0.089  0.1582  0.2459 -0.0508
14368W        W29499   9.333   6.233   1.742 -0.1094  0.1820  0.1649
14369W        W29500   0.356  11.966  15.989 -0.0739 -0.1484 -0.2038
14370W        W29501  15.768   0.334   2.531 -0.3377 -0.3800 -0.0954
14371W        W29502   3.598  10.380  13.151 -0.1798  0.0618  0.0398
14372W        W29503  15.016  17.013   3.966  0.0612 -0.0030  0.0318
14373W        W29504   2.097   7.972   2.753  0.0470 -0.1264 -0.4073
14374W        W29505   8.732   5.734   2.665  0.0775 -0.3355 -0.0557
14375W        W29506   6.233   7.008   4.857  0.1729 -0.1614 -0.1023
14376W        W29507  16.166   8.427   0.596 -0.0778 -0.1060 -0.0671
14377W        W29508   0.665  16.177  11.723 -0.0544 -0.1572  0.0299
14378W        W29509   6.598  10.204  15.394  0.0055  0.2070 -0.0715
14379W        W29510   3.162   9.157  13.370  0.2323 -0.2699  0.1419
14380W        W29511  15.639   4.860  12.712  0.1368 -0.0515  0.2401
14381W        W29512  10.877   9.454  11.638  0.1303 -0.3810  0.0774
14382W        W29513  10.020  10.140  14.639  0.1361  0.0710 -0.0627
14383W        W29514  13.186   4.918  11.517  0.0686 -0.2177  0.1315
14384W        W29515   4.267   9.582  11.419 -0.0084  0.0930 -0.0875
14385W        W29516   4.377  13.244  13.975  0.4321 -0.1812 -0.4226
14386W        W29517   7.224   5.667  13.802 -0.2364 -0.0129  0.1818
14387W        W29518  15.595  12.574  13.625 -0.1233  0.2216 -0.1009
14388W        W29519  15.552   9.493   3.459  0.4415 -0.0269 -0.3663
14389W        W29520   7.878  10.317   5.441 -0.0054  0.2466 -0.1766
14390W        W29521  14.165  10.180   5.728 -0.1496 -0.0826 -0.1374
14391W        W29522   9.353  15.166   3.859 -0.1848  0.1899  0.1450
14392W        W29523   5.181   3.466  11.692 -0.1514  0.0102  0.2023
14393W        W29524   9.635  13.806  13.252 -0.0115 -0.0511  0.0328
14394W        W29525  10.296   5.379  14.867 -0.1580  0.1370 -0.1058
14395W        W29526   9.317   1.469   0.069 -0.2171  0.1374 -0.0343
14396W        W29527  15.764   2.920   2.096  0.1051  0.2997 -0.2554
14397W        W29528  14.745   7.635  14.282 -0.0490  0.2006 -0.1106
14398W        W29529   6.840  14.342   1.209 -0.1616 -0.2585  0.1199
14399W        W29530   6.120  12.258   6.196  0.0900 -0.3261 -0.1304
14400W        W29531   6.068   2.055   2.350 -0.3039  0.2890  0.0557
14401W        W29532  13.804  16.361  12.565 -0.1236 -0.0502  0.4293
14402W        W29533  13.068  12.374  11.414  0.2002 -0.3778  0.1673
14403W        W29534   3.779   8.113   1.361 -0.3301  0.2225 -0.0580
14404W        W29535  15.195   8.665   3.178  0.0628  0.0923  0.0824
14405W        W29536   2.212   2.998  13.496 -0.1329 -0.1782 -0.0781
14406W        W29537   0.473   2.672   1.429 -0.0639  0.2036 -0.0786
14407W        W29538   8.493  13.975  15.273 -0.0000  0.0027 -0.3207
14408W        W29539   7.852   0.448  13.139  0.1498 -0.2001  0.0512
14409W        W29540  13.712   2.370   4.150  0.0497  0.1039 -0.1481
14410W        W29541   8.377   8.563  15.189 -0.1081  0.3834  0.0590
14411W        W29542   2.534   8.548  11.677 -0.0627  0.1302  0.3856
14412W        W29543  11.153  16.012   5.518  0.2939 -0.0245  0.0362
14413W        W29544   2.503   2.148  14.572 -0.2112 -0.3494 -0.0644
14414W        W29545   1.876  13.207   5.952  0.0360 -0.2611  0.0917
14415W        W29546   8.810  11.222  11.627 -0.0963  0.2156 -0.2240
14416W        W29547  11.480   3.010  14.513 -0.3468  0.1323 -0.3707
14417W        W29548  16.595   6.943  12.048 -0.0232 -0.0049  0.0186
14418W        W29549  14.379  16.536   4.420  0.0095 -0.0244  0.4392
14419W        W29550  11.187   1.533   0.915  0.2014 -0.1566  0.1978
14420W        W29551   5.060   3.455   5.234 -0.0664 -0.0805 -0.2315
14421W        W29552   2.163   7.802  12.819  0.2511 -0.0335  0.0359
14422W        W29553   2.973  13.891   2.497  0.0315 -0.1438  0.1022
14423W        W29554   3.127  15.006  14.980  0.0160 -0.3147 -0.1010
14424W        W29555   3.823   5.498  14.571 -0.2086 -0.0934 -0.1830
14425W        W29556   3.263   3.573   4.575 -0.1836  0.2529 -0.1134
14426W        W29557   4.042   4.520  16.673  0.0406  0.1051 -0.1174
14427W        W29558  15.208  12.559   3.734  0.0660  0.0361  0.0590
14428W        W29559   2.762  13.359  13.825 -0.0467 -0.2585  0.2150
14429W        W29560   5.852  12.428   1.401  0.1509  0.1134 -0.0203
14430W        W29561   2.212   1.582  11.962  0.0117  0.1449  0.1718
14431W        W29562   7.481   8.564  14.828 -0.2653 -0.0391 -0.0202
14432W        W29563   9.705   7.108  11.282  0.0359  0.0851 -0.0697
14433W        W29564  14.387   5.453   0.314  0.3250 -0.1140  0.1574
14434W        W29565  14.011   8.520   3.926 -0.0347  0.2494 -0.5028
14435W        W29566   0.204   4.928   2.709 -0.1385  0.0399 -0.0283
14436W        W29567  13.298   3.143   4.435  0.2217 -0.2441 -0.1978
14437W        W29568   0.959   3.785  13.623  0.1274  0.0059  0.0341
14438W        W29569  14.126   0.466  12.714 -0.1115  0.1461 -0.2676
14439W        W29570  10.097  17.510   0.489  0.1417  0.2296  0.0158
14440W        W29571   6.607   7.765  16.090 -0.2232  0.1169  0.2001
14441W        W29572   0.484   6.265  10.923  0.0387  0.0537  0.2570
14442W        W29573  11.494  13.751   3.140  0.0091  0.1736  0.0066
14443W        W29574   3.939   1.392  15.820  0.3034 -0.0950  0.0152
14444W        W29575  12.996   7.484  12.477 -0.0343  0.1781  0.0960
14445W        W29576  13.100   0.501  14.188  0.2472 -0.2077 -0.1755
14446W        W29577   4.070   3.393   5.285  0.2153 -0.1701  0.4241
14447W        W29578   8.950   8.067   1.144  0.0564  0.2603  0.4062
14448W        W29579  17.488   1.543   2.563 -0.0883 -0.0701 -0.1710
14449W        W29580   0.952   7.378  16.887  0.0009  0.0669 -0.2518
14450W        W29581   5.657   4.329  11.508 -0.0893 -0.2026  0.0122
14451W        W29582  14.926  14.068  12.271 -0.0115  0.0321  0.3384
14452W        W29583  17.598  17.599  15.096  0.0072  0.0612 -0.0404
14453W        W29584  17.370  14.327  13.582 -0.2116 -0.1249 -0.1362
14454W        W29585  13.346   9.632   2.413 -0.0869 -0.0271  0.0132
14455W        W29586  13.275  17.243  14.528 -0.0317  0.3319 -0.2017
14456W        W29587  11.071   4.447  15.901 -0.1890  0.1718 -0.1495
14457W        W29588   6.521  11.061   0.700 -0.2238  0.0838  0.1370
14458W        W29589   5.119   5.966  10.011  0.0592  0.2129 -0.0787
14459W        W29590   5.288   7.877   0.705 -0.3136  0.2057 -0.2030
14460W        W29591   9.155   6.027  12.757 -0.1499  0.0643 -0.1153
14461W        W29592  11.039   0.836   2.203  0.1730 -0.2845 -0.1767
14462W        W29593   4.061   7.132   4.542  0.0605  0.0043 -0.1958
14463W        W29594   7.939   6.201   4.775  0.3942  0.0829 -0.0880
14464W        W29595   3.082   3.489   0.046 -0.0807  0.0582  0.1320
14465W        W29596   1.212   8.711   3.261 -0.0432  0.1742  0.2004
14466W        W29597  10.850   0.181   2.883  0.0087  0.1855 -0.2672
14467W        W29598  11.496   5.065   0.274  0.1824 -0.1644 -0.1340
14468W        W29599   0.654   6.582   3.416  0.0783  0.1260 -0.0245
14469W        W29600   6.204  10.132   0.741  0.2635  0.0215  0.0737
14470W        W29601  15.137  10.109  14.984  0.1241 -0.1475 -0.3015
14471W        W29602  10.167   2.501   3.242 -0.1408  0.3083  0.3360
14472W        W29603  14.150   1.263   4.960 -0.2416  0.2141  0.0249
14473W        W29604  13.394  17.089  16.099  0.0531  0.0704  0.1476
14474W        W29605   2.853  11.329  16.315  0.0806  0.0847  0.0664
14475W        W29606  15.763  12.944   1.430 -0.2889 -0.0381  0.0141
14476W        W29607   9.739   2.029   0.553  0.1474  0.4314 -0.0812
14477W        W29608   7.101   8.460   3.073 -0.2215  0.1079 -0.0672
14478W        W29609   5.057   5.851  11.376 -0.1076  0.1711  0.2302
14479W        W29610   2.113   8.659  15.619  0.0425 -0.0736 -0.1465
14480W        W29611   4.064  11.260  11.712  0.1876 -0.0403 -0.0739
14481W        W29612  17.634  11.031  14.475 -0.1057 -0.2417  0.0570
14482W        W29613  12.347   0.750  13.344 -0.2583  0.2109  0.1183
14483W        W29614  16.417  10.025  13.158 -0.0098  0.2042  0.1471
14484W        W29615  13.997   9.107  14.463 -0.3103  0.0267 -0.2985
14485W        W29616  17.706   6.149   0.097  0.1018 -0.0128  0.2396
14486W        W29617   4.351   4.973  12.061 -0.3129  0.3526 -0.4710
14487W        W29618  13.059  11.752   3.061 -0.0917 -0.0772 -0.3686
14488W        W29619   3.844  10.757   0.934 -0.0077 -0.1279 -0.0866
14489W        W29620   0.042   1.823  15.608  0.1273  0.2184 -0.0746
14490W        W29621  11.354  17.073   1.145  0.1467 -0.2022 -0.2193
14491W        W29622   2.258  12.791   4.066  0.1016  0.3452  0.1844
14492W        W29623   4.959  12.324   5.523 -0.0935 -0.0597  0.2852
14493W        W29624   2.423   9.955  16.681  0.1457 -0.0510  0.0698
14494W        W29625   5.532   8.693   1.555 -0.0004  0.1268 -0.1741
14495W        W29626  11.259   1.641  12.377 -0.0110  0.2353 -0.0825
14496W        W29627  15.504   6.810   0.722  0.0246 -0.0344  0.0786
14497W        W29628   1.203   3.146  11.447  0.0089  0.0224 -0.0174
14498W        W29629   3.643   8.918   3.358  0.0760 -0.0747  0.1827
14499W        W29630  11.665  15.876   4.823 -0.0617 -0.1530  0.1930
14500W        W29631   0.543   3.251  13.952  0.1796 -0.1087 -0.0968
14501W        W29632  17.680  11.649  16.104 -0.1162 -0.0043 -0.1029
14502W        W29633  11.290   3.559   2.153  0.0881 -0.0794  0.0051
14503W        W29634   4.454  17.567   4.983 -0.0489 -0.2233 -0.2807
14504W        W29635   7.204   9.357   2.715 -0.1949 -0.0757 -0.2585
14505W        W29636  13.593   8.712   4.129  0.2698 -0.3322 -0.0270
14506W        W29637  15.508   5.658   3.830 -0.0274  0.3400 -0.1895
14507W        W29638   9.746   1.320   1.022  0.1391  0.2439 -0.2919
14508W        W29639  14.013   9.292  13.923 -0.2259 -0.2007 -0.1319
14509W        W29640   7.205   2.437   5.654  0.0779 -0.4086 -0.0987
14510W        W29641   8.897   7.738   5.267 -0.1997 -0.2782 -0.0573
14511W        W29642  10.929   1.620  16.388  0.0449 -0.0878 -0.0961
14512W        W29643   3.600  15.834  12.543 -0.0936  0.3812 -0.1292
14513W        W29644   5.136  16.460   3.087 -0.4078 -0.1431 -0.1197
14514W        W29645   8.600  17.437  16.188 -0.0214 -0.4160  0.2225
14515W        W29646   5.869   2.338  10.587 -0.2574  0.4714  0.2411
14516W        W29647   3.014   4.340  14.149 -0.0308  0.2636  0.1855
14517W        W29648   4.126   1.413  14.363  0.3744 -0.0774 -0.3644
14518W        W29649   1.726   1.743  15.121 -0.1347  0.0237 -0.0046
14519W        W29650  14.687  17.621  14.655 -0.1008 -0.3649 -0.1327
14520W        W29651  12.520  14.158   5.631 -0.0532  0.2431 -0.3596
14521W        W29652   0.774   3.269  15.152  0.2550  0.2600  0.0278
14522W        W29653  15.191   3.331   2.001  0.0957  0.0598  0.2047
14523W        W29654  13.010  15.768  15.146  0.0476 -0.0395  0.1301
14524W        W29655  17.603  11.758  14.343 -0.1680  0.2654 -0.0432
14525W        W29656  14.681   6.580  12.762 -0.1105  0.2488 -0.1845
14526W        W29657  17.447  12.347  14.171  0.1227  0.1178  0.3258
14527W        W29658  15.088  16.230   5.603 -0.1842  0.1523  0.1554
14528W        W29659  15.843  14.503   5.789  0.1670 -0.0540  0.4276
14529W        W29660   4.877  13.270  14.973  0.1597  0.0577 -0.3572
14530W        W29661   4.937   8.942   2.692  0.1958 -0.2348 -0.3345
14531W        W29662  15.033  11.653   1.306 -0.0896 -0.1713  0.1238
14532W        W29663  12.522  13.062   0.670  0.0126 -0.3012 -0.0702
14533W        W29664   2.316  16.995  12.299 -0.1965  0.1798 -0.2691
14534W        W29665   3.388   1.771   1.488 -0.0995 -0.0468 -0.0510
14535W        W29666   5.855   7.466   4.388 -0.2384  0.1028  0.0814
14536W        W29667   0.888  17.604  16.567  0.0402 -0.0452  0.0078
14537W        W29668  16.242   5.670   0.408  0.0733 -0.0399 -0.0172
14538W        W29669   0.708   9.943   3.382 -0.1433  0.0998 -0.1983
14539W        W29670   2.381   6.339  11.210 -0.0226  0.2578 -0.0747
14540W        W29671   4.099  13.184   2.908 -0.0148  0.1333 -0.0286
14541W        W29672   2.546   1.586   5.673 -0.2996  0.0547 -0.2174
14542W        W29673   7.155  13.595  14.153 -0.0234  0.4711 -0.0730
14543W        W29674  12.002   4.134  15.667  0.1269  0.1739  0.1186
14544W        W29675   2.626   2.435   4.690 -0.0973 -0.3048  0.2955
14545W        W29676  16.648   1.220   5.667  0.0756 -0.2068 -0.2750
14546W        W29677  14.313   2.232   2.845  0.2161 -0.0178 -0.0581
14547W        W29678   5.159  15.039  14.325 -0.1374 -0.0286  0.1544
14548W        W29679  15.336   1.019  11.746 -0.0020  0.2060  0.1053
14549W        W29680  16.979  14.378  15.082  0.3611  0.2129 -0.2564
14550W        W29681   7.695   3.641   1.809  0.0886 -0.2396 -0.0777
14551W        W29682  13.864   9.556  14.810 -0.3451 -0.1191  0.0138
14552W        W29683  13.487  14.498   6.359 -0.0874  0.1428  0.1218
14553W        W29684   1.444   8.372  13.182  0.1649 -0.1689  0.0142
14554W        W29685  12.255   0.579  11.537  0.1229  0.1487 -0.3280
14555W        W29686   8.656   3.937   1.026  0.0910 -0.1062  0.1731
14556W        W29687  11.368  11.327   3.398 -0.1149  0.1802 -0.0906
14557W        W29688   6.978  15.913  14.540 -0.0710  0.2169 -0.0121
14558W        W29689  12.355  12.795  16.789 -0.2984  0.0903 -0.2693
14559W        W29690  12.159   9.103   2.431 -0.0380  0.3265 -0.0557
14560W        W29691   9.931  12.210   0.541  0.2015  0.1246 -0.2120
14561W        W29692  15.920   9.815  11.559 -0.0859 -0.1518  0.1490
14562W        W29693   0.022   2.870   1.957  0.0234 -0.1615 -0.0926
14563W        W29694  13.948  13.544   1.429 -0.1155 -0.1729 -0.0876
14564W        W29695  13.759   4.182   3.108  0.0128  0.4812  0.2263
14565W        W29696   7.975   9.632   3.496 -0.0475 -0.2991  0.1233
14566W        W29697   5.289   3.316   4.765  0.2055 -0.2284 -0.1173
14567W        W29698  13.604   3.085   0.791  0.0716  0.4917  0.2656
14568W        W29699  16.302   3.959   2.605 -0.0345 -0.0088  0.0259
14569W        W29700   2.798   6.858  16.025 -0.2115  0.1051 -0.0643
14570W        W29701  15.785   5.725  12.010 -0.1686  0.2641 -0.1570
14571W        W29702  15.848  16.866  14.319  0.1057  0.0473 -0.2902
14572W        W29703   9.937  15.598   4.898  0.1577 -0.1496  0.0834
14573W        W29704  14.034  15.627   5.318  0.0167  0.1386  0.2178
14574W        W29705  10.632  13.993   6.365 -0.1651 -0.3667 -0.0881
14575W        W29706   4.952   2.666  14.070 -0.1794 -0.1097  0.0757
14576W        W29707  16.798   5.003  11.063  0.0619 -0.0941 -0.2609
14577W        W29708   8.047  10.287  16.033 -0.0493 -0.1590  0.1038
14578W        W29709   5.190   4.974  15.275 -0.0226 -0.0115 -0.0811
14579W        W29710   6.999  11.535   2.556 -0.1147  0.1390  0.1517
14580W        W29711   6.960  16.520   1.309 -0.1931 -0.0475  0.2007
14581W        W29712   1.030   9.162  13.674  0.1688  0.0804 -0.0927
14582W        W29713  14.895   0.571   3.267 -0.1965 -0.0618  0.0524
14583W        W29714  16.612   9.477   2.734 -0.0579 -0.1737  0.1472
14584W        W29715  15.504  17.552  16.026  0.1162  0.0187 -0.4548
14585W        W29716  11.644  17.478  15.086  0.2581 -0.0339 -0.0148
14586W        W29717   1.087   3.786   3.347  0.1688 -0.0431 -0.2921
14587W        W29718   4.300   9.864  13.490 -0.3557  0.1078  0.1527
14588W        W29719   1.473  10.244   4.744  0.0116  0.1036 -0.0642
14589W        W29720   4.905  14.806   6.206 -0.0366 -0.0673 -0.2177
14590W        W29721  16.497   0.460  13.275  0.0454 -0.0205 -0.0855
14591W        W29722   5.049   5.359  15.557 -0.0747 -0.1594  0.2522
14592W        W29723  14.742  11.022  13.114 -0.0395  0.0315 -0.0554
14593W        W29724   7.690  10.914  16.539  0.2943 -0.0129  0.1715
14594W        W29725   3.750   3.382  14.375  0.0297  0.0242  0.0193
14595W        W29726  11.767   1.154  16.616  0.1129  0.0585  0.0278
14596W        W29727  14.188   6.172   2.130 -0.0558  0.0337  0.3082
14597W        W29728   4.670  15.707  14.538  0.0067  0.2392  0.0366
14598W        W29729  13.394  16.592  12.778  0.2112 -0.1537  0.0540
14599W        W29730   2.914   3.011  14.590 -0.0566  0.2564  0.0298
14600W        W29731  17.582  15.607  13.985  0.1292 -0.1877 -0.0380
14601W        W29732   8.051   7.954  14.699  0.0863 -0.1816  0.0068
14602W        W29733  17.587  13.900  14.405  0.1718 -0.0311 -0.2258
14603W        W29734   2.264   6.555   2.788 -0.0471  0.0342  0.0375
14604W        W29735  11.133  13.595   0.629  0.1516 -0.1985 -0.3040
14605W        W29736   1.318   6.219   2.084 -0.0372 -0.0631  0.1411
14606W        W29737   3.130  10.701  16.642 -0.0872  0.1234 -0.0692
14607W        W29738  11.058  13.312   4.272 -0.0627  0.0120 -0.0914
14608W        W29739   0.967   2.560   3.788 -0.0998  0.0465  0.0195
14609W        W29740   8.512   9.222   3.476 -0.1553  0.0494  0.1058
14610W        W29741   9.664  10.086  11.762 -0.3700 -0.1112  0.0839
14611W        W29742   1.106   4.394   4.601 -0.0617 -0.0269 -0.0579
14612W        W29743   7.185   9.316  14.512  0.2052 -0.0675 -0.0697
14613W        W29744  17.555   9.746   5.726  0.3034 -0.0619  0.0678
14614W        W29745  17.188  12.321   4.573 -0.2604  0.1159  0.0637
14615W        W29746  15.412   5.980  12.790 -0.0230 -0.0717 -0.0958
14616W        W29747  12.910   6.432   4.939 -0.2058 -0.1222 -0.0787
14617W        W29748  17.464  16.582  11.767  0.1402 -0.0121  0.1095
14618W        W29749   3.603   9.506   2.564  0.1717 -0.2892  0.0170
14619W        W29750  12.480   9.597  14.063  0.0369 -0.2694  0.0904
14620W        W29751   1.376   3.868   2.113  0.0146 -0.2050 -0.1305
14621W        W29752   3.591   9.925   1.716  0.1669  0.0226  0.1242
14622W        W29753   8.114   3.275   2.296  0.0563 -0.4231 -0.1642
14623W        W29754   7.326   4.604   3.580  0.3336 -0.0510 -0.2428
14624W        W29755   5.674   9.274  15.399  0.1150 -0.0301  0.2609
14625W        W29756   0.672   6.599   3.910  0.1553  0.2031  0.1866
14626W        W29757  13.843   9.802  16.180  0.1096 -0.2275 -0.2411
14627W        W29758   4.405   8.440  13.103  0.0431  0.2566 -0.1654
14628W        W29759  13.153  16.529   4.809 -0.4011 -0.2583  0.1728
14629W        W29760  13.541  16.365   3.213  0.0698  0.3628 -0.0864
14630W        W29761   0.659  17.028  15.141 -0.1437  0.3505  0.1792
14631W        W29762  17.322  16.739   5.546 -0.1171  0.1303  0.0209
14632W        W29763  13.251   3.873  13.410  0.3574 -0.0738 -0.0193
14633W        W29764  16.465  12.540   4.154  0.2316  0.0814  0.1111
14634W        W29765   7.247  10.557  16.215  0.0142  0.2450  0.1012
14635W        W29766  10.421  13.413   0.063 -0.1278  0.0708 -0.0360
14636W        W29767  16.032  16.348   5.159  0.1480  0.0298  0.0487
14637W        W29768  12.832   4.175  14.903  0.0462  0.1367 -0.2749
14638W        W29769   8.397   0.932   5.438  0.0330 -0.2124 -0.0265
14639W        W29770   5.753   2.608  15.315  0.1111 -0.2343  0.0582
14640W        W29771   2.542   7.924   4.382 -0.0719 -0.2819  0.0136
14641W        W29772   5.640  12.332  14.467 -0.2121  0.0824 -0.1162
14642W        W29773   8.733  16.633  13.029 -0.0514 -0.0481 -0.3014
14643W        W29774   3.036  13.692   0.676 -0.0110  0.0644 -0.0243
14644W        W29775   5.891  17.689   0.682 -0.0399  0.1641  0.0714
14645W        W29776   3.053   7.883  11.308  0.1205 -0.2514  0.1540
14646W        W29777  15.981   3.344   6.096  0.3606 -0.2137 -0.2761
14647W        W29778   1.426  14.781  11.636 -0.0445  0.1017  0.0505
14648W        W29779   4.807  12.094   4.587 -0.1067  0.3214 -0.2330
14649W        W29780   5.435   5.842   4.198 -0.0318 -0.1914 -0.1694
14650W        W29781  12.887  15.114  15.878 -0.2594 -0.0238  0.0646
14651W        W29782  17.579  12.610   6.713 -0.0087  0.2836  0.0543
14652W        W29783  15.055   5.315   0.388  0.2915  0.1090  0.2148
14653W        W29784   0.449  14.591  14.247 -0.0703 -0.1280 -0.1368
14654W        W29785   2.303   4.001   2.919 -0.0998  0.1676  0.1389
14655W        W29786   1.600   6.524   3.425  0.1609 -0.0301  0.1170
14656W        W29787   8.316  16.248  13.084 -0.0830  0.2141  0.0141
14657W        W29788  11.470  13.358   6.151  0.0381  0.1048 -0.0907
14658W        W29789  11.417   5.198  16.415 -0.4348  0.1673  0.1828
14659W        W29790   1.108   0.853  16.084  0.0009 -0.2111 -0.0434
14660W        W29791   2.581  12.015   5.911 -0.1878  0.0756 -0.0882
14661W        W29792   1.906  11.410   4.216  0.0617  0.1392  0.2736
14662W        W29793  15.616  14.177  12.837  0.1246  0.0812  0.0847
14663W        W29794  17.610  15.451   1.623  0.1545 -0.1043 -0.0813
14664W        W29795  14.284   1.358  15.299 -0.1115 -0.1736 -0.0762
14665W        W29796  11.335  16.971   1.664 -0.1555 -0.0033  0.0713
14666W        W29797   8.109  16.725   5.177  0.0889 -0.0120  0.1035
14667W        W29798  15.241   7.536  15.816  0.4068 -0.0016 -0.1105
14668W        W29799  15.302   3.952   0.493 -0.0767 -0.0895  0.1904
14669W        W29800   2.506  15.519  14.217 -0.4093 -0.0241 -0.2818
14670W        W29801   5.566   2.307  16.812  0.0559  0.3564  0.0665
14671W        W29802   9.099   5.781   2.340 -0.1078  0.0631  0.0793
14672W        W29803   5.313  14.742  12.211 -0.0460 -0.2058  0.4102
14673W        W29804  14.263  17.087  11.917  0.1188 -0.2082  0.1009
14674W        W29805  12.224   8.254   2.730  0.1892  0.1727  0.0124
14675W        W29806   2.735   1.675  14.273 -0.1132  0.0371 -0.0743
14676W        W29807   2.787  11.709   3.124  0.0593  0.0688  0.1758
14677W        W29808   1.079   4.831  14.525 -0.0138  0.1166 -0.0309
14678W        W29809  11.409   4.183   6.116 -0.2079  0.1347 -0.0982
14679W        W29810   8.981  15.542   4.725 -0.0577  0.3074  0.2435
14680W        W29811   7.880   7.075  14.891  0.0392 -0.2340  0.0295
14681W        W29812  16.347  13.957  12.396  0.2374  0.1343 -0.1337
14682W        W29813   8.045   1.724  14.869 -0.0395  0.2415  0.1507
14683W        W29814   4.499  13.323  12.999  0.0330 -0.0948  0.1428
14684W        W29815   7.517   5.564  15.436  0.2970  0.2185 -0.0757
14685W        W29816   8.907   1.029   1.194  0.0668  0.0739 -0.0574
14686W        W29817   1.045   9.785   2.700  0.1474  0.2849  0.0643
14687W        W29818   2.053  14.020  13.673 -0.0904  0.2795  0.2365
14688W        W29819  10.083   2.008  12.737 -0.4583  0.1166  0.2286
14689W        W29820   9.340   8.455  16.889 -0.2442  0.2431 -0.1552
14690W        W29821  14.115   3.067  11.133  0.1020  0.0595 -0.2748
14691W        W29822   7.276   1.530   0.692 -0.2219  0.1734 -0.0004
14692W        W29823  17.604  16.811  16.443 -0.0822 -0.3112  0.0417
14693W        W29824   4.149   8.881   2.522  0.1941  0.0166 -0.1662
14694W        W29825   2.485  15.586   2.605  0.0911  0.2071 -0.3231
14695W        W29826  10.220   0.751  15.272  0.0435  0.0521 -0.1187
14696W        W29827   3.310  12.606  16.060 -0.1063 -0.2018 -0.0766
14697W        W29828   7.292   4.375   2.130  0.3885 -0.1012 -0.0283
14698W        W29829   6.570   0.380   6.145 -0.1315 -0.3032  0.1930
14699W        W29830   0.376  14.291  13.665 -0.3919  0.0186  0.0691
14700W        W29831   3.117   1.712  15.622 -0.0549 -0.0157 -0.1590
14701W        W29832  10.919   3.491   4.629 -0.0078  0.2551  0.1101
14702W        W29833   5.201  15.662  12.739  0.0093  0.1135 -0.2053
14703W        W29834  13.224   1.282   3.313 -0.1928  0.0751 -0.0844
14704W        W29835  10.981  11.235   0.671 -0.2501 -0.0706 -0.3971
14705W        W29836   8.745  14.887  14.572  0.0984 -0.0739  0.1464
14706W        W29837   2.671   7.329   4.977 -0.4129  0.2174 -0.0516
14707W        W29838   4.282  15.999  14.291  0.0167  0.0444  0.0474
14708W        W29839   5.651   9.762   4.942 -0.0282  0.0862  0.1548
14709W        W29840   2.631  12.847  13.944 -0.0394 -0.1984  0.1656
14710W        W29841   3.145   3.148   3.201  0.0734  0.1023 -0.2877
14711W        W29842   7.963   9.782  15.849  0.2938 -0.0466 -0.1218
14712W        W29843  13.826  11.379   2.585 -0.0997  0.0870 -0.3734
14713W        W29844   4.993   8.945  15.397  0.2888  0.0025 -0.4145
14714W        W29845   3.345   7.258   4.078 -0.0224  0.0291 -0.0813
14715W        W29846  17.286  15.638  12.780  0.0734  0.3787 -0.0116
14716W        W29847  15.723  10.738   5.260  0.1101 -0.2167 -0.1008
14717W        W29848  13.915   6.861  15.216  0.2256 -0.0827 -0.1910
14718W        W29849  14.366  14.144  11.397  0.0762 -0.0635 -0.0979
14719W        W29850   6.300   7.893  12.055  0.0761 -0.0855 -0.2551
14720W        W29851  16.527   0.511   0.842 -0.1420 -0.1353 -0.2445
14721W        W29852   1.768   8.649   3.288  0.0718 -0.3374 -0.3379
14722W        W29853   0.921   8.761   0.598  0.1763 -0.2211  0.1518
14723W        W29854  17.184   9.627   1.792  0.3873  0.0186 -0.0325
14724W        W29855   5.889  17.168   2.656 -0.0076 -0.0479 -0.2215
14725W        W29856   1.286   5.339  13.025 -0.1988  0.3484  0.0110
14726W        W29857  16.296  15.382  15.206 -0.1352  0.0303 -0.4444
14727W        W29858  11.548  11.894  14.326 -0.0544  0.0672 -0.1057
14728W        W29859  14.555   0.088   0.097 -0.0646 -0.1468 -0.4776
14729W        W29860  14.930   0.203   0.852  0.0621 -0.3585  0.1248
14730W        W29861  11.943  13.041  14.691  0.0275 -0.2823  0.2319
14731W        W29862   5.969   4.292   0.128 -0.2586 -0.0215  0.0567
14732W        W29863  10.870  12.935   3.468 -0.2380 -0.2332 -0.0920
14733W        W29864  16.078   7.074  14.014  0.3993  0.0338 -0.2100
14734W        W29865  16.068   2.991   1.619 -0.1399 -0.0811 -0.2224
14735W        W29866   9.340  16.431   6.961  0.1547  0.1371  0.1857
14736W        W29867   2.238   8.329   4.126 -0.0797  0.0838 -0.0639
14737W        W29868   0.831  16.675  16.663 -0.2776  0.2059 -0.0939
14738W        W29869  10.355   0.769   0.938  0.0403  0.0364 -0.1139
14739W        W29870   7.876   8.940  13.665  0.3943  0.1916  0.3560
14740W        W29871   3.750   4.974  15.694 -0.0646 -0.2153  0.2027
14741W        W29872   9.426  15.163  11.996 -0.2584 -0.0080 -0.0344
14742W        W29873   5.347   1.983  13.186 -0.1368 -0.2673  0.0518
14743W        W29874   1.431   2.601   0.416  0.1746 -0.3925 -0.0588
14744W        W29875   2.339   3.455   1.817 -0.2851 -0.0040  0.1050
14745W        W29876   9.368  17.073   3.480 -0.1121  0.0902  0.0214
14746W        W29877  16.182  11.443  11.528 -0.0427  0.0482 -0.0955
14747W        W29878   9.268   1.979   4.150  0.2387  0.0181 -0.1559
14748W        W29879   1.570  16.059  14.563 -0.0053 -0.2681 -0.2117
14749W        W29880   2.765  15.854   5.152 -0.2655 -0.2870 -0.0644
14750W        W29881  14.734  14.116  14.194  0.0425 -0.1460 -0.0230
14751W        W29882  17.401  13.742  15.752  0.2676  0.0893  0.1696
14752W        W29883   3.243   5.617   3.155 -0.2065  0.0114  0.3594
14753W        W29884   9.512   9.077   5.705  0.1227 -0.0373 -0.1028
14754W        W29885  11.245   1.741  15.920  0.0792  0.2314  0.0074
14755W        W29886  17.664   7.108  12.396 -0.0347  0.0771  0.1198
14756W        W29887   6.967  10.368  13.806  0.1421  0.0081 -0.0843
14757W        W29888   4.083   6.743   4.940  0.1480  0.1595 -0.1975
14758W        W29889  15.341   9.555  16.113  0.0039  0.4726 -0.0111
14759W        W29890   0.742   0.449  13.192  0.2235  0.0361 -0.0511
14760W        W29891   3.580   4.253   1.664  0.2965 -0.0596  0.0672
14761W        W29892   7.074   3.405  11.192  0.2223 -0.1630 -0.2019
14762W        W29893   4.052   8.848  15.525 -0.0241  0.1092 -0.4307
14763W        W29894   0.218  16.425   1.826  0.2056  0.0821 -0.2702
14764W        W29895   5.871   1.676  11.731 -0.1093  0.0072 -0.0975
14765W        W29896  16.376  11.476   2.524 -0.2542 -0.0409  0.2337
14766W        W29897  15.569   5.823   5.527  0.1295 -0.2519 -0.0068
14767W        W29898  17.020   0.893   1.490 -0.1644  0.0832 -0.0740
14768W        W29899  10.842  15.429   4.421  0.1955  0.2830  0.0228
14769W        W29900   7.410  14.927  14.787 -0.0896  0.2999 -0.3590
14770W        W29901   1.104  16.559  12.197  0.0286  0.1211  0.0651
14771W        W29902  14.220  12.760   5.971 -0.0901 -0.1502 -0.1079
14772W        W29903   8.124   1.014   2.770 -0.0319  0.0506  0.3316
14773W        W29904   2.317   4.433   3.446 -0.3016 -0.3226  0.3150
14774W        W29905  15.372  15.061   2.198 -0.0205 -0.0591  0.2894
14775W        W29906   7.034   4.650   4.312 -0.1353 -0.1269 -0.0861
14776W        W29907  17.103   5.793   0.795 -0.1536 -0.1589  0.3207
14777W        W29908   1.760   8.353  14.885 -0.0034 -0.0318 -0.2129
14778W        W29909   0.655  11.262  14.157 -0.0087 -0.0221 -0.2035
14779W        W29910  15.906  15.727  15.274  0.0767 -0.0890  0.1017
14780W        W29911  12.667   8.337   1.170  0.1346 -0.1476 -0.1770
14781W        W29912   8.101  16.194  15.998 -0.0234  0.0064  0.0270
14782W        W29913   4.014  17.241   4.844  0.1025 -0.0580 -0.0452
14783W        W29914  17.602   9.777   1.566  0.4023  0.1368 -0.1843
14784W        W29915  11.935  11.234  15.417  0.3524 -0.1362  0.4642
14785W        W29916   5.663   9.119  15.907 -0.1224 -0.1168  0.3653
14786W        W29917   2.916  14.630  15.988 -0.1518 -0.0346  0.0976
14787W        W29918  12.639  14.525   0.166 -0.0137 -0.1639  0.1740
14788W        W29919  14.623  15.985   3.888  0.0447  0.0146 -0.1579
14789W        W29920   2.596   3.246  14.905  0.0437  0.1194 -0.2482
14790W        W29921   6.710  17.650   2.793 -0.0119 -0.3313 -0.0445
14791W        W29922   4.860  11.243   4.841  0.0678  0.2258  0.1024
14792W        W29923   4.590  16.334  15.036 -0.1613 -0.0123  0.0566
14793W        W29924  16.091   2.900  13.451  0.0287  0.0987  0.2124
14794W        W29925   8.488   9.711   5.026 -0.2852 -0.0231 -0.1050
14795W        W29926  13.777   2.593  16.266  0.1134  0.0555 -0.3080
14796W        W29927   1.754   6.018  16.853  0.0247 -0.6898  0.0494
14797W        W29928   4.224  13.154  16.227  0.1671 -0.3404  0.2974
14798W        W29929  10.254   5.366  12.026  0.1029  0.0868 -0.2908
14799W        W29930  14.471  16.611   3.187  0.2630 -0.1099  0.0755
14800W        W29931   1.508   7.992  15.159  0.3043 -0.1587  0.0877
14801W        W29932   2.353   9.844  12.595  0.1016 -0.0030  0.0787
14802W        W29933  13.721  10.147   1.278 -0.1792  0.1426 -0.0910
14803W        W29934   1.957  14.947   2.387  0.4117  0.2407  0.0370
14804W        W29935   6.322   5.662  16.233  0.3350  0.1146  0.1809
14805W        W29936  16.014   8.181  11.303  0.1660  0.1046  0.2982
14806W        W29937  11.903  12.160   2.813 -0.0087 -0.0739 -0.0934
14807W        W29938   0.013   9.042  15.358  0.2334 -0.2968 -0.2238
14808W        W29939  15.840   8.704  11.464 -0.1367  0.0907  0.4681
14809W        W29940   4.221   1.632   3.439  0.0337  0.0428  0.2589
14810W        W29941  16.589  17.617  13.342  0.0404  0.2018 -0.2459
14811W        W29942   6.985   6.537  12.246  0.0250  0.0503 -0.0015
14812W        W29943   1.499   1.850   1.908 -0.2586  0.1083 -0.0926
14813W        W29944  13.780   5.811   0.323 -0.3952 -0.0785 -0.2425
14814W        W29945   6.023   2.098  12.456 -0.0788  0.0006  0.1304
14815W        W29946   7.226  14.165  15.332  0.0158 -0.1363  0.1464
14816W        W29947   3.030   0.106  16.897  0.0596 -0.0524 -0.0485
14817W        W29948   9.696  11.445   1.057  0.2555  0.0222 -0.0526
14818W        W29949  10.998   9.135  16.642  0.2347 -0.2539  0.0090
14819W        W29950   3.274   7.937   5.070 -0.2933  0.3321  0.0773
14820W        W29951  15.056   0.981  16.094 -0.1651  0.3266  0.1148
14821W        W29952   1.248   8.125  11.318 -0.0187 -0.1051 -0.1099
14822W        W29953  16.579   3.907   5.530  0.0061  0.0657  0.0565
14823W        W29954   6.308   5.409  15.418 -0.1834  0.0163 -0.0534
14824W        W29955   6.875   8.561  14.235 -0.1116  0.2739 -0.0821
14825W        W29956  10.680  13.841  16.262 -0.1752  0.1392  0.0973
14826W        W29957  15.654   1.915  11.284 -0.1805 -0.2451  0.3425
14827W        W29958  10.858   2.426   0.987 -0.1514 -0.1586  0.0889
14828W        W29959  17.470  12.686   4.352  0.0857  0.2205  0.2410
14829W        W29960   0.593  13.755  15.534  0.2832  0.0373 -0.2025
14830W        W29961  13.346  12.227  12.592  0.0462  0.3882 -0.1226
14831W        W29962  11.985  15.969  15.321 -0.0252 -0.0441 -0.1152
14832W        W29963   7.923   5.579  11.662 -0.0954  0.1602  0.0553
14833W        W29964  16.766  12.954   3.138 -0.0281  0.2112  0.0764
14834W        W29965  17.213   3.272   5.141 -0.0455 -0.1829 -0.0875
14835W        W29966   7.583  13.548   2.860 -0.2113  0.0210  0.0258
14836W        W29967   5.013  17.138  14.915 -0.0258 -0.1399  0.3120
14837W        W29968   1.612  10.124  12.277  0.2529  0.2066 -0.3343
14838W        W29969  17.014  11.901  14.906  0.0953  0.0520  0.1421
14839W        W29970   5.840   5.726   5.244  0.1929 -0.1134  0.0346
14840W        W29971  13.409  17.598  14.898 -0.0077 -0.0141  0.0576
14841W        W29972  17.605  10.691  15.583 -0.1404 -0.0081  0.1989
14842W        W29973  13.819   5.715  14.556  0.0394 -0.0825  0.0422
14843W        W29974  13.677  10.794  16.368 -0.0836  0.0221  0.1265
14844W        W29975  13.314   5.921  14.410  0.2358 -0.0205  0.3577
14845W        W29976   8.281   7.813  12.288 -0.0566 -0.1658 -0.2045
14846W        W29977  16.871   6.290   4.815 -0.2708 -0.0186 -0.1059
14847W        W29978   7.289   7.098   3.273  0.0353  0.1723 -0.1077
14848W        W29979  12.040  16.902  14.219 -0.2549 -0.1605 -0.0045
14849W        W29980   0.176   6.332  15.286  0.0336 -0.0331 -0.0191
14850W        W29981   1.685   5.427   2.153 -0.0676  0.0858  0.0395
14851W        W29982  12.856   7.075  12.882  0.0002 -0.2127  0.2422
14852W        W29983   1.171  14.069  16.531  0.2342  0.0535  0.2622
14853W        W29984   6.026  13.384   4.424 -0.1109 -0.2574  0.1160
14854W        W29985  13.539  13.881   4.483  0.1653  0.0975  0.0401
14855W        W29986   7.110  15.828   4.971  0.1189  0.1043 -0.0074
14856W        W29987  16.933   3.860  15.233  0.0747 -0.0219 -0.0620
14857W        W29988  11.298  13.081  12.100  0.0674  0.1013  0.0867
14858W        W29989   9.222  12.431  12.826 -0.0987  0.1784  0.2052
14859W        W29990  15.361  12.011   3.511  0.1437  0.0254 -0.1223
14860W        W29991   2.839   1.222   4.148  0.0670 -0.1343 -0.3636
14861W        W29992   9.651  15.577   5.777  0.3544  0.2510  0.2409
14862W        W29993   2.304  14.595  16.917 -0.0021 -0.0210  0.0895
14863W        W29994   6.097   3.116  12.389 -0.0272  0.0691  0.2041
14864W        W29995   0.030  14.341  14.575 -0.0639 -0.0770  0.1596
14865W        W29996   0.952   6.066   2.575 -0.2387  0.0395  0.0111
14866W        W29997   8.287   4.711   1.168 -0.1031  0.0077 -0.1230
14867W        W29998   9.492  16.212  15.304  0.0654  0.0531  0.0535
14868W        W29999  15.543   2.523   4.247  0.0100  0.2327  0.0722
14869W        W30000   0.398   5.369   3.054 -0.2478  0.3117  0.1615
14870W        W30001  15.014   4.424  14.265 -0.1476  0.2272 -0.0899
14871W        W30002  12.953   6.789   4.514  0.2395 -0.0370 -0.2088
14872W        W30003   4.733   1.757  15.808  0.4182  0.0866 -0.1246
14873W        W30004   5.613   3.524   4.066 -0.1356  0.0578  0.1294
14874W        W30005   2.631  10.552   5.394 -0.3093 -0.0065 -0.2972
14875W        W30006   2.162   3.935  11.740 -0.0098  0.1775  0.0131
14876W        W30007  13.359   1.695  14.788  0.1322 -0.1188  0.5802
14877W        W30008  10.981  14.679  13.280 -0.1782 -0.1372 -0.2593
14878W        W30009  17.046  11.198   1.925 -0.1155 -0.2625 -0.1940
14879W        W30010   2.392  14.010   0.140 -0.0446  0.0993  0.1908
14880W        W30011  10.843   8.369   1.392 -0.1931  0.0616  0.0347
14881W        W30012  15.448   9.859  14.163 -0.0369 -0.2822 -0.1792
14882W        W30013   8.541   8.108   5.217 -0.2375 -0.3674  0.0138
14883W        W30014   1.872  16.672  15.516 -0.1628  0.1355 -0.1291
14884W        W30015   9.838   7.496  13.062  0.0352  0.0463  0.0489
14885W        W30016  10.321   7.274   1.592 -0.1152  0.2012  0.1134
14886W        W30017  15.488   8.883   4.662 -0.3013  0.1145 -0.0491
14887W        W30018   6.036   1.127   1.739 -0.0996  0.1667 -0.1191
14888W        W30019   9.632  14.369   4.890 -0.3930  0.0096 -0.0059
14889W        W30020   7.761  13.614   0.978  0.3125 -0.0224  0.3972
14890W        W30021   6.891   5.917  14.950 -0.0389 -0.0427 -0.0854
14891W        W30022  13.866   0.492  15.488  0.0029  0.0768  0.0104
14892W        W30023  15.244  12.265  15.226  0.1234 -0.3101  0.1186
14893W        W30024   9.672   7.370   3.995 -0.0704 -0.0217  0.1983
14894W        W30025   6.023   6.239   2.965 -0.2400 -0.0597 -0.2138
14895W        W30026   9.233   1.956  16.307 -0.3943 -0.0184 -0.0340
14896W        W30027   5.886   6.607   0.317  0.2083 -0.0581  0.0850
14897W        W30028   7.427   3.224  11.978  0.2850  0.0339  0.0615
14898W        W30029  11.485  10.046  12.972 -0.0948 -0.2002 -0.1235
14899W        W30030  16.580   9.572   3.452 -0.0622  0.2011  0.2784
14900W        W30031   6.683   5.282   3.193  0.2600  0.0382  0.1676
14901W        W30032   3.557   2.782  12.714 -0.0017 -0.0735 -0.0354
14902W        W30033   1.112   2.131  13.916  0.2476 -0.0591  0.0031
14903W        W30034   0.303   9.266   2.683  0.1285 -0.0825 -0.1547
14904W        W30035   3.762   5.182  16.623  0.1005 -0.0702  0.0398
14905W        W30036   4.198   0.704  14.468 -0.2051  0.0303  0.0403
14906W        W30037  14.705   9.665   1.941 -0.1097  0.0179  0.0526
14907W        W30038   7.178   5.944  15.356  0.0449  0.4463 -0.1033
14908W        W30039  12.912   5.174   5.162  0.3697  0.2344  0.0612
14909W        W30040   0.076  16.887   5.488 -0.0767  0.2594  0.0381
14910W        W30041  10.666  17.116  15.189 -0.2336  0.2264 -0.1055
14911W        W30042  17.138   9.532  15.690 -0.3479  0.0578  0.0373
14912W        W30043   5.465   1.333   0.835 -0.0557 -0.1240  0.0087
14913W        W30044  16.307   1.215   3.252  0.0459  0.0347 -0.2821
14914W        W30045  15.849   9.896  15.143  0.1399 -0.5323  0.1841
14915W        W30046  16.843   6.239   1.667  0.1062 -0.1739 -0.0486
14916W        W30047  11.848  16.988   1.404 -0.0888 -0.1430 -0.0173
14917W        W30048  16.052  16.746   0.752 -0.1617  0.0094  0.0775
14918W        W30049   9.906   6.377  15.236 -0.0962  0.0435  0.1383
14919W        W30050   4.509   5.689  14.251 -0.0522 -0.2028 -0.1962
14920W        W30051   6.512   5.381   2.737  0.0740 -0.1591 -0.0268
14921W        W30052   9.212   3.408   2.824  0.1545  0.0793 -0.0402
14922W        W30053  12.153   7.230   1.322 -0.1290  0.0165 -0.0739
14923W        W30054  15.813   4.420   3.726 -0.1871  0.1003 -0.0286
14924W        W30055  12.666   7.997   1.923  0.1711  0.1978 -0.0477
14925W        W30056  11.822   8.313   0.708 -0.0887  0.1116 -0.0926
14926W        W30057   7.318  12.345  12.774 -0.0229  0.1650 -0.1051
14927W        W30058   7.208   1.279  16.074  0.2704 -0.3273 -0.1786
14928W        W30059   2.920  13.345   5.775 -0.1797  0.1653 -0.0138
14929W        W30060  12.837   3.821  15.310 -0.2935  0.0487 -0.0976
14930W        W30061   6.562   2.821   1.964  0.0254 -0.1878  0.0647
14931W        W30062  17.252   9.345   3.609 -0.3300 -0.1953 -0.0023
14932W        W30063  13.461  15.532  15.200 -0.0076 -0.0016  0.2084
14933W        W30064  15.196  15.408  13.823 -0.0536 -0.1201 -0.0908
14934W        W30065  14.278  15.036  16.439  0.1280 -0.0263  0.1424
14935W        W30066  14.844   3.090  11.589 -0.1057 -0.1347 -0.3783
14936W        W30067   4.765  14.223  13.893  0.0076  0.4571 -0.1156
14937W        W30068   9.528  16.814  14.591 -0.0998  0.2196 -0.1946
14938W        W30069  14.431   3.170   3.574 -0.1073 -0.1156 -0.4960
14939W        W30070  12.859   7.892  11.025 -0.1064 -0.1089  0.0053
14940W        W30071   2.269   7.593   5.254  0.1582  0.2153 -0.0693
14941W        W30072   6.081   2.588   3.920  0.0756  0.4305  0.1314
14942W        W30073   2.291  16.680  14.638 -0.0656  0.2895 -0.0625
14943W        W30074   5.248  14.503  11.715  0.0735  0.1801  0.0633
14944W        W30075   6.030  13.244  16.660  0.0478  0.0681 -0.3936
14945W        W30076   9.840   2.734  13.127  0.1490  0.0738 -0.0601
14946W        W30077   0.156   4.127   1.357  0.0616 -0.2240  0.1777
14947W        W30078   4.706   7.613  15.502  0.0383  0.0361 -0.0863
14948W        W30079  14.561  13.774   5.142 -0.0154  0.0752 -0.1330
14949W        W30080  10.887   6.713  11.905  0.1604  0.1072  0.0391
14950W        W30081   7.536   8.916  15.709  0.0414 -0.0266  0.0526
14951W        W30082  17.153   4.493   3.083 -0.0854  0.0741 -0.1280
14952W        W30083   1.418   8.828  13.381  0.0782 -0.1604  0.1386
14953W        W30084   8.556  15.627  15.929 -0.0250 -0.1033  0.1848
14954W        W30085  17.706  14.913   1.752  0.3137  0.0021 -0.0770
14955W        W30086   2.918  12.517   0.474  0.0894  0.0352 -0.1991
14956W        W30087  14.511   1.405   5.332 -0.1025 -0.2040  0.1271
14957W        W30088   9.871   6.148  10.955 -0.0232  0.1096  0.1399
14958W        W30089   2.927   7.744  10.468 -0.1103  0.1024  0.1132
14959W        W30090   2.272  11.946  15.106 -0.0071  0.1065  0.0285
14960W        W30091  13.030   3.711  16.179 -0.1529 -0.0819 -0.2723
14961W        W30092  17.010  10.919   4.572  0.1250  0.0455 -0.0220
14962W        W30093  16.746  14.276  11.715  0.0414  0.1312  0.0374
14963W        W30094  11.047   2.022  12.567 -0.1199 -0.0085 -0.1734
14964W        W30095  12.085  10.582   4.358  0.0049  0.0425 -0.0424
14965W        W30096  16.081   1.784  15.549 -0.0934  0.0156  0.0329
14966W        W30097   7.287  12.052  11.856 -0.1073 -0.1017  0.0737
14967W        W30098  14.741  10.557  12.650 -0.0434 -0.0930  0.0795
14968W        W30099   9.353   5.916   4.161 -0.2022  0.1127  0.1535
14969W        W30100   1.787   2.996   1.336 -0.0684 -0.1372  0.0133
14970W        W30101  17.217   8.560   0.192 -0.0104  0.0756 -0.0959
14971W        W30102  12.359   2.288   2.386  0.3287  0.0827 -0.2348
14972W        W30103   5.262  12.900  12.798 -0.3221 -0.0632  0.1962
14973W        W30104  12.089  11.594   2.959 -0.1739 -0.1901 -0.0416
14974W        W30105   2.531  15.806   4.207 -0.2396 -0.2341 -0.0098
14975W        W30106   7.695  15.590  16.509  0.0949  0.1538  0.3034
14976W        W30107  10.870  12.728  12.469 -0.4801 -0.1244  0.0327
14977W        W30108  13.609   8.196  15.256 -0.2005 -0.0982 -0.0069
14978W        W30109   8.100   1.322  14.529  0.2951 -0.1117  0.1304
14979W        W30110  12.408  11.041   1.677  0.4468  0.1220  0.2408
14980W        W30111   5.617   8.694   3.379 -0.5169 -0.1738  0.2991
14981W        W30112  15.457   3.389  16.132 -0.0972  0.0540  0.0175
14982W        W30113  16.413   2.356  14.464 -0.0293 -0.1353  0.2763
14983W        W30114  13.982  13.741   0.899  0.0210  0.0826  0.1259
14984W        W30115   6.443   9.087  15.142 -0.2425 -0.2605 -0.2623
14985W        W30116   3.701  14.147  13.920  0.1675  0.0797 -0.3260
14986W        W30117   1.348   0.342  13.264 -0.0042 -0.1305  0.1855
14987W        W30118  11.569  17.201   4.991  0.1425  0.1089 -0.0110
14988W        W30119  10.375  12.931  16.272 -0.3273 -0.0512  0.2581
14989W        W30120   2.516   3.174   1.229 -0.1110 -0.0981  0.0848
14990W        W30121   4.782   8.081  13.201 -0.0543  0.2030  0.0879
14991W        W30122   1.352  12.183   3.549  0.2578 -0.2136  0.3159
14992W        W30123   6.199   7.947   4.431 -0.2222  0.0938  0.1658
14993W        W30124   9.114   4.664  11.557  0.2856  0.1103 -0.0483
14994W        W30125   1.787  13.711  16.847  0.3426  0.1019  0.1400
14995W        W30126  14.737  11.931   4.508  0.1151 -0.2938 -0.1502
14996W        W30127  12.745   8.480  11.607 -0.0305 -0.0763  0.0178
14997W        W30128   6.664   7.104   0.434 -0.2257  0.0394  0.0046
14998W        W30129  16.873   1.897   4.361  0.2474  0.2060  0.3703
14999W        W30130   0.718  12.091  16.311 -0.0191  0.1027  0.0825
15000W        W30131   8.041  13.006   5.262  0.0532 -0.0695  0.0165
15001W        W30132   7.917  17.544  16.530 -0.1515  0.1814  0.3047
15002W        W30133   0.209   0.424   3.048 -0.0864 -0.2877  0.1624
15003W        W30134  13.675   8.583  14.960 -0.1238  0.1514  0.2077
15004W        W30135   8.516  13.216   6.157  0.1424 -0.3134  0.1308
15005W        W30136   3.339  15.342  14.628  0.0171 -0.1673 -0.0580
15006W        W30137  14.367   3.842  10.667 -0.2967 -0.1637  0.1841
15007W        W30138   4.971   9.534  14.585 -0.0064 -0.2103 -0.1389
15008W        W30139   6.061   3.452  14.898  0.0781 -0.1570 -0.4669
15009W        W30140  13.339   7.280  12.704  0.1660  0.2525 -0.3418
15010W        W30141   1.351  15.997   4.593 -0.2254  0.1806  0.0548
15011W        W30142  15.591  15.621  16.237  0.1494  0.3433  0.1822
15012W        W30143  16.221   7.690  11.360 -0.0760  0.1423  0.0649
15013W        W30144  17.448  10.910  12.895  0.0778 -0.1002 -0.0398
15014W        W30145  11.939   2.197   0.648  0.2917  0.0358  0.0840
15015W        W30146  13.119  16.564  16.230 -0.1916  0.0802 -0.0324
15016W        W30147   1.108  13.162   2.284  0.0412 -0.1109  0.0874
15017W        W30148  14.676  10.004  12.501 -0.1845 -0.1337  0.4199
15018W        W30149  12.332   0.425  16.768 -0.1870  0.1952  0.1688
15019W        W30150  14.966  11.169   6.480  0.0230  0.0385 -0.1702
15020W        W30151   9.204   9.237   1.325 -0.2089 -0.0355 -0.0055
15021W        W30152   0.557   8.620  15.067 -0.1585 -0.0871  0.0802
15022W        W30153  14.114  16.476  15.862 -0.0411 -0.1273 -0.2378
15023W        W30154   5.205   1.593   1.804  0.0037  0.0194 -0.0405
15024W        W30155   1.768   6.768   0.202  0.0681  0.0652  0.0448
15025W        W30156   6.461   4.487  15.658 -0.0639  0.1933  0.4368
15026W        W30157   4.235   4.374   0.187 -0.0087 -0.3401 -0.1384
15027W        W30158  13.799  13.650  13.147 -0.2478 -0.0331 -0.1641
15028W        W30159  16.842   4.802   3.417 -0.0666  0.1150  0.1145
15029W        W30160  13.912  14.247   2.794 -0.0027  0.1600  0.1569
15030W        W30161  12.516   9.285  15.556 -0.2788  0.0115 -0.2736
15031W        W30162   5.986  12.836   1.158 -0.1297  0.1320 -0.1760
15032W        W30163  13.031   2.923  10.148 -0.0260 -0.0253 -0.1923
15033W        W30164   4.390   9.153  15.673 -0.1935  0.0471  0.1835
15034W        W30165   9.274   5.539  12.880  0.2618  0.0965  0.1780
15035W        W30166  17.604   9.694   3.761  0.1969 -0.0102 -0.5785
15036W        W30167   9.281  15.380  14.116 -0.0936  0.1874  0.0685
15037W        W30168  10.013  10.321  16.884 -0.3022  0.3128 -0.3890
15038W        W30169   9.862   6.813  15.670  0.1827  0.0771  0.0958
15039W        W30170   7.853  14.321   2.687  0.0683 -0.1232  0.0478
15040W        W30171  13.641   5.578   0.947 -0.1690 -0.0990  0.1175
15041W        W30172  15.417   7.391  12.353 -0.0600 -0.2978 -0.0234
15042W        W30173   1.499   6.171   2.535 -0.1512 -0.1391  0.0030
15043W        W30174   0.661  10.892   4.729  0.1104  0.2524 -0.0429
15044W        W30175   3.781  11.137   4.117  0.2641  0.2294  0.1000
15045W        W30176   4.415  17.559   4.330 -0.0387 -0.0674  0.1577
15046W        W30177   4.014  11.216   1.104  0.2881  0.0251 -0.2576
15047W        W30178  16.599   7.658   3.860  0.0637  0.1480 -0.2116
15048W        W30179   9.677  12.490   3.283 -0.1669 -0.0495 -0.0592
15049W        W30180   1.322  17.010   3.373 -0.1153 -0.0493  0.1003
15050W        W30181  16.756   9.906   2.569 -0.1689 -0.1079 -0.3146
15051W        W30182   8.048   7.647  16.648 -0.1531  0.1872 -0.0898
15052W        W30183  10.217   6.107   3.428 -0.1122  0.1243  0.1939
15053W        W30184  12.166  13.798  14.011 -0.1742 -0.0054  0.1623
15054W        W30185  15.592  11.856  16.934 -0.0491 -0.2509 -0.1431
15055W        W30186  13.619  15.108   3.090 -0.4411  0.3050 -0.3117
15056W        W30187  12.675   4.731   3.891 -0.0239 -0.2175 -0.5605
15057W        W30188   7.816  16.772   4.048  0.0392 -0.2844  0.0232
15058W        W30189  13.935   0.330   5.285  0.1213  0.1408 -0.4117
15059W        W30190   1.283  10.989   4.901  0.1615 -0.4131  0.1537
15060W        W30191   9.625  14.823   2.961  0.2477 -0.2608  0.3934
15061W        W30192  16.797  16.766  15.371 -0.0969  0.0936 -0.1061
15062W        W30193   1.907  11.622  12.652  0.1135 -0.2937  0.1360
15063W        W30194   1.931  15.356  15.429 -0.1712  0.1823  0.4770
15064W        W30195  16.592   3.159  13.497  0.1415  0.1281  0.2650
15065W        W30196   6.282  15.422   2.667  0.1033  0.1396  0.0409
15066W        W30197   6.407  11.538   4.866 -0.3347  0.1950  0.0696
15067W        W30198   4.317   0.677   1.306  0.1700 -0.0318 -0.2000
15068W        W30199   0.757  11.648  16.010 -0.2613 -0.1139 -0.0811
15069W        W30200   2.782  17.258   1.451  0.2477  0.0532 -0.4329
15070W        W30201  12.057   4.378   5.898 -0.2259 -0.0311 -0.3380
15071W        W30202  13.470  12.339   2.098 -0.1357  0.0597  0.0659
15072W        W30203   7.881  14.636  15.074  0.0671 -0.2419  0.2921
15073W        W30204  12.730  12.820   0.232  0.1785  0.0810  0.1023
15074W        W30205   6.746  14.012  13.939 -0.0233 -0.2626 -0.1484
15075W        W30206  14.676  11.286   2.700  0.1660 -0.1400  0.1621
15076W        W30207   3.350   4.356  13.584 -0.2689 -0.0552  0.0472
15077W        W30208   9.942  11.738  12.691 -0.0996 -0.2015 -0.0341
15078W        W30209  11.248  12.628  15.840 -0.5277  0.2112 -0.0072
15079W        W30210  13.649   8.975   5.511 -0.1389 -0.0707 -0.0364
15080W        W30211  11.405  16.280   2.419 -0.0910 -0.0309 -0.2103
15081W        W30212   7.266  14.677  14.336 -0.1452  0.0675  0.0352
15082W        W30213   2.384   9.163   1.938 -0.1386 -0.1052  0.0320
15083W        W30214  12.919  14.438   0.691 -0.1624 -0.0137 -0.2109
15084W        W30215  11.200  13.140   1.335 -0.2154 -0.1930  0.0805
15085W        W30216   7.683   6.386  13.804 -0.2665 -0.2913  0.0692
15086W        W30217  14.730   1.465   6.173 -0.0465  0.1461 -0.1893
15087W        W30218  11.190   5.175   5.223  0.0310 -0.1565 -0.1755
15088W        W30219  13.819  11.951   0.862 -0.0358  0.0523  0.1799
15089W        W30220   6.944  17.335   1.201  0.3932 -0.1184 -0.1782
15090W        W30221   4.049   2.537   5.191 -0.1117  0.0635  0.0395
15091W        W30222  13.507   0.645  12.910  0.3255 -0.2732 -0.2570
15092W        W30223  11.148  16.637   0.765 -0.2376 -0.2352 -0.1714
15093W        W30224  12.788   9.635  12.260  0.3074  0.2277 -0.1085
15094W        W30225  15.191   6.746  11.634  0.1005 -0.2509  0.0845
15095W        W30226  10.184   2.251   4.231  0.1840 -0.1724  0.1278
15096W        W30227   3.746   6.460   5.373 -0.0728 -0.0801 -0.1523
15097W        W30228   8.086  14.232  11.889 -0.2115 -0.0790  0.3049
15098W        W30229  13.695   1.301   2.645  0.1725  0.1758 -0.2298
15099W        W30230  11.757  13.456  14.944  0.0423 -0.2340 -0.1552
15100W        W30231  15.713  12.005  14.662  0.0159 -0.4983  0.4291
15101W        W30232  14.084  16.638  14.433  0.0160 -0.0298 -0.5204
15102W        W30233   3.064   4.616  16.271  0.2000  0.0749  0.0522
15103W        W30234   4.975  16.974  11.827  0.1255  0.2107 -0.1960
15104W        W30235   2.708   3.654  13.422 -0.0824 -0.1425  0.3209
15105W        W30236   1.894   9.343  15.094  0.1740  0.0692  0.0332
15106W        W30237   0.881  12.541  12.703 -0.2006  0.2710  0.1037
15107W        W30238   9.005   1.724   0.321 -0.0632 -0.0605  0.0766
15108W        W30239  10.206  10.224  13.569  0.0582  0.0173  0.0602
15109W        W30240  13.927   1.477  11.651 -0.2038 -0.0125 -0.1929
15110W        W30241  15.505  13.429   2.310 -0.2571 -0.1116  0.0531
15111W        W30242   2.435   0.484   2.444  0.0081 -0.1875 -0.1067
15112W        W30243   0.307   1.841   4.519  0.1406  0.1639  0.2711
15113W        W30244  13.292   8.800  14.779  0.0913 -0.3910 -0.0959
15114W        W30245   4.069   7.954  14.523  0.0184 -0.3382  0.0752
15115W        W30246  16.199   8.190  13.064  0.1109  0.0265 -0.2005
15116W        W30247   8.597   6.330  15.133 -0.0645 -0.2829  0.2241
15117W        W30248  15.869  16.376   1.459 -0.0551 -0.0867 -0.1576
15118W        W30249   3.086  12.058   1.348  0.1711 -0.1378  0.0764
15119W        W30250  17.714  15.960  15.770  0.0482  0.1353 -0.0696
15120W        W30251   4.483   6.734   3.270  0.2975 -0.0915 -0.0204
15121W        W30252  17.691   7.735   5.197  0.2675  0.1179 -0.1990
15122W        W30253  11.918  15.360  15.068  0.0166 -0.0777 -0.1358
15123W        W30254   4.705   9.531  15.012  0.2115 -0.0968  0.0407
15124W        W30255  17.525  11.125   2.190  0.2157 -0.0963 -0.3617
15125W        W30256  16.738   5.287   5.021 -0.2132 -0.1026 -0.1425
15126W        W30257   4.131   0.043   3.849  0.0990  0.1515 -0.2264
15127W        W30258   8.927   6.858   2.609 -0.1507 -0.2083 -0.2910
15128W        W30259   8.917  17.257  16.580  0.1263 -0.0760  0.3894
15129W        W30260   4.772   8.302   4.633 -0.1738  0.2052 -0.1947
15130W        W30261   1.144  12.864   3.962  0.0491 -0.1042 -0.2213
15131W        W30262   7.493   9.682   5.851  0.3133 -0.0788  0.0723
15132W        W30263  10.479  12.576   3.697 -0.2077  0.0456  0.2570
15133W        W30264  11.292   9.718  11.969 -0.0888  0.2093 -0.1328
15134W        W30265   9.337   9.273  15.441  0.1352 -0.0435 -0.0538
15135W        W30266   1.032   2.815  15.200 -0.2622 -0.0689  0.0566
15136W        W30267  14.812   1.451  14.479  0.0145 -0.2344  0.0350
15137W        W30268   2.723   4.780  14.713  0.1018  0.2348  0.0038
15138W        W30269  11.260   3.992   5.232  0.0179  0.0470  0.0201
15139W        W30270  11.389  14.225   0.696 -0.1713 -0.0984  0.1689
15140W        W30271  13.406   8.463  15.996  0.1387  0.0818 -0.1295
15141W        W30272   3.465   0.276  15.445 -0.1728  0.3582  0.1739
15142W        W30273   2.542  12.795  15.305 -0.3521  0.0544  0.0731
15143W        W30274   2.726   1.286   2.782 -0.1457  0.2428 -0.0400
15144W        W30275  13.146  13.959   1.624  0.2136  0.0100  0.3276
15145W        W30276   7.908   7.927   3.990  0.0481 -0.0249  0.0363
15146W        W30277  14.308   6.023  11.983 -0.1799  0.0042  0.1656
15147W        W30278   8.354   5.936  11.145  0.0640 -0.0820  0.0018
15148W        W30279   0.844   6.284  14.604 -0.0633 -0.0452 -0.2912
15149W        W30280   4.844   9.823  11.666 -0.0273 -0.2937  0.1365
15150W        W30281  15.618   1.628  12.327 -0.0914 -0.1205  0.1579
15151W        W30282   3.050   3.005   1.425  0.1465  0.0986  0.1271
15152W        W30283  15.942   0.920   3.358 -0.0042 -0.1034 -0.0712
15153W        W30284  15.808  15.954   3.252 -0.1586 -0.0965 -0.2832
15154W        W30285   8.581  14.141   3.888 -0.2772  0.1411  0.2426
15155W        W30286   2.164   6.890  13.060 -0.0994  0.2091 -0.1274
15156W        W30287   8.070   5.975  16.781  0.1571 -0.0223  0.1324
15157W        W30288   7.305  16.032  10.953  0.2616  0.0718 -0.0211
15158W        W30289  11.750  14.923   0.219 -0.0944 -0.1252 -0.1058
15159W        W30290   7.147  16.579  15.130 -0.3018  0.1487  0.1383
15160W        W30291   3.533   4.823   2.549  0.3625  0.0847 -0.0112
15161W        W30292   7.146   9.415  11.634  0.0255  0.1265  0.0177
15162W        W30293   8.582   6.691   1.518  0.3087 -0.0689 -0.2685
15163W        W30294   8.989   1.816   4.545 -0.2818 -0.1425 -0.0362
15164W        W30295  13.065  11.507  16.188 -0.3359  0.1014 -0.1104
15165W        W30296   1.252   3.401   1.938 -0.2343  0.2087 -0.1567
15166W        W30297  15.014  17.308  15.151 -0.2733  0.3049  0.0357
15167W        W30298  11.657  17.372  13.552  0.0277 -0.4767 -0.0729
15168W        W30299  15.950  15.999   0.103 -0.0973  0.0426  0.0894
15169W        W30300   4.632  11.146  13.548  0.1758  0.0364  0.1594
15170W        W30301   5.102   8.589  13.107  0.1315  0.3402  0.1353
15171W        W30302  14.173  12.032   0.157 -0.0333  0.2557 -0.0253
15172W        W30303   5.952  14.299   1.700  0.1765 -0.1999 -0.2006
15173W        W30304  14.304   7.720  14.086 -0.1325 -0.2308  0.0257
15174W        W30305   9.676   3.503   1.636 -0.1019 -0.3010  0.1508
15175W        W30306   8.413  14.043   5.276 -0.1350  0.0884  0.2892
15176W        W30307   1.330  13.899  12.719 -0.3097 -0.3765  0.1229
15177W        W30308  16.275  10.614   6.074  0.1282 -0.1408  0.0430
15178W        W30309   8.217  10.535  16.529 -0.0500 -0.2470 -0.0678
15179W        W30310   8.413   3.863   3.166 -0.0806  0.0817  0.0321
15180W        W30311   4.607   9.827  15.376 -0.1856  0.1127 -0.1773
15181W        W30312  13.992  10.213   5.235  0.2013  0.1798 -0.0372
15182W        W30313  15.184   3.265  10.782  0.2546 -0.0366 -0.3098
15183W        W30314   2.873  14.993  12.498 -0.0856  0.0041 -0.3344
15184W        W30315  16.366  11.791  13.945  0.1427  0.0286 -0.0181
15185W        W30316  15.608   6.420   3.033  0.0975  0.2709  0.1294
15186W        W30317  12.007   9.035  12.150  0.0072 -0.0516  0.0848
15187W        W30318  11.710   1.784   4.554 -0.0757  0.4402  0.1490
15188W        W30319   4.132   8.521   0.668 -0.1422  0.2104  0.1237
15189W        W30320   9.492  16.552   4.997 -0.1385  0.1106  0.0544
15190W        W30321  15.558   4.214   3.348  0.2381 -0.0781  0.1890
15191W        W30322   4.043  14.069   5.517  0.4006  0.0385 -0.0560
15192W        W30323  16.120   6.715   5.002 -0.2477 -0.0830 -0.3001
15193W        W30324   1.687  12.356  14.819  0.1190 -0.2109 -0.1625
15194W        W30325   7.482  15.384   4.366 -0.0333 -0.3243  0.4207
15195W        W30326  10.461   1.814   5.345 -0.1759  0.3019 -0.1305
15196W        W30327   9.197   6.490  15.877  0.1578 -0.2570  0.0724
15197W        W30328  14.898  15.188   4.210  0.0853 -0.0268 -0.2873
15198W        W30329  15.521   4.610   2.974 -0.1010 -0.0242  0.1488
15199W        W30330   0.917  11.829   2.855 -0.1222  0.1023 -0.1921
15200W        W30331   1.257   6.070   3.005  0.1420  0.0098  0.1517
15201W        W30332  10.147   0.318  16.165  0.0998  0.0640 -0.1393
15202W        W30333   3.989  13.291   0.354 -0.3059 -0.1064  0.0740
15203W        W30334  11.467   0.062  15.433 -0.2886 -0.1069 -0.0372
15204W        W30335  10.986   5.044   2.769 -0.1394  0.1555  0.1394
15205W        W30336   3.361   8.048   4.122 -0.3280 -0.1889 -0.0429
15206W        W30337  13.768   4.064   4.951  0.0481  0.1714 -0.1185
15207W        W30338   7.202  11.083   2.736 -0.3110 -0.1177 -0.0068
15208W        W30339  11.473  15.411  12.996 -0.1731  0.1105 -0.1104
15209W        W30340   9.281   2.255   2.050 -0.2151  0.1054 -0.3263
15210W        W30341  14.924  14.078   2.453 -0.5497  0.0175 -0.0380
15211W        W30342   3.849  12.404  16.832  0.0570  0.1061  0.0879
15212W        W30343   7.332   0.953  12.552  0.1852 -0.1697 -0.2914
15213W        W30344   5.925   9.404   4.224 -0.1902  0.0062  0.0197
15214W        W30345   6.478   4.967  12.039 -0.0345 -0.1740  0.1602
15215W        W30346   3.078  16.459  11.312 -0.0422 -0.1357  0.3164
15216W        W30347   7.976   9.333   3.908  0.2105 -0.2773  0.1257
15217W        W30348  17.052  12.654   0.583 -0.2369  0.2214  0.0467
15218W        W30349  14.489  12.785  12.251  0.4205 -0.1679  0.3311
15219W        W30350   2.477   6.218  11.805  0.0612  0.1058 -0.1813
15220W        W30351   4.002   5.544   1.519 -0.2220  0.0223 -0.0792
15221W        W30352  14.570  12.874  12.931  0.0591 -0.0153  0.3524
15222W        W30353  12.026  17.291  16.856  0.0113 -0.1465  0.1916
15223W        W30354   0.797   5.166  15.989  0.1235  0.0348  0.0820
15224W        W30355   6.977   2.865   0.246 -0.2519 -0.2160  0.0352
15225W        W30356   0.664   7.479  15.886 -0.4265 -0.0511  0.0683
15226W        W30357  12.096  10.326  13.008  0.3434 -0.0836  0.2170
15227W        W30358   8.430   3.434  11.321 -0.2094  0.1621  0.0749
15228W        W30359   0.590   4.505   1.703  0.2284  0.0744 -0.0115
15229W        W30360   2.268  14.719   1.621  0.0367 -0.1435  0.0139
15230W        W30361   2.357   0.870  14.089 -0.0265  0.0524 -0.0047
15231W        W30362  11.412   2.269  12.353  0.1645 -0.1634 -0.1137
15232W        W30363   0.554   1.083  15.465 -0.2011 -0.1674  0.2660
15233W        W30364   3.040  16.224  13.846  0.0409 -0.2229 -0.1890
15234W        W30365   7.672   6.684  16.771 -0.0612 -0.2768 -0.0125
15235W        W30366  13.134   0.876  12.374  0.0533  0.2080  0.0262
15236W        W30367   0.489   7.602  13.664 -0.0034 -0.0831  0.0041
15237W        W30368  14.319  14.829   4.662 -0.4744  0.1520  0.0198
15238W        W30369   6.250  16.988   0.105  0.0963 -0.0119 -0.1820
15239W        W30370   3.094  14.715   2.865  0.0267  0.0634 -0.0725
15240W        W30371   4.628  12.571   0.886 -0.0167 -0.2438  0.1368
15241W        W30372  10.201   9.522  15.086  0.1486 -0.0716 -0.1870
15242W        W30373  16.101   9.070   1.023  0.1719  0.1772 -0.0148
15243W        W30374  15.070   8.194  11.656 -0.0550 -0.2061 -0.1317
15244W        W30375  14.343   5.370   5.233  0.0453  0.3261  0.0412
15245W        W30376   7.759  14.028   0.698  0.1074 -0.0094  0.3153
15246W        W30377  14.789   8.157   3.566  0.0024  0.0017 -0.2527
15247W        W30378  10.992   6.698   1.920 -0.3498  0.0775 -0.0745
15248W        W30379   9.961   0.938  15.769  0.0708  0.0382  0.1530
15249W        W30380  16.879  14.620  13.688 -0.0257 -0.0909  0.0274
15250W        W30381   7.526   0.384   3.032  0.0116 -0.0146  0.0946
15251W        W30382  16.630  14.290  16.938  0.1731 -0.2605 -0.2547
15252W        W30383  12.574  12.071   0.226 -0.1245 -0.2183  0.0921
15253W        W30384   3.337   5.696   4.366  0.4391 -0.0877 -0.0243
15254W        W30385  11.076   7.305   2.702  0.1959  0.0102 -0.2393
15255W        W30386  17.003  13.687   5.025 -0.1884  0.1775 -0.4402
15256W        W30387   4.114  15.862  13.315  0.0547  0.2875 -0.1184
15257W        W30388  13.845   6.464   3.506  0.2092 -0.1667 -0.0771
15258W        W30389   3.285   9.251  16.729  0.0884 -0.1727  0.0762
15259W        W30390   9.625   0.010   2.752 -0.0501  0.1465 -0.0940
15260W        W30391  17.187  10.277   0.517 -0.0894 -0.1175 -0.2988
15261W        W30392   5.312  10.738  12.747 -0.0894 -0.0324 -0.1221
15262W        W30393   1.787  16.380  15.914 -0.0419 -0.1628  0.2211
15263W        W30394   4.292  16.002  15.346 -0.0774 -0.0331 -0.0488
15264W        W30395   4.033  12.373   1.700  0.0227 -0.1466 -0.1881
15265W        W30396  11.775   0.927   1.298 -0.1363 -0.1914 -0.1068
15266W        W30397   6.482  11.089  15.934  0.1077 -0.0478  0.2255
15267W        W30398  13.370   1.306   0.799  0.0939 -0.0368 -0.2054
15268W        W30399   7.762   3.250   3.135 -0.0310  0.1897  0.1045
15269W        W30400   6.091   9.995  13.831  0.0941 -0.0192  0.0743
15270W        W30401   0.010  15.680  14.625  0.3346  0.1611  0.1326
15271W        W30402  15.072   9.694   4.465  0.0608  0.0198 -0.1330
15272W        W30403   1.900  13.133   2.770 -0.0885  0.0285 -0.2120
15273W        W30404   9.770  13.210  16.503 -0.2177  0.0750  0.3240
15274W        W30405   1.274   4.685   1.325  0.0397 -0.0805  0.1675
15275W        W30406   6.525   4.180  13.189  0.0962 -0.0468  0.0110
15276W        W30407   6.367   8.508  13.429 -0.2004 -0.0754 -0.2539
15277W        W30408   6.563  12.666  15.437 -0.0682  0.1105  0.0737
15278W        W30409   6.400  14.011  16.250 -0.1014  0.2092  0.0632
15279W        W30410  15.289  16.736  12.571 -0.1354  0.2870 -0.0349
15280W        W30411   2.042   7.570  16.472 -0.1558 -0.0278 -0.0496
15281W        W30412  15.430   7.190   4.510 -0.3688  0.1551  0.3467
15282W        W30413  17.463   4.925  11.873 -0.1007  0.0917 -0.0685
15283W        W30414  16.397  15.394   2.174 -0.1179 -0.0686 -0.0897
15284W        W30415   4.354   9.379  13.589  0.0109  0.3328 -0.0348
15285W        W30416  13.824   7.910   5.156  0.2593  0.0654  0.1926
15286W        W30417   2.333  13.778   4.386  0.1140  0.2450 -0.0448
15287W        W30418  13.028   7.385  15.159 -0.1431  0.2762 -0.1907
15288W        W30419   1.447  16.300   6.116  0.1350  0.0606  0.3758
15289W        W30420   1.011  14.663   2.762  0.3236 -0.1371 -0.0759
15290W        W30421   6.556   6.179   5.432  0.2048 -0.1409  0.0435
15291W        W30422   5.215  11.739   3.364 -0.2698  0.1109  0.0670
15292W        W30423  13.475   1.792   3.468  0.0066  0.1468  0.0884
15293W        W30424   6.059   5.064  11.149 -0.0652 -0.1723 -0.1673
15294W        W30425   8.626  14.656  16.899  0.0170  0.2637 -0.0830
15295W        W30426  12.831  10.458   4.523  0.0306 -0.3041 -0.1495
15296W        W30427  11.590  12.075   0.674  0.0639 -0.1032  0.0976
15297W        W30428   6.642  13.274   0.575 -0.1513 -0.1282  0.1523
15298W        W30429  11.173   8.418   6.071 -0.3663 -0.2950 -0.1953
15299W        W30430   4.364  12.898   4.894  0.1174  0.1626  0.3113
15300W        W30431   4.222   7.686   1.291  0.0307 -0.0291  0.0635
15301W        W30432   6.641   9.360  14.282  0.0953  0.2317 -0.2097
15302W        W30433   7.133  17.310   4.027  0.1312  0.1810 -0.0450
15303W        W30434  14.608  14.768  15.536 -0.0247 -0.0230 -0.2166
15304W        W30435  10.186   9.069   5.197 -0.1761  0.4095  0.1972
15305W        W30436   4.491   6.676  13.372 -0.0514 -0.4539  0.3599
15306W        W30437   5.367  10.032   0.043  0.2339  0.0963 -0.3586
15307W        W30438   2.285  10.907   0.110 -0.1694  0.0027 -0.2022
15308W        W30439   6.350   1.321  12.919  0.3062  0.2108  0.2262
15309W        W30440   3.526   1.632   3.365 -0.0492 -0.0198 -0.0203
15310W        W30441  11.393  10.989   0.354  0.3595 -0.2116  0.1410
15311W        W30442   0.263  13.147   4.215 -0.0875  0.0743 -0.1256
15312W        W30443  15.548   2.199   1.654 -0.0554 -0.1270 -0.0188
15313W        W30444   0.271  14.958  16.016  0.1183  0.1519 -0.0364
15314W        W30445  14.772  11.751   5.378  0.0170  0.4285 -0.0096
15315W        W30446   1.317   6.394  11.094  0.0198  0.2713 -0.0818
15316W        W30447   8.668  14.165  12.590  0.2931  0.1505 -0.0232
15317W        W30448  12.161  16.333   6.439  0.0942 -0.1236 -0.0217
15318W        W30449  15.022   1.133  14.753 -0.1231  0.2800 -0.0442
15319W        W30450  14.154   3.751  13.369  0.1201 -0.1043  0.1276
15320W        W30451   9.700  17.424  14.049 -0.1342 -0.0939 -0.1228
15321W        W30452   2.603  12.316  14.697  0.0530  0.0949 -0.2695
15322W        W30453  14.898  13.637  14.111  0.0354  0.0437  0.0243
15323W        W30454   7.525  16.525  11.839 -0.1262 -0.1781 -0.0141
15324W        W30455   4.119   1.722   3.933  0.2219  0.0252  0.0729
15325W        W30456  15.114  10.596  16.174 -0.1189 -0.0394  0.0600
15326W        W30457   0.103   3.977   2.579  0.0719 -0.1173 -0.2008
15327W        W30458   4.717   4.993   3.956 -0.0562  0.2754  0.0623
15328W        W30459  10.129   2.947   3.443  0.2080  0.2101 -0.0669
15329W        W30460   0.471  15.278   3.212 -0.1622 -0.1470  0.0515
15330W        W30461   4.293   4.029  13.427  0.0098 -0.1819 -0.0065
15331W        W30462  11.543  16.101  15.535  0.1412 -0.2991  0.0745
15332W        W30463   8.635   2.943  16.746 -0.1484  0.0829  0.1280
15333W        W30464   1.291  13.602   2.221 -0.0510  0.1483 -0.2537
15334W        W30465   6.009  15.716   0.536 -0.0445 -0.1544  0.3663
15335W        W30466  10.218  10.674  15.758 -0.2028  0.0653 -0.0750
15336W        W30467   3.825   6.045   5.130 -0.3869  0.4360  0.4741
15337W        W30468   0.795   5.005  14.922  0.1444  0.0754 -0.2683
15338W        W30469  14.704  17.166  15.646  0.0672  0.1077 -0.1516
15339W        W30470   2.259  12.630   1.062  0.2332 -0.2249  0.1103
15340W        W30471   1.275  14.870  16.261  0.0823  0.2365 -0.0681
15341W        W30472   8.385  14.856   1.357  0.1273 -0.1065  0.2151
15342W        W30473   1.158   2.484  14.772 -0.2004  0.0407 -0.2422
15343W        W30474  16.225   3.540   0.726 -0.1519 -0.1540  0.2806
15344W        W30475   1.193   0.691   0.062 -0.1773 -0.0571  0.0252
15345W        W30476   5.295   9.008   6.629 -0.1865  0.0491 -0.0416
15346W        W30477   2.768  16.509   1.000  0.0534 -0.4721  0.1956
15347W        W30478  14.300   4.246   1.466  0.1456 -0.0760 -0.2239
15348W        W30479  17.059   3.003  12.290 -0.3753 -0.1324  0.0461
15349W        W30480   2.249  12.423  12.058 -0.0351 -0.2395 -0.0962
15350W        W30481  16.025   6.890  15.486 -0.3813 -0.3677  0.2364
15351W        W30482   2.160   9.343   6.328 -0.1333  0.1993 -0.0517
15352W        W30483  13.687  13.439  12.273 -0.6353  0.1560 -0.3009
15353W        W30484   1.665  13.461   4.536  0.1720  0.0380 -0.1174
15354W        W30485   1.639   7.274   4.009 -0.0383  0.0266 -0.2796
15355W        W30486   8.476  10.105   0.388  0.1914  0.1226  0.1008
15356W        W30487   2.752   1.125   1.706  0.1835  0.1616 -0.0722
15357W        W30488   0.003   1.013   0.702 -0.1271 -0.1297 -0.2601
15358W        W30489  14.975  14.512  15.229 -0.3426 -0.0442  0.1355
15359W        W30490   3.650  14.434  13.013 -0.2089 -0.0601  0.0545
15360W        W30491   9.798   7.774   4.788 -0.0619 -0.0987  0.1020
15361W        W30492   0.142  13.084   5.262  0.0186 -0.0997 -0.5110
15362W        W30493   5.864   0.461   0.568 -0.1911 -0.0392 -0.1095
15363W        W30494   8.369  13.531   6.506 -0.2325 -0.0467 -0.0061
15364W        W30495  15.146   6.037   4.132 -0.0104  0.0254 -0.2348
15365W        W30496   6.910  11.772   3.821  0.1898 -0.0668 -0.0343
15366W        W30497  11.166  13.180  12.621  0.1376 -0.1173 -0.1357
15367W        W30498   5.327  12.232   2.533  0.0489 -0.0523 -0.1719
15368W        W30499  10.692   8.887   0.906  0.0278 -0.0276  0.0193
15369W        W30500  10.900   1.969  16.783 -0.1482  0.1926 -0.1445
15370W        W30501  13.932   1.496   1.006  0.1717 -0.0591  0.2001
15371W        W30502   6.432  14.391   1.793 -0.3957  0.2932  0.1719
15372W        W30503  10.292   9.298   5.988  0.0608  0.2072  0.0784
15373W        W30504  11.942   2.194  12.490  0.1906 -0.0250  0.0093
15374W        W30505   9.001   1.065  13.052  0.3029  0.0147 -0.1528
15375W        W30506   5.316   6.905   1.781  0.3205  0.0984  0.2629
15376W        W30507  12.849   6.113  11.303  0.0208  0.1490 -0.0262
15377W        W30508   5.694   7.112   1.971  0.0293 -0.0680 -0.4326
15378W        W30509   6.238  16.579  16.725  0.0594  0.0623  0.1936
15379W        W30510   3.536   3.332  13.405 -0.1500  0.2878  0.0864
15380W        W30511   8.740   6.813  15.183 -0.0288 -0.2136 -0.2369
15381W        W30512  13.171   7.216  11.641 -0.1847  0.0406  0.0464
15382W        W30513   3.690   4.759  16.929  0.0766  0.1528 -0.2684
15383W        W30514  16.803  13.938  15.974  0.4198 -0.1467 -0.1999
15384W        W30515   1.126   1.212   5.033  0.0414  0.1908 -0.0867
15385W        W30516  12.974   6.901  16.483 -0.2807 -0.1260 -0.0007
15386W        W30517   7.985  11.994  15.660 -0.0103  0.0564  0.1449
15387W        W30518  15.207   4.950  15.175 -0.1165 -0.2538 -0.2282
15388W        W30519   5.318  11.517  14.503  0.0756  0.0549  0.1751
15389W        W30520  10.692  11.766  12.708  0.1521 -0.1073 -0.5192
15390W        W30521   1.657   9.643   6.316 -0.1172 -0.0122  0.0436
15391W        W30522   7.917  14.027   6.057 -0.1657  0.0772 -0.1265
15392W        W30523  11.365  12.739   3.534  0.0294 -0.0703  0.0894
15393W        W30524   4.864   0.083  16.220  0.2374 -0.2901  0.1135
15394W        W30525  10.743  14.003   1.473  0.0506  0.0474  0.0262
15395W        W30526  12.682   2.863  15.113  0.1312 -0.1518  0.0106
15396W        W30527   1.928  17.061  13.611 -0.0105 -0.1392  0.0443
15397W        W30528   6.933   1.658   2.543  0.0238 -0.3890 -0.1368
15398W        W30529  16.042   0.370   0.737  0.2112 -0.2449  0.2407
15399W        W30530  11.240   5.631   3.510  0.0060 -0.1181 -0.1318
15400W        W30531  12.726  14.338   3.100 -0.0131  0.1478 -0.0668
15401W        W30532  16.245   7.800  15.348  0.0516  0.0240 -0.3136
15402W        W30533   9.200   2.647   3.012  0.0157 -0.1957  0.0895
15403W        W30534  11.804   9.096   0.302 -0.0863  0.1318  0.0563
15404W        W30535   6.757   2.318   3.398  0.0535 -0.1575  0.0341
15405W        W30536  13.336   5.105  15.248 -0.0460  0.1428 -0.3434
15406W        W30537   9.276  14.850  12.425 -0.1649 -0.0891  0.1057
15407W        W30538   0.925  12.616   5.828  0.0205  0.0995 -0.0038
15408W        W30539  17.657   6.330   3.429  0.1124 -0.1309  0.0156
15409W        W30540  17.137  12.435   1.474 -0.1463 -0.1877 -0.0279
15410W        W30541  12.495   8.155  13.569 -0.0348  0.0685 -0.0442
15411W        W30542   7.611   1.590  11.713 -0.0617 -0.2620 -0.1099
15412W        W30543   9.203   3.200   5.059  0.1626  0.0635  0.1492
15413W        W30544   1.750  14.444   0.741  0.1748  0.3565 -0.0486
15414W        W30545   0.134   4.598   1.872  0.1598 -0.1083  0.0954
15415W        W30546  16.604  14.452   6.716 -0.0839  0.2859  0.1755
15416W        W30547   8.627   1.200  16.393 -0.2409 -0.2939  0.0225
15417W        W30548   7.751   4.469  11.625  0.1273 -0.2318  0.0159
15418W        W30549  12.433  10.745  15.922 -0.0138 -0.1660 -0.4871
15419W        W30550   6.029   5.314   2.715  0.0407  0.1545  0.2383
15420W        W30551  13.103   8.385   5.016 -0.1538 -0.0568  0.0660
15421W        W30552   3.914   2.320   0.731 -0.1307 -0.0094 -0.1876
15422W        W30553  15.063  10.092  12.812 -0.1573 -0.0092  0.2327
15423W        W30554  14.072  15.377   4.467  0.0463  0.2189  0.1019
15424W        W30555   8.679  14.409  14.457 -0.0631 -0.2553 -0.2918
15425W        W30556  17.610   4.624   1.397 -0.3083  0.1859 -0.0603
15426W        W30557  17.003  12.069   3.112 -0.1792  0.3467  0.1014
15427W        W30558   1.379   1.305  14.781 -0.2059 -0.1886  0.0847
15428W        W30559   1.375   2.949   3.637 -0.0257 -0.1382  0.1911
15429W        W30560   4.503   1.319  16.448 -0.2149  0.0747 -0.0058
15430W        W30561  13.261  15.853   4.556  0.0489 -0.2684 -0.0949
15431W        W30562   7.101  14.082   4.579  0.2420  0.0185  0.0683
15432W        W30563   4.558   1.248  14.660  0.0431  0.1811  0.1366
15433W        W30564  17.327   3.146  10.934 -0.4436 -0.0808  0.0316
15434W        W30565   0.502  10.993  14.997  0.0259  0.3646 -0.1923
15435W        W30566  12.348  12.097  16.682 -0.0637  0.2378 -0.0613
15436W        W30567  12.187   4.490   1.602 -0.0648 -0.0339  0.1028
15437W        W30568  16.948   2.823   5.085  0.1789  0.1357 -0.3436
15438W        W30569   2.433   1.344  13.949  0.0978 -0.0929 -0.2718
15439W        W30570   1.977   4.919   0.375  0.0208  0.2213  0.2073
15440W        W30571  16.208   9.959  16.475  0.1932  0.1641 -0.0596
15441W        W30572   1.406  10.184   0.600  0.1320 -0.2814  0.1614
15442W        W30573   4.245   8.047  13.362 -0.0699 -0.1302 -0.0394
15443W        W30574   5.443   1.471  11.990  0.0130 -0.0577 -0.3090
15444W        W30575   2.670   2.234   0.371 -0.0399  0.1817 -0.0964
15445W        W30576  12.188   4.189  13.280 -0.1658 -0.1432 -0.0007
15446W        W30577   3.104  10.866  15.448 -0.0013  0.0512 -0.0521
15447W        W30578   2.981   3.679  16.434  0.0917  0.0096  0.3229
15448W        W30579   4.943   5.732   1.466 -0.1241 -0.1084  0.0847
15449W        W30580  15.423   8.224   0.896 -0.0485  0.0928  0.2522
15450W        W30581   8.871  15.189   2.698 -0.1432 -0.0149 -0.1424
15451W        W30582  15.870  17.311  15.863 -0.0896  0.1069 -0.1796
15452W        W30583   1.134   6.863  13.824  0.1348 -0.0244 -0.0769
15453W        W30584  15.845  14.660  14.941 -0.0931 -0.1556  0.1510
15454W        W30585   9.627   4.874   2.581  0.2341  0.1469  0.0429
15455W        W30586   7.430  16.098   5.595 -0.2497 -0.0184  0.0837
15456W        W30587  15.011  11.539  15.784  0.0100  0.1730  0.0047
15457W        W30588  15.288  16.562   0.165 -0.1069  0.0099 -0.0561
15458W        W30589   2.116  10.234  14.428  0.0009 -0.2018 -0.4717
15459W        W30590   4.694  14.495   0.612 -0.0822  0.2079 -0.2139
15460W        W30591   1.479   4.466  16.606  0.2597  0.2694  0.2225
15461W        W30592  11.432  15.330   0.246  0.1237 -0.0013 -0.0726
15462W        W30593   3.699  10.493   5.551  0.0282  0.0331  0.0003
15463W        W30594  13.212  16.671   2.212  0.1776  0.1623 -0.3078
15464W        W30595  15.249   5.043   2.122 -0.1602  0.2390 -0.0389
15465W        W30596   4.349  16.270  11.824 -0.0423 -0.1557  0.1038
15466W        W30597  11.296  13.603  14.804  0.1511  0.0031 -0.0642
15467W        W30598  10.335  12.329   4.736 -0.0481 -0.2490  0.1478
15468W        W30599   7.039  10.812   2.296  0.0549  0.2293  0.0565
15469W        W30600  13.435   3.656  15.359 -0.0072 -0.0770 -0.3254
15470W        W30601   6.023  10.678   0.256 -0.2526 -0.2099 -0.1477
15471W        W30602  16.741  15.186   1.865 -0.1480  0.1259 -0.0658
15472W        W30603   8.904   5.303   2.557 -0.1531  0.2418  0.1517
15473W        W30604  12.666  15.477  12.608  0.0851 -0.1050 -0.2247
15474W        W30605  10.679   2.191  13.368  0.1289  0.0211  0.1867
15475W        W30606   6.883  10.105   3.613  0.0128 -0.3396  0.2489
15476W        W30607   3.932   7.657   3.890 -0.0687 -0.0494 -0.1991
15477W        W30608   3.781   9.449   1.476  0.0594  0.0291 -0.1398
15478W        W30609   2.316  13.043   1.460 -0.2396  0.3354 -0.0202
15479W        W30610   9.016  14.690  15.583  0.4196  0.0759  0.0432
15480W        W30611  14.855  13.652   0.447  0.0694 -0.1082  0.0829
15481W        W30612   8.764  11.648  15.814 -0.1158  0.2223  0.1040
15482W        W30613   1.941  16.449  11.706 -0.0821  0.3210  0.3479
15483W        W30614  11.075  16.501   5.231 -0.0258 -0.1561 -0.0764
15484W        W30615   0.414   9.177   4.491  0.2109  0.0994  0.0355
15485W        W30616  15.565   1.259  16.114 -0.1602 -0.1559  0.1022
15486W        W30617   8.571   2.555   2.324 -0.0886  0.0463 -0.0929
15487W        W30618   2.326  13.326   2.872  0.0687 -0.4291 -0.1230
15488W        W30619   3.371   8.349   3.023  0.0363 -0.2060  0.0773
15489W        W30620  14.762   8.837   2.904  0.1090  0.0592  0.2536
15490W        W30621   5.237  11.393   1.958 -0.2867 -0.1282 -0.2117
15491W        W30622  17.563   9.149   4.580 -0.0459 -0.2005 -0.1838
15492W        W30623   2.746   8.352   0.489 -0.1393  0.0315  0.0026
15493W        W30624  14.363   8.283  13.949  0.0393  0.0536  0.0829
15494W        W30625  17.004   5.586   4.485 -0.0229  0.3550  0.3703
15495W        W30626   7.937  13.100   5.717 -0.0362 -0.1992  0.0606
15496W        W30627  17.292   8.443  11.293  0.0633 -0.0890  0.1071
15497W        W30628   7.872  16.096  11.969  0.2270  0.0834 -0.0709
15498W        W30629  13.729   5.554   3.513 -0.0434  0.1098  0.0225
15499W        W30630  12.772  13.016   2.074 -0.2122 -0.0023 -0.0227
15500W        W30631   5.400   5.684   3.386 -0.1391  0.2675 -0.3191
15501W        W30632   4.088   7.383   0.175 -0.1742  0.0612  0.1316
15502W        W30633   2.327   5.813  16.113 -0.1953  0.1862  0.0614
15503W        W30634   2.895  13.953   4.555 -0.0343  0.2671 -0.4695
15504W        W30635   2.481  10.742   2.417  0.0936  0.2096 -0.0218
15505W        W30636  15.938  11.368  16.574 -0.0211  0.2979 -0.1440
15506W        W30637  10.548  14.344  12.424 -0.1546 -0.4089  0.0560
15507W        W30638  11.093   0.012   3.918 -0.0327 -0.2536  0.0438
15508W        W30639  12.918   8.099   5.370 -0.1606 -0.2153 -0.0622
15509W        W30640   1.190  15.351  16.205 -0.0416 -0.0428  0.0478
15510W        W30641  14.177  13.137   5.617 -0.0377 -0.0907  0.0399
15511W        W30642  13.250  12.617   0.630 -0.1423  0.1281 -0.2685
15512W        W30643   1.787  14.476   1.519  0.0472 -0.0214  0.0092
15513W        W30644  13.772  10.053   3.009  0.2646  0.0077  0.0305
15514W        W30645   1.186   3.965  10.898 -0.0855  0.1947 -0.0831
15515W        W30646  14.903   5.483   2.115  0.0255 -0.1287  0.0333
15516W        W30647  15.494   7.644   4.754 -0.0417  0.1958  0.1474
15517W        W30648  17.348   3.851   1.382  0.0647 -0.2095 -0.0870
15518W        W30649   6.374  17.314  14.561 -0.0571 -0.0524  0.2281
15519W        W30650   8.374   0.358   6.358 -0.2354  0.0430  0.0673
15520W        W30651  15.439   8.312   5.580  0.1249  0.1402 -0.0907
15521W        W30652  14.304  10.606   5.409  0.1745 -0.0538  0.0908
15522W        W30653   5.391  13.424  13.556 -0.0849 -0.0342 -0.2772
15523W        W30654   7.803   8.830   3.747 -0.2155 -0.1717 -0.0483
15524W        W30655  16.919   8.663  12.915 -0.1059  0.0215 -0.1170
15525W        W30656   8.459  12.012  13.946  0.1141 -0.0837 -0.1610
15526W        W30657  11.951   4.171   3.150 -0.4550  0.1274 -0.0295
15527W        W30658  10.229  15.802   3.115 -0.0695  0.0431 -0.0903
15528W        W30659   0.508   3.517  15.485 -0.0775 -0.0151  0.3422
15529W        W30660  11.713  14.157  15.582 -0.0550 -0.2977  0.1891
15530W        W30661   1.890  12.550  11.651  0.1345 -0.1359 -0.0198
15531W        W30662   1.138  16.517  12.722 -0.0069  0.3707  0.1232
15532W        W30663   4.930  17.388  11.506 -0.0999 -0.0723  0.0872
15533W        W30664   8.117   2.384   4.585  0.0023 -0.3585  0.1581
15534W        W30665   0.901  11.435   0.630 -0.0634  0.0605  0.5160
15535W        W30666   6.463  15.353   3.603 -0.1806 -0.1578  0.0438
15536W        W30667   2.916   8.086   3.099 -0.0604 -0.1951 -0.2144
15537W        W30668  16.020   4.980   5.293  0.0930 -0.1333 -0.2142
15538W        W30669  16.402  17.012   4.295  0.1932  0.1244  0.1803
15539W        W30670   0.928   6.360  15.928 -0.0057 -0.1397  0.2421
15540W        W30671   0.447  17.705   3.208  0.1505 -0.0602 -0.0659
15541W        W30672   0.052  16.484   4.705  0.1126  0.1082  0.3847
15542W        W30673  15.137  13.026   6.151 -0.1283 -0.0411 -0.0571
15543W        W30674   1.121   5.211   2.164 -0.0985 -0.1805  0.4184
15544W        W30675  10.151   1.951   2.458 -0.1318  0.1338  0.3196
15545W        W30676   8.857   4.163  11.540  0.0368 -0.0925 -0.1608
15546W        W30677   9.089   5.544   4.472  0.1299  0.1469 -0.0927
15547W        W30678  12.662  16.619   6.168 -0.0109 -0.1669 -0.0415
15548W        W30679   1.463  12.854  14.718  0.2857  0.0556 -0.1769
15549W        W30680   7.658   5.621  12.641 -0.0635  0.2487  0.3039
15550W        W30681   0.620   8.293  11.094 -0.2239  0.0623  0.0424
15551W        W30682   0.196  16.075   5.594  0.3589  0.0486 -0.0208
15552W        W30683   4.869  15.620  13.168  0.1714  0.1462 -0.3032
15553W        W30684   9.259   7.393   1.573  0.0576  0.0764 -0.1154
15554W        W30685  12.479   5.295  12.294  0.1946  0.1976 -0.2896
15555W        W30686  16.128  15.820   5.761 -0.1530 -0.2683  0.3513
15556W        W30687   7.282   6.472  13.453 -0.4036  0.0846  0.0575
15557W        W30688   1.098  13.047  12.671  0.3302 -0.1046 -0.3889
15558W        W30689   5.857  13.277  14.429 -0.3117 -0.0653  0.2908
15559W        W30690  15.195   8.003  15.959  0.0030  0.0092 -0.0191
15560W        W30691  11.877  13.052  15.279 -0.1523 -0.0467 -0.1010
15561W        W30692   4.212   7.280   2.476 -0.2013 -0.0419  0.0992
15562W        W30693   8.330  12.376   2.347 -0.2174  0.3650  0.0557
15563W        W30694  16.131  10.088   1.369  0.1184 -0.0962  0.0365
15564W        W30695  13.432  10.123   3.398  0.0292 -0.1796  0.1324
15565W        W30696  15.218  11.078  15.061 -0.0112 -0.4333 -0.0776
15566W        W30697  14.057   4.521   2.242 -0.1404  0.1938 -0.2361
15567W        W30698  11.755  13.228   4.624 -0.2295 -0.0546  0.0833
15568W        W30699   1.967  12.720   5.723  0.0088 -0.1667 -0.3106
15569W        W30700  17.298  15.439   5.701  0.2686  0.1433 -0.1232
15570W        W30701  15.634  14.952  12.475 -0.2032 -0.1531 -0.0827
15571W        W30702   5.100   5.619   0.855 -0.1960  0.1142  0.2686
15572W        W30703   8.949  14.466  16.575  0.1646  0.0449 -0.0547
15573W        W30704  16.362   2.186  13.243  0.1707 -0.4819 -0.0109
15574W        W30705  16.740  15.683   5.100 -0.0359 -0.2812  0.1604
15575W        W30706  11.973  10.582   1.115  0.0017  0.1894  0.2000
15576W        W30707   8.193   8.427   2.855  0.3136 -0.1535  0.0608
15577W        W30708  10.810   5.726  13.854 -0.1894 -0.1504 -0.3504
15578W        W30709  13.883  17.467  13.483 -0.2268 -0.2645 -0.1401
15579W        W30710  13.856  10.681  14.323  0.0149  0.1975  0.0552
15580W        W30711   5.051   5.786  11.881  0.2634 -0.2961  0.1614
15581W        W30712  10.055  17.464   3.022 -0.1163  0.0389 -0.2766
15582W        W30713   6.570   7.467   2.739  0.0911 -0.3350 -0.0296
15583W        W30714  16.801   5.103   4.526 -0.1512  0.1117 -0.2284
15584W        W30715   5.402  13.040  14.302  0.1997 -0.0315  0.4420
15585W        W30716   5.292   5.690   5.276  0.1237 -0.2296 -0.2420
15586W        W30717   3.868   5.532   5.315  0.1557  0.1358 -0.2136
15587W        W30718  16.233   9.137   2.419  0.3024 -0.0044  0.0803
15588W        W30719   0.285  16.781  14.841  0.1527  0.1308  0.1224
15589W        W30720   4.934   8.146  12.243 -0.0996 -0.0040  0.1756
15590W        W30721   0.809   5.047  12.670  0.0517 -0.1296  0.0899
15591W        W30722   2.390   3.814  15.082  0.0091 -0.0538 -0.2106
15592W        W30723   0.036  16.355  15.512 -0.0427 -0.0897 -0.1399
15593W        W30724   9.854  16.977  13.714 -0.1471  0.1189  0.1126
15594W        W30725  11.150   9.004  16.137 -0.0258  0.3827 -0.0084
15595W        W30726  16.286  16.305   5.676  0.0767  0.2175 -0.0172
15596W        W30727   9.823   4.162  10.340 -0.1525 -0.0911 -0.3475
15597W        W30728   3.676   5.928   1.844  0.1810  0.2346 -0.1703
15598W        W30729  11.826  10.764   0.641  0.1605  0.1890 -0.0939
15599W        W30730   0.193   1.919   2.619 -0.0407  0.1587 -0.0096
15600W        W30731  14.630   5.482   3.526  0.0808 -0.1599 -0.0437
15601W        W30732  16.228   5.470  16.464  0.1724 -0.0311  0.2528
15602W        W30733   9.011   2.291   3.799 -0.0232 -0.1412 -0.0403
15603W        W30734  17.450   0.284  11.319  0.0102  0.0302  0.1643
15604W        W30735   2.186   6.092   5.460  0.2704  0.2003 -0.2071
15605W        W30736  12.552  16.781  12.202 -0.2321 -0.1134 -0.0078
15606W        W30737  13.362  15.118  14.398 -0.0491  0.0084  0.3624
15607W        W30738  11.474   3.878  14.121 -0.3152  0.0614 -0.1319
15608W        W30739  10.063   6.869   1.566  0.2542 -0.0138  0.1519
15609W        W30740   6.024  12.845  12.459 -0.3493  0.3067  0.1197
15610W        W30741  15.388  10.524   2.506  0.1612  0.2788 -0.0629
15611W        W30742   2.115   4.316  14.863 -0.1934 -0.0308 -0.1115
15612W        W30743   0.372   6.792   2.567  0.1128  0.1904 -0.1861
15613W        W30744  17.555  15.939   2.763 -0.0771 -0.1703  0.3395
15614W        W30745   5.612   8.792  14.670  0.0977  0.0030 -0.0530
15615W        W30746   3.887   0.475  16.814  0.0686 -0.0012 -0.0808
15616W        W30747   8.413   0.386  15.218 -0.0048  0.1018 -0.2384
15617W        W30748  13.078  14.397  13.260 -0.3099  0.0068  0.0651
15618W        W30749  17.077   0.342   2.833  0.0237 -0.0932 -0.2576
15619W        W30750  12.978   6.164  14.179  0.0463  0.2460  0.1346
15620W        W30751  11.592   7.465   3.935  0.0321  0.0412  0.1363
15621W        W30752   2.515  14.276   4.471  0.3403 -0.0169  0.0050
15622W        W30753   1.992   9.415   4.503  0.1832 -0.2558  0.3718
15623W        W30754   7.340   0.774  16.186 -0.1916  0.1132 -0.1312
15624W        W30755  13.905   7.550   0.846  0.4560  0.0362  0.2427
15625W        W30756  14.254   5.797  14.423 -0.2151 -0.0818  0.0192
15626W        W30757   8.306  14.798  14.242  0.2129 -0.1091  0.0983
15627W        W30758   0.570  15.804   1.251 -0.0041 -0.3806  0.0059
15628W        W30759   1.406   6.436   1.252  0.2261  0.1316 -0.1474
15629W        W30760   0.353   6.008   4.659 -0.1027  0.1113  0.2045
15630W        W30761   4.760   1.505   1.570 -0.1061  0.0178  0.1188
15631W        W30762   7.080  10.278  10.866 -0.0600  0.2432  0.0601
15632W        W30763   5.884   9.843   3.401  0.0462 -0.0710 -0.0881
15633W        W30764   9.296   1.974  12.335 -0.0307 -0.2942 -0.1402
15634W        W30765  12.659  13.013   1.175 -0.0558 -0.0741 -0.0808
15635W        W30766   0.663  17.344   1.461  0.2386 -0.2608 -0.0645
15636W        W30767  15.075   1.790   1.004 -0.3311 -0.0352 -0.0114
15637W        W30768   9.476   4.931   0.204  0.1279  0.2666 -0.2351
15638W        W30769   1.242  11.726  10.805  0.1364  0.3633  0.0219
15639W        W30770  12.929   3.753   5.324 -0.0088  0.0204 -0.0114
15640W        W30771  12.295   7.943   4.786  0.4591  0.2743  0.1535
15641W        W30772   9.993   9.230  14.415 -0.0813  0.1494  0.3113
15642W        W30773  17.207  11.910   3.909  0.1255  0.1531 -0.4364
15643W        W30774  11.710   5.787   2.174 -0.0435  0.0142 -0.2775
15644W        W30775   2.670   3.406   2.184  0.0016 -0.1551  0.2662
15645W        W30776   1.430   3.986  13.750  0.3035  0.0566 -0.0726
15646W        W30777  14.190   8.415  13.479  0.0643 -0.2129  0.1018
15647W        W30778   8.740   5.028   5.249 -0.0163 -0.0710  0.2466
15648W        W30779   1.212  13.678   4.422 -0.0309 -0.0460 -0.0805
15649W        W30780   5.032   4.128   0.885  0.1660 -0.2100 -0.0197
15650W        W30781  16.412  14.469  15.504 -0.2066 -0.0046 -0.1745
15651W        W30782   9.793   9.422   4.721 -0.0589 -0.3637 -0.0746
15652W        W30783   2.473   1.549   1.687  0.0916  0.1021  0.1517
15653W        W30784   9.777   4.855  12.582  0.0480  0.2186 -0.2346
15654W        W30785  14.363   3.205  11.782 -0.1680 -0.0891 -0.0308
15655W        W30786   3.737  13.365  16.158 -0.0119  0.1548 -0.1838
15656W        W30787  13.940   8.857  11.262 -0.1170 -0.2353  0.4483
15657W        W30788   4.390  10.101   0.648 -0.0317  0.0095  0.0211
15658W        W30789   1.597  15.111   2.646  0.0330  0.0557 -0.2018
15659W        W30790  10.142  15.778   1.087 -0.2207 -0.1774 -0.0173
15660W        W30791   4.902   8.224   1.356 -0.2896  0.2706 -0.2384
15661W        W30792  17.226   9.672   2.340  0.0433  0.1993  0.1145
15662W        W30793  12.278  16.502   2.079  0.2991  0.2139 -0.1721
15663W        W30794   6.223   3.697  14.440 -0.3348 -0.0330  0.3481
15664W        W30795  15.719   5.421  12.452 -0.0836 -0.0083 -0.0021
15665W        W30796  13.236  16.112   2.834 -0.0448 -0.2163 -0.2152
15666W        W30797   3.888   4.594   3.074  0.1855 -0.1959  0.1198
15667W        W30798   3.888   7.253   2.045  0.3798  0.0811  0.0516
15668W        W30799  11.602   3.369   1.791 -0.0425  0.0804  0.2779
15669W        W30800  13.238   3.421  12.274  0.1615  0.0160 -0.0265
15670W        W30801   4.124  10.309  13.386  0.3239 -0.1282 -0.0407
15671W        W30802  11.151  17.264  12.435  0.0664 -0.0143  0.0184
15672W        W30803   2.264  14.844  15.989  0.2461  0.1440  0.3654
15673W        W30804  17.322  10.559   0.899  0.0438  0.0646  0.0156
15674W        W30805   9.299   0.453   2.052 -0.0270 -0.0126  0.0537
15675W        W30806   8.275   1.083  12.550  0.1329 -0.2442 -0.1588
15676W        W30807   0.647   4.579  13.222 -0.1271 -0.0006 -0.1894
15677W        W30808   1.291  17.182  16.013  0.3261  0.3100  0.1162
15678W        W30809   8.384  16.093   1.358  0.2098 -0.1403 -0.0462
15679W        W30810   1.075   2.681  12.708 -0.4080 -0.1167 -0.0958
15680W        W30811  15.093  13.105  16.721 -0.2996  0.0694  0.3482
15681W        W30812  11.740   8.451  15.725 -0.2566  0.1442  0.1631
15682W        W30813  16.836   0.623  12.684  0.0023  0.0631 -0.3164
15683W        W30814   5.125   4.179   3.008  0.3844  0.3043  0.2288
15684W        W30815   8.451  13.269  16.749  0.0984  0.0148 -0.1773
15685W        W30816  12.597   3.149  11.794 -0.1314 -0.4709 -0.6622
15686W        W30817  12.269   9.814  13.073  0.1557 -0.0656 -0.1856
15687W        W30818  16.120   1.600   4.181  0.1238  0.0429 -0.0028
15688W        W30819  15.102   9.215  12.872 -0.2231 -0.3343  0.3212
15689W        W30820  16.460  14.637   2.991  0.0643 -0.2799  0.2151
15690W        W30821  16.321  14.689   1.024 -0.1875 -0.0074 -0.0216
15691W        W30822   9.398  13.503   0.027 -0.0938 -0.2267  0.0034
15692W        W30823  14.972   8.427  15.802  0.0172 -0.2562 -0.0280
15693W        W30824  12.313  16.943   1.761  0.0156  0.5387  0.1378
15694W        W30825  10.946  14.702  15.538  0.1005  0.1280 -0.0062
15695W        W30826  12.083   6.696   5.109  0.0758  0.0165  0.2926
15696W        W30827   4.972  10.456  13.006 -0.2869  0.0946 -0.2669
15697W        W30828   5.389   7.398   5.189  0.2362  0.0509  0.4792
15698W        W30829   5.338  12.733   4.173 -0.4370 -0.2009 -0.2407
15699W        W30830  16.826   8.124   3.934  0.0452  0.0317  0.0929
15700W        W30831   8.921   6.319  14.710 -0.0014  0.4240 -0.0889
15701W        W30832   7.914  16.365  11.512 -0.0599  0.2623 -0.2297
15702W        W30833  14.499   7.220  14.052  0.1869 -0.2714 -0.0438
15703W        W30834  15.832  10.481  14.663 -0.1030  0.0427  0.1328
15704W        W30835   6.341   2.625   3.458 -0.0869  0.0662  0.1082
15705W        W30836   3.044   4.102   5.967 -0.3305  0.0595  0.0893
15706W        W30837  12.859   2.594   4.399  0.2251 -0.1053 -0.1978
15707W        W30838  15.657  17.198   0.894  0.2949 -0.1233 -0.0515
15708W        W30839   7.990   5.341  13.587 -0.3788  0.1338 -0.0407
15709W        W30840   5.408  10.148   0.823  0.0808 -0.0166  0.2010
15710W        W30841   9.135  14.453  14.228 -0.2973  0.2203 -0.1229
15711W        W30842  13.640   2.045  15.697 -0.0916 -0.1233 -0.1543
15712W        W30843   3.370  15.198   4.310 -0.0910 -0.0111  0.0461
15713W        W30844  11.567  11.342   1.498  0.0995  0.2524 -0.1374
15714W        W30845   2.130  11.137  12.496 -0.1712  0.2483 -0.0248
15715W        W30846   1.386   7.775  13.904 -0.4119  0.0887  0.2026
15716W        W30847  16.974   9.186  13.382 -0.2264  0.1816 -0.1528
15717W        W30848   8.885  13.233   6.518  0.0352 -0.0679  0.1149
15718W        W30849  16.196   3.075   5.130 -0.2037 -0.1626  0.0340
15719W        W30850   1.934  12.905   4.982 -0.1603 -0.0766  0.1724
15720W        W30851   6.074   5.791  13.359 -0.0661  0.0689  0.2760
15721W        W30852  13.308  10.408   4.291 -0.0314  0.0502 -0.0823
15722W        W30853  11.342  13.908   1.505 -0.3285 -0.3035 -0.2199
15723W        W30854  16.127   6.424  14.507 -0.1316 -0.1152  0.0118
15724W        W30855  12.973   2.962  14.640 -0.0191  0.2354  0.0633
15725W        W30856   8.675   1.708   1.710  0.0071  0.0730 -0.3653
15726W        W30857   0.923   6.111  13.870  0.2315 -0.1410  0.0312
15727W        W30858   6.991   7.513   0.609 -0.1327 -0.0830  0.0881
15728W        W30859  17.623  17.336   5.716  0.1526 -0.0139 -0.4274
15729W        W30860   3.573  11.547   5.367 -0.3011 -0.2761 -0.1257
15730W        W30861  12.614  15.182   4.526  0.1496  0.1519  0.3610
15731W        W30862   1.606  10.439   2.833 -0.2837 -0.2775  0.0889
15732W        W30863   6.089  10.908   5.555  0.2378 -0.0241  0.2142
15733W        W30864  11.554   3.062   5.007 -0.2405  0.2461 -0.2208
15734W        W30865   3.843  11.769  16.658  0.4296 -0.0612 -0.2632
15735W        W30866  15.879   9.211   2.085  0.0302 -0.0227 -0.0007
15736W        W30867  12.354   9.922   3.070  0.4090  0.1901  0.2859
15737W        W30868   5.010   8.348  16.855 -0.1179 -0.0667  0.0025
15738W        W30869  12.893  12.218  12.769 -0.0374  0.1074  0.3620
15739W        W30870   0.542   2.159   2.874 -0.1910 -0.3438 -0.0109
15740W        W30871   7.545  12.073   6.024 -0.3030  0.0052 -0.0439
15741W        W30872   3.734  10.313   1.299  0.0330  0.0395 -0.0989
15742W        W30873   0.493  11.213  16.172  0.1722 -0.2282  0.0690
15743W        W30874   4.118   4.362   1.931 -0.1085 -0.3988  0.0329
15744W        W30875   4.623  16.034  11.489 -0.1854  0.1051 -0.0174
15745W        W30876  13.514  16.587  15.853  0.2755  0.0576 -0.1221
15746W        W30877   8.293  10.090   6.430  0.3302  0.0662  0.0666
15747W        W30878  12.650   0.186  11.863  0.2415 -0.2522  0.3265
15748W        W30879   2.516   0.098   5.738 -0.0476  0.2450 -0.0931
15749W        W30880   8.101   1.462   1.704 -0.0840  0.0880  0.2065
15750W        W30881   9.740   7.696   0.143  0.0783 -0.2050 -0.1389
15751W        W30882  10.148  10.240  11.767  0.1269  0.2241  0.0830
15752W        W30883  14.417   9.612  12.514  0.1234 -0.0063  0.0808
15753W        W30884   7.688   3.782  15.350  0.1692 -0.0765 -0.1741
15754W        W30885  13.009  11.024   0.128 -0.0166 -0.0672  0.1821
15755W        W30886   7.230   7.246  14.900  0.0021  0.1604 -0.0912
15756W        W30887   5.733  14.979   1.261  0.1284  0.2472 -0.0399
15757W        W30888   6.731   0.205   6.573  0.2673  0.2637  0.0333
15758W        W30889   2.335  13.067   0.220  0.2836 -0.1643 -0.1391
15759W        W30890  10.271   8.662   5.483 -0.0451  0.0167  0.1223
15760W        W30891  14.154  13.845  13.711 -0.2565  0.1110 -0.1966
15761W        W30892  11.301  14.645   5.261 -0.2724 -0.1702 -0.3343
15762W        W30893   2.287   7.052   2.713 -0.1016 -0.1638 -0.0054
15763W        W30894  16.193   4.106  11.451  0.1369 -0.3283  0.0546
15764W        W30895  17.581   7.912  11.509  0.0777 -0.0565  0.0558
15765W        W30896   9.246   9.366  11.262  0.1820  0.0769  0.0896
15766W        W30897   5.852  14.996   5.886  0.1693  0.0752 -0.1685
15767W        W30898  13.617   0.521   4.881  0.0484  0.2251  0.1266
15768W        W30899   6.584   4.248  11.260  0.3173  0.1676 -0.0585
15769W        W30900   8.109  11.956  11.468  0.0568 -0.3673 -0.1455
15770W        W30901   8.187  11.796  16.926  0.1237 -0.1162 -0.0811
15771W        W30902   8.062  15.282  14.127 -0.2028 -0.1407  0.0485
15772W        W30903   1.864  13.035   2.013  0.1735  0.0057  0.0051
15773W        W30904   0.677   7.048  11.269  0.1527  0.1958  0.2071
15774W        W30905   1.118  15.838  13.368 -0.2318 -0.1426  0.2061
15775W        W30906   2.806   9.258   0.156  0.1446  0.3078 -0.1983
15776W        W30907   0.379  12.901  15.974 -0.0353 -0.2135  0.0549
15777W        W30908   2.554   5.388   0.013  0.1116  0.0162  0.5266
15778W        W30909   6.070   3.899   2.950 -0.1082 -0.0840  0.2439
15779W        W30910  15.937   6.192   2.673 -0.0960  0.0159 -0.0418
15780W        W30911   4.337   4.872   2.160 -0.2825 -0.2737  0.1948
15781W        W30912  17.632  15.988   0.674  0.2424  0.1240 -0.0778
15782W        W30913  15.241   0.585  11.966  0.3773 -0.2727  0.2035
15783W        W30914  17.149   5.126  13.795  0.0307  0.0580  0.1666
15784W        W30915  15.666   2.577   0.030 -0.0853 -0.1199  0.1264
15785W        W30916  14.000   8.622  14.602 -0.0237 -0.0687 -0.0788
15786W        W30917  10.740  13.831  14.757  0.2059  0.1845  0.1840
15787W        W30918  12.794   2.117  12.353 -0.2534 -0.0090  0.0388
15788W        W30919   5.955  14.004  12.969  0.0923  0.1700  0.2630
15789W        W30920   3.373  13.394  11.210 -0.1227 -0.0597 -0.0594
15790W        W30921  14.030  11.653   5.881 -0.2613  0.0386 -0.5092
15791W        W30922   6.826   6.916  14.696  0.1987 -0.0164  0.1640
15792W        W30923  15.543   3.291  11.408 -0.0118  0.1327 -0.1416
15793W        W30924   6.802   1.691  15.940  0.0328  0.0474 -0.3577
15794W        W30925  16.129   4.605   6.159  0.0357 -0.4637  0.0279
15795W        W30926   8.915  16.600  13.482  0.0748  0.1030 -0.0467
15796W        W30927   8.689  17.075   1.380 -0.3799  0.1165 -0.1712
15797W        W30928  10.385  16.736  16.691 -0.0957 -0.0569 -0.1364
15798W        W30929  17.006  15.519  15.993  0.0802 -0.2778  0.0042
15799W        W30930   4.703  11.130   3.538 -0.0849 -0.2649  0.0273
15800W        W30931   8.143   1.225  15.446  0.0400  0.2086 -0.0065
15801W        W30932   4.181  10.318   5.598 -0.1417  0.3811 -0.1992
15802W        W30933  13.216   8.968   4.243  0.1931  0.0342  0.0771
15803W        W30934  17.703   7.514   0.811 -0.2117  0.1716  0.1353
15804W        W30935  10.473   1.728  16.506  0.1821 -0.0332 -0.2269
15805W        W30936  10.903   0.507  16.669  0.0848  0.1913 -0.1827
15806W        W30937  10.468   8.498   2.341  0.0425  0.0113 -0.0612
15807W        W30938  14.452   9.161   9.932 -0.1363  0.0388  0.3925
15808W        W30939  12.200   0.933  16.633  0.1664  0.1878  0.0073
15809W        W30940   0.498   4.223  16.788 -0.1749  0.1058  0.1164
15810W        W30941   8.877   5.445   0.561  0.0340  0.0780 -0.2434
15811W        W30942  16.900   2.341   4.994 -0.0893 -0.1276  0.2177
15812W        W30943  10.570   6.981   3.239 -0.2227  0.2050 -0.0828
15813W        W30944   5.464   5.231   0.924 -0.1533  0.1511  0.2990
15814W        W30945  13.528   5.095   5.042  0.1445  0.0036  0.2364
15815W        W30946   7.779  17.644  10.909 -0.0410  0.4505  0.1432
15816W        W30947   9.985  11.766  16.618  0.1675  0.2471  0.0917
15817W        W30948  15.248  13.019  13.458  0.1579 -0.1360  0.1045
15818W        W30949   1.392  17.118  14.623  0.0636  0.0317  0.3023
15819W        W30950  14.908   8.980  16.653  0.1081 -0.0969 -0.3139
15820W        W30951  15.228   9.656   0.371 -0.1311 -0.1219  0.0531
15821W        W30952   5.219   4.842  16.677 -0.3638  0.1512  0.0312
15822W        W30953  10.529  13.165   2.001  0.2288  0.1224 -0.2528
15823W        W30954  13.532   0.558  11.511 -0.2699  0.0784  0.0510
15824W        W30955  15.441  11.213   2.377  0.1681 -0.0800 -0.0923
15825W        W30956  16.483   4.761   2.674 -0.1800 -0.0763  0.0980
15826W        W30957   7.467  14.299   4.863  0.2383  0.1515  0.3951
15827W        W30958   6.606   1.875   2.281 -0.1684  0.1396  0.2150
15828W        W30959  12.747  14.860  15.426  0.2602 -0.0747  0.2650
15829W        W30960  14.329   6.352  13.050 -0.1082 -0.1898  0.0919
15830W        W30961   3.552   7.365   0.147 -0.5523  0.2913  0.2033
15831W        W30962  13.296   2.859  16.108  0.1945  0.0351 -0.0531
15832W        W30963   6.371   5.751   4.852  0.0342  0.0609 -0.3275
15833W        W30964  13.996  15.535   3.970 -0.1833 -0.0737  0.3349
15834W        W30965   1.883   4.577  11.222  0.2107  0.0879 -0.0623
15835W        W30966  12.076   0.811  14.948 -0.1659 -0.0171  0.3788
15836W        W30967  15.373  16.490   1.361  0.0899 -0.0259  0.0022
15837W        W30968  15.101   8.350  15.282 -0.1165  0.0838  0.2136
15838W        W30969   3.867   0.492   4.682  0.0414  0.0238 -0.0780
15839W        W30970  16.987   8.078   1.063  0.1274 -0.0476  0.0895
15840W        W30971  15.008  12.493  14.281  0.0642 -0.0906 -0.0060
15841W        W30972   5.523  12.094  15.169  0.0404 -0.0474 -0.1102
15842W        W30973   4.059   3.599  14.758 -0.0982 -0.0491 -0.1212
15843W        W30974  13.677  10.307   0.820 -0.2237 -0.0542 -0.2743
15844W        W30975  12.644   4.104  10.198 -0.0414 -0.0005  0.0966
15845W        W30976  14.508   8.549   3.857  0.0812 -0.0132  0.1022
15846W        W30977   3.167  15.929  15.349  0.1427  0.1049  0.1268
15847W        W30978   1.889  13.255   0.151 -0.3825 -0.1395  0.0325
15848W        W30979   4.966  10.163   1.498  0.1309  0.1471 -0.5075
15849W        W30980   2.678  10.573   4.030 -0.0207  0.1475  0.0365
15850W        W30981   6.197  17.481   1.717  0.0395  0.1657 -0.1166
15851W        W30982  16.545  15.046   1.362 -0.0947  0.1893 -0.3262
15852W        W30983   9.610  17.635   0.384 -0.0999  0.1628  0.3273
15853W        W30984   9.165   9.784   1.107 -0.3095 -0.3657  0.1557
15854W        W30985  16.047  12.633  13.451  0.1162  0.0282 -0.1305
15855W        W30986   3.517   4.220  10.469  0.0505 -0.1431 -0.1301
15856W        W30987   4.224  13.641   2.261  0.3193  0.0083 -0.0083
15857W        W30988  12.544  16.345  16.885  0.2592  0.0078 -0.0746
15858W        W30989   8.809   4.781  15.641 -0.1729 -0.2533  0.1234
15859W        W30990  12.985  16.872  11.897  0.1318 -0.0862  0.0611
15860W        W30991   9.973   3.091  14.605  0.0535 -0.1336  0.0735
15861W        W30992  11.031   6.770  14.604 -0.0252  0.4057 -0.2012
15862W        W30993  15.824   8.499   0.948 -0.1619 -0.1031  0.2490
15863W        W30994   8.528  12.101  12.866 -0.1765  0.0675  0.2101
15864W        W30995   9.477  14.094   0.815  0.1371  0.1236 -0.0419
15865W        W30996  14.123  14.932  12.801 -0.2679  0.0428  0.4070
15866W        W30997  17.256   8.191   4.198 -0.1245 -0.0156 -0.0633
15867W        W30998   3.803  13.818   2.560  0.1873 -0.1963  0.0096
15868W        W30999   5.212   6.653  11.957 -0.0074 -0.1286  0.2164
15869W        W31000  13.315  14.612   3.209 -0.1833 -0.4757 -0.1971
15870W        W31001   4.151   9.130   0.288 -0.1079  0.0832  0.5181
15871W        W31002   5.970   7.109  15.581  0.0062 -0.0459  0.0331
15872W        W31003   1.954   7.120  15.609 -0.0022  0.2867 -0.1699
15873W        W31004   5.981   1.043   3.781  0.1016  0.0713  0.0433
15874W        W31005   6.006   8.148   4.909 -0.3777 -0.1028  0.2420
15875W        W31006   4.390   9.066   6.289 -0.0918 -0.0415 -0.0696
15876W        W31007   9.326   0.892  14.047 -0.0431  0.2274 -0.1560
15877W        W31008  11.652   5.983  12.310 -0.1536 -0.0716 -0.1452
15878W        W31009  10.025  10.327   2.254  0.3304 -0.1870  0.1626
15879W        W31010   9.562  12.673   0.597  0.2043  0.1857  0.0459
15880W        W31011   0.328  15.355   1.118  0.0627 -0.3193  0.1420
15881W        W31012  11.252  10.511   0.269 -0.0131 -0.0305  0.0887
15882W        W31013  16.640  13.379   1.774 -0.3027 -0.1302 -0.3902
15883W        W31014   7.212   5.509   3.104  0.2790  0.0045  0.0203
15884W        W31015   8.376   2.753  11.341  0.2765 -0.0184 -0.4392
15885W        W31016  16.789   8.186   1.645  0.3323  0.0011  0.0029
15886W        W31017  10.943  16.829   4.869 -0.1802  0.1906 -0.0061
15887W        W31018  10.524  11.603   3.676 -0.2559 -0.1836  0.2379
15888W        W31019  15.949   3.173  11.772 -0.2672  0.1414  0.0964
15889W        W31020   5.599   9.110  16.573 -0.0088  0.0503 -0.0809
15890W        W31021  11.202  14.388  16.682 -0.1113  0.0990  0.1566
15891W        W31022   4.829  17.439   2.555  0.1296 -0.0533  0.0433
15892W        W31023  11.393  14.654  13.675  0.2244  0.0480  0.1636
15893W        W31024  13.382  14.938   1.319  0.0558 -0.1071 -0.0062
15894W        W31025  14.477   2.335  14.321 -0.1310 -0.2652 -0.0075
15895W        W31026  17.217   8.174   3.655  0.1526  0.0571  0.0874
15896W        W31027  13.197  10.695  11.628  0.0781  0.0846 -0.1412
15897W        W31028   5.205   9.332   2.847 -0.2941  0.3223 -0.0422
15898W        W31029   8.805  17.649   5.346 -0.2466 -0.0245 -0.2952
15899W        W31030  17.619   1.834   5.302 -0.1181 -0.2905  0.2071
15900W        W31031  15.166  13.351  15.844 -0.2008 -0.0182  0.2048
15901W        W31032  13.171  16.848  14.857  0.0994  0.0330  0.2608
15902W        W31033  14.678   0.927   3.028 -0.0665  0.0923  0.1858
15903W        W31034   7.862   4.387  12.145 -0.1362  0.0485 -0.0250
15904W        W31035   0.621   9.480  16.356 -0.2587 -0.0038 -0.1524
15905W        W31036   9.402  15.320  12.748  0.0159 -0.0167 -0.0208
15906W        W31037  11.774  13.088   5.833 -0.0207  0.1150 -0.2141
15907W        W31038   2.468  12.144  13.276  0.0363  0.1871 -0.0325
15908W        W31039  13.590  10.169  15.765  0.0356  0.1511  0.1703
15909W        W31040   2.735  13.693  16.535 -0.0244  0.0526  0.0892
15910W        W31041   7.646  15.104   2.274 -0.0168  0.1894 -0.2838
15911W        W31042  16.341  12.554  14.363  0.1448  0.4360 -0.2512
15912W        W31043   6.975   2.322   0.223 -0.0295  0.2332 -0.1448
15913W        W31044  12.426  13.514   3.058  0.2527  0.3388 -0.2695
15914W        W31045   3.741   2.787  13.199  0.0390 -0.0670 -0.1666
15915W        W31046   1.303  13.096   0.981 -0.1851 -0.3922  0.1681
15916W        W31047   8.968  14.428   1.007 -0.0592 -0.0807  0.2781
15917W        W31048  12.267  11.182  14.971 -0.0228 -0.0322  0.1166
15918W        W31049   3.982   0.995  15.432  0.0101  0.4389 -0.0427
15919W        W31050  13.288  11.906   2.271  0.5006  0.1219  0.1471
15920W        W31051   6.576   8.097  10.765  0.0247 -0.1790 -0.1821
15921W        W31052   6.384   8.337   0.042 -0.1993  0.0914 -0.1704
15922W        W31053   7.493  13.938   5.778  0.3689 -0.0496 -0.1098
15923W        W31054  12.294   0.009   1.858  0.0433 -0.1973  0.3281
15924W        W31055   0.265  12.666   4.361  0.0616  0.1655  0.1086
15925W        W31056   7.067  12.716   2.042 -0.1632  0.1150 -0.1233
15926W        W31057  11.022   3.150  13.198 -0.0423 -0.0116  0.2347
15927W        W31058  10.289   4.983   4.096  0.0232 -0.2244  0.0827
15928W        W31059   8.239  16.787   2.030 -0.0250  0.2508 -0.1135
15929W        W31060   9.087  13.597   2.067 -0.0115 -0.1174  0.2220
15930W        W31061   6.040   0.592   3.924 -0.2338 -0.0945 -0.1345
15931W        W31062  15.072  16.483  16.656  0.0225  0.1437 -0.0992
15932W        W31063   7.013   2.549  14.665  0.0368 -0.0235  0.1731
15933W        W31064  16.650   8.470  14.988  0.2928  0.1660 -0.0368
15934W        W31065   0.117   4.714  16.328  0.0126  0.1885  0.0051
15935W        W31066   2.877   8.376  11.259  0.0412  0.2783 -0.0133
15936W        W31067   1.799   1.900   5.047 -0.0722 -0.1151  0.0735
15937W        W31068   1.469  14.828   0.693  0.1439  0.0943  0.0020
15938W        W31069  15.489   3.040  14.990 -0.3161 -0.0478  0.0831
15939W        W31070   9.706   5.018  15.583 -0.1873  0.2948  0.1718
15940W        W31071  15.467   5.174   1.277 -0.0646 -0.0073 -0.2172
15941W        W31072   0.015  15.874   2.137 -0.2369 -0.1605 -0.2967
15942W        W31073  11.891   5.096   4.185 -0.0338 -0.0603  0.0278
15943W        W31074   0.997   1.396   4.072  0.1336  0.2907  0.0047
15944W        W31075   5.826   1.108  15.600  0.1872 -0.2402 -0.0495
15945W        W31076  15.343  13.868   0.482  0.2994  0.1905 -0.2051
15946W        W31077   9.178  14.182   3.258  0.2657  0.0783  0.0123
15947W        W31078  16.510   5.988  14.101 -0.1518  0.0814 -0.2060
15948W        W31079   2.466  16.411   5.238 -0.0398  0.1584  0.0089
15949W        W31080   8.422   5.211  13.810 -0.2531 -0.0419  0.0237
15950W        W31081  17.042  11.704   3.460 -0.3408  0.2204 -0.1375
15951W        W31082  16.475   7.822  14.426 -0.1150 -0.1031  0.0034
15952W        W31083   6.181  12.253  13.578  0.3913  0.0982 -0.1986
15953W        W31084   2.811  10.185   3.035 -0.1274 -0.0400 -0.1009
15954W        W31085   7.296   1.604  15.707 -0.1856 -0.0599  0.0775
15955W        W31086   4.665   8.503  13.506 -0.3008  0.0943  0.0746
15956W        W31087  10.162  16.324  12.735  0.1034  0.0412  0.0189
15957W        W31088   8.493  16.015   3.699  0.1496 -0.0123 -0.2090
15958W        W31089  10.338   4.563   2.881 -0.0486  0.1245 -0.3081
15959W        W31090   8.485  16.338   0.441 -0.1839  0.0801 -0.0814
15960W        W31091   2.541   6.600   5.320  0.2281  0.0851 -0.3360
15961W        W31092  13.219  13.237  11.492 -0.2547  0.0647 -0.1755
15962W        W31093  15.559  11.943  12.837 -0.0711  0.1475  0.0261
15963W        W31094  16.589   6.819  15.747  0.0130  0.3350 -0.3595
15964W        W31095  17.347  13.579  15.045  0.1888 -0.0322 -0.0365
15965W        W31096  14.724  16.506  16.348  0.3560 -0.0223  0.2970
15966W        W31097   3.529  11.887  11.872  0.1552 -0.1200  0.0979
15967W        W31098   2.507   8.141  11.953  0.2991 -0.2924 -0.2061
15968W        W31099  16.094  15.754   1.893 -0.2193  0.0073 -0.0038
15969W        W31100   3.064   1.400  13.933  0.0353 -0.1948 -0.1953
15970W        W31101  13.356   4.126   0.833  0.0776 -0.1127 -0.1380
15971W        W31102   4.588   2.735   3.024 -0.0826  0.2755  0.1543
15972W        W31103  16.055  10.198  12.669  0.1543  0.1742 -0.1856
15973W        W31104  16.717   0.841  13.546 -0.1272 -0.1007  0.2489
15974W        W31105   0.366   3.265   4.672  0.3005 -0.0417 -0.1428
15975W        W31106  10.394   9.757   0.878 -0.0140 -0.2039 -0.1815
15976W        W31107  11.431   7.130  10.666 -0.1518 -0.0955  0.2930
15977W        W31108   3.365  12.972   3.974 -0.1452  0.2175 -0.0905
15978W        W31109   7.094   6.845   2.431  0.0470  0.3340  0.1069
15979W        W31110   8.404   0.340  10.973 -0.3398 -0.1748  0.0912
15980W        W31111   1.952   0.896  12.648 -0.1259  0.2945 -0.1151
15981W        W31112  15.305  15.919   5.311  0.2185  0.1203  0.4771
15982W        W31113   4.235   8.949   1.819 -0.3349  0.0163 -0.2016
15983W        W31114  10.086  10.740   1.836  0.1083 -0.3983  0.1560
15984W        W31115   5.168   0.137  12.832  0.2397  0.0607 -0.2553
15985W        W31116   1.227  12.572   0.047 -0.2543  0.2407 -0.3876
15986W        W31117   3.626  11.702   3.780  0.1831  0.1466  0.2371
15987W        W31118  13.149  10.742   2.381 -0.1239 -0.1354  0.0406
15988W        W31119  14.218   6.961   4.503  0.0882 -0.1437 -0.1930
15989W        W31120   0.474   2.735  15.450 -0.0221 -0.1906 -0.1427
15990W        W31121   6.026   1.871   4.142  0.2006 -0.2074 -0.0408
15991W        W31122  14.607  12.869  14.486  0.0685  0.0521  0.0056
15992W        W31123   8.303  14.306  14.811 -0.2278  0.0538  0.1154
15993W        W31124   5.868   9.886   4.014  0.1548 -0.2744 -0.0607
15994W        W31125  11.666   4.972   1.272  0.2069 -0.0775 -0.1686
15995W        W31126   1.210   2.985   5.028 -0.0622 -0.0569  0.1227
15996W        W31127  16.005   7.543  13.859 -0.1857 -0.1637 -0.0551
15997W        W31128   6.266   2.459   2.587 -0.1373  0.0182 -0.0128
15998W        W31129   9.101   7.905   1.640 -0.0841  0.2346 -0.0763
15999W        W31130  11.805  17.683   5.402  0.2463 -0.1304  0.0271
16000W        W31131  17.269  17.543   4.652 -0.4832  0.0637 -0.0820
16001W        W31132  13.690   7.586  13.051 -0.0677  0.3447 -0.2681
16002W        W31133   3.437   0.474   4.090  0.1641  0.1254 -0.0273
16003W        W31134  16.986  11.799  10.592  0.1222  0.1693  0.0030
16004W        W31135   4.595  17.349  16.266  0.1766  0.1306  0.0092
16005W        W31136  12.491   0.396   0.304 -0.1723  0.1613 -0.1274
16006W        W31137   1.781  11.177  11.296  0.0160  0.0516 -0.1895
16007W        W31138  17.405  12.081   5.145 -0.1115  0.3302  0.1312
16008W        W31139   3.673  10.761   0.095 -0.0741  0.0451  0.0996
16009W        W31140  15.299   4.166  14.657  0.1182  0.2366  0.3184
16010W        W31141   9.377   7.496  11.508  0.0496 -0.1015 -0.2013
16011W        W31142   1.609  12.558   6.410 -0.2880  0.0266  0.1574
16012W        W31143   1.910  12.051   3.312  0.2037  0.0621  0.2490
16013W        W31144   5.276  16.553  12.222 -0.0377  0.1602 -0.1614
16014W        W31145  11.665   0.439   0.285 -0.0649 -0.2329 -0.3026
16015W        W31146   8.158   2.521  13.081 -0.0475  0.2792 -0.0925
16016W        W31147   7.821  10.721  13.077 -0.1805  0.0477  0.1396
16017W        W31148   0.166  11.415   5.509 -0.0526  0.2166 -0.0364
16018W        W31149   4.302  13.835   4.653  0.0784  0.2803  0.0542
16019W        W31150  17.198   6.524   5.692  0.2463 -0.2189 -0.1027
16020W        W31151  17.369  16.639  13.056  0.2957  0.3328 -0.0083
16021W        W31152   5.456   2.370  14.113  0.1090  0.1812  0.0025
16022W        W31153   6.933  13.899  11.223 -0.0442  0.4177  0.1401
16023W        W31154   6.455   9.800  14.562  0.2175 -0.2200  0.1218
16024W        W31155  11.819   3.100  12.233  0.0450 -0.0023  0.0003
16025W        W31156   1.025  12.647  15.683  0.2217 -0.0580 -0.1444
16026W        W31157   0.037   3.803   0.941  0.3446 -0.1868 -0.0856
16027W        W31158   6.471  15.192  12.724 -0.2162  0.0682  0.0757
16028W        W31159   9.404   5.979  16.042 -0.1688 -0.1484 -0.0037
16029W        W31160  10.443  16.210   4.597 -0.1150 -0.3479 -0.3118
16030W        W31161   7.748   9.487  13.573 -0.2593  0.1871 -0.0601
16031W        W31162   9.686  10.864  14.496  0.1176 -0.1484 -0.4134
16032W        W31163  15.411   0.063  11.783 -0.1876 -0.0908 -0.0815
16033W        W31164   0.222  10.328   0.305  0.0843  0.0380  0.0679
16034W        W31165   2.532   9.736   6.387 -0.0571  0.1283  0.1759
16035W        W31166  13.823  10.098  16.678 -0.0080  0.0656  0.1766
16036W        W31167   1.072  17.050  12.756 -0.0627  0.1053  0.1086
16037W        W31168  10.682   8.540  14.018  0.0013  0.2665 -0.0204
16038W        W31169   4.831   0.144   4.833  0.2542 -0.0192 -0.1157
16039W        W31170  17.290  17.688   1.014  0.0208  0.2746 -0.2686
16040W        W31171  15.379   6.928  12.141  0.0859  0.0099  0.0633
16041W        W31172   3.368  15.810  12.035 -0.2913 -0.0668 -0.0573
16042W        W31173  16.551  11.785  11.568  0.3827  0.1366 -0.0237
16043W        W31174  13.738  10.862  12.375  0.2581 -0.2639 -0.3011
16044W        W31175   8.632  16.561   3.808  0.0771 -0.0811 -0.3510
16045W        W31176   1.815  15.251  14.927  0.1379 -0.1441 -0.2416
16046W        W31177   3.382  14.154   5.187 -0.1016  0.0003  0.2492
16047W        W31178   7.595   7.229  14.079  0.0926 -0.3051  0.2329
16048W        W31179  12.329  16.161   3.390 -0.4920 -0.2495 -0.0195
16049W        W31180   9.903   3.780   1.253  0.0615  0.2501  0.0346
16050W        W31181   1.843   0.258  13.332 -0.2548 -0.1015  0.0376
16051W        W31182   1.264  13.485  12.897 -0.3414 -0.1118  0.0490
16052W        W31183  13.025   9.058   2.875  0.1721  0.1177 -0.0040
16053W        W31184   8.027  12.637  13.395  0.3533  0.2233  0.0674
16054W        W31185   8.168   5.578   3.796  0.2228  0.0273 -0.1478
16055W        W31186   1.080   4.884  12.309 -0.1547 -0.0036 -0.3115
16056W        W31187   6.829  13.163   4.986  0.2566  0.1594 -0.0338
16057W        W31188   1.786  12.915   1.034 -0.1036 -0.0660 -0.0365
16058W        W31189  11.977  17.065   6.766 -0.0570 -0.1440 -0.3848
16059W        W31190  15.577   2.803  15.409 -0.0415 -0.2265 -0.3478
16060W        W31191  15.816  11.291   1.586  0.2525  0.0720  0.0962
16061W        W31192   5.148   2.243   2.927  0.1171 -0.0294 -0.0365
16062W        W31193   1.219   1.582  14.316  0.0055 -0.0514  0.1412
16063W        W31194   9.684   9.309   5.287 -0.1030 -0.1160  0.0172
16064W        W31195   2.702  13.555   2.056 -0.1010 -0.1453 -0.1621
16065W        W31196  16.799  12.611   5.356 -0.1764 -0.0924 -0.1744
16066W        W31197   0.583   4.584  16.428  0.2330 -0.0919  0.2054
16067W        W31198   3.552  13.142  14.398  0.0286 -0.3332  0.0603
16068W        W31199   1.045   5.347   2.644  0.2932  0.0571  0.1136
16069W        W31200  11.423  10.804   4.246 -0.1018 -0.0979 -0.1644
16070W        W31201  15.464   6.133   5.958 -0.3234  0.2627  0.0015
16071W        W31202   3.060   4.421   1.593 -0.4307 -0.1457 -0.2210
16072W        W31203  12.079   9.520  16.369  0.2094  0.0661 -0.1603
16073W        W31204   8.592   7.269   0.992 -0.3390  0.3508 -0.0496
16074W        W31205  17.513  13.093  10.915 -0.0257  0.0084  0.2248
16075W        W31206  13.576  17.132  15.130  0.0750 -0.2286  0.1206
16076W        W31207  10.178   9.752  13.660 -0.0762  0.1444  0.1665
16077W        W31208   3.742   0.806   3.150  0.0546  0.1299 -0.1432
16078W        W31209   4.394  15.498   1.514 -0.3118 -0.1737  0.2555
16079W        W31210  13.163   6.929   3.872  0.2248  0.0746 -0.0717
16080W        W31211   4.779   9.742   1.672 -0.1638  0.1285 -0.1262
16081W        W31212   5.881   5.874   3.434 -0.0734  0.0194  0.1522
16082W        W31213   2.785  12.912   0.189  0.1839  0.3582  0.0765
16083W        W31214   7.911  12.408  15.306  0.1673  0.2828 -0.2155
16084W        W31215  14.471  12.425  13.546 -0.0735  0.0759  0.0070
16085W        W31216   0.215  14.583   3.730  0.1560 -0.0737 -0.5419
16086W        W31217   4.271  12.426   5.086 -0.0931 -0.3533  0.0474
16087W        W31218   7.127  15.547   3.235  0.0419 -0.1282  0.1791
16088W        W31219  16.443   2.629   4.304  0.1069  0.0445 -0.1769
16089W        W31220  15.929  11.052  12.978 -0.0961  0.2982  0.2645
16090W        W31221  15.866  15.882  16.519  0.0163 -0.1615  0.3074
16091W        W31222  16.594  14.977  14.492 -0.1636  0.0060  0.0586
16092W        W31223  16.878   6.267   0.461 -0.1213 -0.4846 -0.1409
16093W        W31224   5.565   1.491  15.474 -0.0404 -0.1104 -0.0608
16094W        W31225  12.261   8.563  16.701 -0.0324  0.0962  0.1370
16095W        W31226   9.580   6.198  11.455 -0.2467  0.1544 -0.0445
16096W        W31227   5.393   6.486   2.414  0.1909  0.1389 -0.2112
16097W        W31228   9.559  16.849  12.763  0.1325  0.1259 -0.0508
16098W        W31229  11.415   7.798   0.627 -0.0996 -0.0885 -0.0509
16099W        W31230   3.044  16.564   5.368 -0.1907  0.1904  0.0185
16100W        W31231  17.454  14.025  15.323  0.0524  0.0277 -0.3483
16101W        W31232   3.095   3.325  14.954  0.1643 -0.1806 -0.0284
16102W        W31233   6.170  16.353   6.121 -0.1660 -0.0786  0.2317
16103W        W31234   7.711   9.626  15.390  0.2315 -0.0532 -0.2576
16104W        W31235  14.571  14.176   5.883 -0.0248  0.0378  0.1471
16105W        W31236   2.299  16.218  16.028  0.1604  0.0978 -0.0235
16106W        W31237   4.035   8.269  16.755  0.1151  0.0748 -0.2808
16107W        W31238  10.448  14.757  15.163 -0.1939  0.1306  0.1446
16108W        W31239   7.401   4.114  12.359  0.0674 -0.0663  0.0081
16109W        W31240  17.579   9.873  12.909 -0.0494 -0.2613 -0.0754
16110W        W31241   8.133   3.713   0.300 -0.0204 -0.0076 -0.2504
16111W        W31242  16.999  11.159  12.364 -0.1512  0.1458 -0.0239
16112W        W31243   3.599   7.018   5.031  0.1957 -0.0394  0.1391
16113W        W31244  17.648  15.026   4.069 -0.1226  0.1161  0.0257
16114W        W31245   7.796   8.821   1.402  0.2126  0.2463 -0.0848
16115W        W31246  16.394  16.696   2.949 -0.2903 -0.2013  0.1947
16116W        W31247   6.594   3.115   3.708 -0.2545 -0.1883 -0.1315
16117W        W31248  16.858   2.831   2.933  0.1113 -0.0506 -0.2150
16118W        W31249   0.970  13.559  14.203  0.0730 -0.1973 -0.1663
16119W        W31250   0.179   3.289  15.214 -0.1320  0.1998  0.3092
16120W        W31251  12.656   8.899   0.543  0.3205  0.1336 -0.1558
16121W        W31252  15.628   3.778  15.671 -0.0171 -0.0034  0.0461
16122W        W31253   5.217   2.545  11.604 -0.0441  0.0756  0.0270
16123W        W31254   8.522   1.151   0.810 -0.0234  0.1644 -0.1423
16124W        W31255   3.315  12.441   5.499  0.2283  0.0184 -0.0978
16125W        W31256  17.264   5.214  10.966 -0.2494  0.0015 -0.0612
16126W        W31257  16.815  12.450  12.291 -0.1755  0.2191  0.1266
16127W        W31258   0.994   4.953  13.175 -0.0487 -0.1079  0.0718
16128W        W31259   5.256   1.085   2.112 -0.1296 -0.1232  0.2080
16129W        W31260  10.854  14.642   2.523 -0.0812 -0.2017 -0.1874
16130W        W31261   0.229  13.691   5.881  0.1486 -0.1196 -0.0155
16131W        W31262  10.214  17.546   1.020  0.2595  0.3003 -0.1234
16132W        W31263  13.763  15.310  16.348  0.1122  0.3477 -0.4441
16133W        W31264   2.465   1.113   5.858  0.2697 -0.3704  0.1299
16134W        W31265  12.698   0.701  11.774 -0.4829  0.2265 -0.0318
16135W        W31266  14.923   0.012  13.734  0.1697 -0.0164  0.2951
16136W        W31267   4.125   5.204   1.841 -0.0373  0.3641  0.1268
16137W        W31268   5.035   2.910   4.647 -0.1088  0.0854 -0.1155
16138W        W31269   0.334  11.086   2.817 -0.1235 -0.1337  0.2126
16139W        W31270  12.291   3.141   1.730 -0.1461  0.2256  0.0257
16140W        W31271  15.536  11.604   0.510  0.0266  0.1925  0.0201
16141W        W31272  13.016   7.960  16.487 -0.1327 -0.0619  0.3657
16142W        W31273   0.373   7.708  12.685 -0.0382 -0.0813  0.0107
16143W        W31274  11.267   5.793  14.814  0.2207 -0.0418 -0.1298
16144W        W31275   3.211   4.611  16.760  0.2589  0.0427  0.0305
16145W        W31276   0.638  15.013   4.649 -0.4367  0.2601 -0.1017
16146W        W31277   6.188  15.584   5.552  0.0669  0.3643  0.1993
16147W        W31278   4.694   1.812   0.674  0.0912 -0.0478 -0.0976
16148W        W31279   4.386   5.335   5.495  0.3294  0.2092  0.1714
16149W        W31280  11.649   0.709  10.791 -0.2521  0.0425 -0.1211
16150W        W31281   0.650   9.373   4.917  0.1471  0.2869  0.1799
16151W        W31282   7.865  12.055   2.528 -0.3169 -0.3141  0.2371
16152W        W31283  13.906  12.177   3.626  0.0961  0.2181  0.2213
16153W        W31284  15.494   6.105   1.205 -0.1982 -0.1306  0.2648
16154W        W31285  12.150  16.478   5.263  0.1206 -0.2020  0.0502
16155W        W31286   9.391   5.640  15.658  0.2101 -0.0062  0.1211
16156W        W31287  13.757  17.097   1.459  0.1209 -0.0256 -0.1246
16157W        W31288  12.427   8.863   6.013  0.4014 -0.1159  0.1052
16158W        W31289   2.537  14.895   0.289 -0.0237  0.1491  0.0484
16159W        W31290   5.173   4.847   5.685  0.3666 -0.0260 -0.1887
16160W        W31291  10.616   8.695  13.034  0.2329  0.1858 -0.1696
16161W        W31292  14.500   6.141   0.541 -0.1838  0.0973  0.0872
16162W        W31293  15.130   6.012   2.848 -0.1657 -0.0173  0.2621
16163W        W31294   4.083   6.074  15.182  0.0987  0.2859 -0.1834
16164W        W31295   4.524  11.346  13.107  0.2879  0.0265  0.0721
16165W        W31296  13.175   0.984  14.497  0.0427 -0.0452 -0.0648
16166W        W31297   0.623   7.848   4.217  0.0951  0.1131  0.1840
16167W        W31298   1.752  10.816   0.059  0.2441 -0.1523  0.1565
16168W        W31299  15.631  16.511  14.671 -0.3291  0.2850 -0.2144
16169W        W31300  10.423  15.500   1.486  0.1548  0.3388  0.0307
16170W        W31301  15.355  16.033  14.438  0.3368 -0.0056 -0.2270
16171W        W31302  10.007   1.530  14.089 -0.2815 -0.1147  0.1245
16172W        W31303   7.035   9.149   4.194  0.1356 -0.2108 -0.1840
16173W        W31304   1.601  15.297   5.871 -0.3173 -0.0733  0.0150
16174W        W31305   7.459   8.922  16.184 -0.0591 -0.3224  0.0472
16175W        W31306   7.952  17.195   2.750 -0.1564  0.2221 -0.1390
16176W        W31307   6.546  14.857  14.917 -0.2413 -0.0893 -0.1141
16177W        W31308   1.537  12.635  15.651 -0.2601 -0.2556 -0.2483
16178W        W31309   0.434  13.059  12.048  0.0519 -0.0734 -0.0319
16179W        W31310   7.490   4.009   0.976 -0.1096  0.3075 -0.0831
16180W        W31311  11.894  16.637  12.500  0.2954  0.0994  0.0305
16181W        W31312   9.715  12.574   5.478  0.0199  0.0378 -0.0203
16182W        W31313  12.016  14.824  12.058 -0.0878 -0.0894 -0.1008
16183W        W31314   2.225   7.754  14.111  0.0286  0.0544 -0.1329
16184W        W31315   8.555   4.924  16.810 -0.0815  0.0279  0.0635
16185W        W31316  13.468   8.823   5.086  0.1179  0.0301 -0.2238
16186W        W31317  13.182   4.630   1.054  0.0080  0.0836  0.0806
16187W        W31318   9.869   0.150   0.808  0.3527  0.2659 -0.0566
16188W        W31319  12.847  12.364  14.942  0.0485  0.2937 -0.1622
16189W        W31320   4.888  17.182   1.219  0.3052  0.0015 -0.2988
16190W        W31321   1.417   6.691   0.517 -0.1963 -0.3582  0.0863
16191W        W31322  15.217   3.900   5.125  0.0180 -0.1392 -0.0486
16192W        W31323  11.172  13.307   3.736  0.1307  0.1284  0.3266
16193W        W31324   4.751   6.157  16.563 -0.1852 -0.0487 -0.3469
16194W        W31325   2.941   3.634  13.929  0.0772 -0.1929  0.1258
16195W        W31326   0.465  15.856   4.660 -0.1769 -0.0158 -0.2101
16196W        W31327   0.918   5.115  14.066 -0.2156  0.0018  0.2643
16197W        W31328   4.974  13.874   3.164 -0.1063 -0.1244  0.0492
16198W        W31329  15.602   3.665   1.847  0.0517 -0.1852  0.0708
16199W        W31330   4.552   4.532  12.182 -0.0851 -0.0691 -0.2259
16200W        W31331   4.158   7.188   0.837 -0.1076 -0.2693  0.0206
16201W        W31332  16.949  14.736  12.834 -0.0225 -0.1000 -0.7901
16202W        W31333   7.581   4.602  12.593  0.0571 -0.0394  0.2680
16203W        W31334   3.623  13.315   1.607 -0.1777  0.1813 -0.0667
16204W        W31335   9.845  11.913   1.287 -0.1925 -0.0265  0.0201
16205W        W31336   8.522  10.029   2.346 -0.0460 -0.0875  0.0715
16206W        W31337  14.103   2.753   2.681  0.2492 -0.2883  0.0314
16207W        W31338   5.707  16.362  12.439 -0.1169 -0.0396  0.0668
16208W        W31339   3.611   2.638  15.763  0.1860  0.3365 -0.1225
16209W        W31340  14.355   5.858  15.763 -0.0941 -0.1489 -0.1092
16210W        W31341  11.506   2.761   2.378 -0.0248 -0.0788 -0.0659
16211W        W31342   2.407  16.037  13.327 -0.3226 -0.0688 -0.2726
16212W        W31343   8.857   8.467   0.845 -0.0186 -0.1531 -0.1985
16213W        W31344   0.103   1.857   2.151  0.0886  0.0941  0.2183
16214W        W31345   7.608   5.790   4.823  0.3051  0.1090  0.1038
16215W        W31346   8.143  14.843   3.835  0.0108 -0.0109  0.1910
16216W        W31347  11.796   6.925  11.429  0.0100 -0.3144 -0.0800
16217W        W31348   8.694  16.424   4.367 -0.3049  0.3249 -0.1765
16218W        W31349  11.954   4.916   0.097  0.0269  0.0708 -0.0328
16219W        W31350  14.415   0.091   5.001 -0.0375  0.0825 -0.0996
16220W        W31351   2.060   0.412   0.864 -0.1461 -0.1180 -0.3434
16221W        W31352   9.401  14.087  16.203 -0.0793 -0.1721 -0.0774
16222W        W31353   1.599  10.117  14.181 -0.0667 -0.0635 -0.0980
16223W        W31354  15.186  12.833  14.012 -0.1534 -0.1140 -0.1601
16224W        W31355   7.669   4.980   4.241  0.1860  0.1545 -0.3698
16225W        W31356   3.106   9.842   5.252  0.0273 -0.2394 -0.0439
16226W        W31357   5.041  10.094   5.193  0.0517  0.0832  0.1529
16227W        W31358   0.815  12.546  14.889  0.1015  0.2337  0.2281
16228W        W31359  14.604  15.046   1.609 -0.2902 -0.1929 -0.2041
16229W        W31360   0.068   5.291  15.402  0.2027  0.1173 -0.0862
16230W        W31361   9.126  16.598  15.099  0.0857 -0.0028  0.1029
16231W        W31362  15.144   5.465   3.425 -0.2168 -0.2977 -0.0814
16232W        W31363  10.732   0.532   1.179  0.0586  0.1338 -0.1494
16233W        W31364   3.305   3.251   1.852 -0.0786 -0.0076  0.5184
16234W        W31365  16.452  10.283  11.033  0.0681  0.1069  0.2221
16235W        W31366   7.619   1.962   2.389 -0.1198 -0.1158  0.0598
16236W        W31367  15.661   1.077   2.128  0.0740  0.0170 -0.0698
16237W        W31368  14.803   8.153  16.228  0.1379 -0.2030  0.0924
16238W        W31369   0.952  10.904   5.244 -0.4595 -0.1774 -0.2684
16239W        W31370   1.792   3.243  15.330 -0.4349 -0.1058 -0.0491
16240W        W31371   4.510   7.281   0.473 -0.1104 -0.0656  0.0460
16241W        W31372   4.074  17.495  13.857  0.1735 -0.2683 -0.0040
16242W        W31373  14.614  13.254   2.542 -0.1043 -0.0627 -0.0146
16243W        W31374  15.925  11.005  15.785 -0.2755  0.1608  0.1905
16244W        W31375  14.647   1.903  16.753 -0.0129 -0.1698 -0.0614
16245W        W31376  15.830  14.817  11.556  0.1914  0.2536 -0.2904
16246W        W31377   4.371  12.462   4.272 -0.1347 -0.0112 -0.0389
16247W        W31378   9.846   1.219   0.340  0.1456 -0.2068 -0.0484
16248W        W31379  17.260  16.163  15.476 -0.0854 -0.0702  0.1010
16249W        W31380  11.172  11.370  13.100 -0.0329  0.0845  0.1901
16250W        W31381  12.504   9.270   1.431 -0.2233  0.1052  0.0245
16251W        W31382   4.626   1.768  14.424 -0.0525  0.5212 -0.3947
16252W        W31383  10.967   7.849  12.239  0.1084  0.0181 -0.1961
16253W        W31384   5.008   6.268   4.029 -0.0393 -0.0103  0.2445
16254W        W31385   2.393   1.820  11.473 -0.0045 -0.2324  0.1880
16255W        W31386  13.805  14.529   1.335 -0.0720 -0.0572 -0.0113
16256W        W31387   2.168  10.072   4.618 -0.1710  0.0330  0.2205
16257W        W31388  10.237  11.197  10.945  0.0795  0.0390  0.1023
16258W        W31389  17.124  13.353   1.267  0.2979 -0.0680  0.0248
16259W        W31390   6.131   1.505   5.056  0.1159 -0.2522 -0.1026
16260W        W31391  14.266   8.225   4.256 -0.0660  0.0766  0.1943
16261W        W31392  12.838   7.513  16.485 -0.2653 -0.0993  0.1720
16262W        W31393  13.408   3.101   3.119  0.0908  0.1740 -0.0753
16263W        W31394  15.999  16.606  12.760  0.0047 -0.0853 -0.0172
16264W        W31395   1.567   6.539  12.308 -0.3030  0.0338 -0.2860
16265W        W31396   7.381  16.016   6.110  0.1765  0.2982  0.2119
16266W        W31397   2.459   9.761   1.115  0.1221 -0.1025 -0.0210
16267W        W31398   9.197   8.849   1.626  0.0352  0.3417 -0.1563
16268W        W31399   5.128   5.278   1.253  0.0899 -0.0055 -0.0607
16269W        W31400   4.804   9.279   4.899  0.0979 -0.0803 -0.0676
16270W        W31401  14.383   0.892   5.773  0.1109 -0.0409  0.0378
16271W        W31402   0.505   0.861   0.656 -0.2788  0.1117 -0.0035
16272W        W31403   5.627   2.377  12.396 -0.0104 -0.2334 -0.0881
16273W        W31404   5.009  15.426   1.139  0.0984  0.0861 -0.2595
16274W        W31405   6.295  14.078   4.985 -0.0251  0.2846 -0.2611
16275W        W31406   0.036   8.201  16.099  0.0228  0.0868  0.0426
16276W        W31407  13.255   8.505  13.921  0.2008 -0.0699  0.3728
16277W        W31408  13.039  16.256   6.581 -0.0981  0.0541  0.1647
16278W        W31409   7.826  10.646   0.809 -0.2272  0.1301  0.0379
16279W        W31410  11.723  11.040   2.421  0.0540  0.0621  0.0965
16280W        W31411   0.499  12.528  12.456 -0.1711  0.0963  0.0550
16281W        W31412   0.586  14.224  12.721 -0.1603 -0.0032  0.1558
16282W        W31413   5.113   9.834  16.544 -0.0788 -0.2318  0.0688
16283W        W31414   3.889   7.626  13.892  0.1249 -0.2201 -0.1013
16284W        W31415  10.474  12.676  12.959  0.1181 -0.0102 -0.1258
16285W        W31416  13.501   0.637  16.306 -0.1087  0.0320 -0.3813
16286W        W31417  15.347   7.941  14.388 -0.1328 -0.0817  0.0384
16287W        W31418  13.197   3.218  15.148  0.1029 -0.0082 -0.2552
16288W        W31419  16.236   7.524  16.334  0.0492 -0.0436 -0.4053
16289W        W31420  12.804  10.658   1.612  0.3678 -0.2149 -0.1420
16290W        W31421   4.699   1.398  12.608 -0.0484  0.1498  0.0555
16291W        W31422  16.677   3.739  11.134  0.0955  0.1929  0.2156
16292W        W31423   6.955   1.744  14.041  0.0813  0.1158 -0.1202
16293W        W31424  11.824   7.023  14.585  0.0372 -0.2494 -0.1548
16294W        W31425   4.647   1.741   1.993 -0.0045 -0.1868  0.2534
16295W        W31426   2.595   3.383   6.277 -0.3277  0.0384 -0.2204
16296W        W31427  11.953   3.589   1.520  0.0645  0.2567 -0.4741
16297W        W31428   0.150   6.825  14.788 -0.0689 -0.0125  0.0063
16298W        W31429  17.323  17.621  16.368  0.0560 -0.0692  0.1403
16299W        W31430   6.589  12.712  14.492  0.1615 -0.0926 -0.0142
16300W        W31431  16.992   7.676  14.211  0.1271 -0.2673  0.1277
16301W        W31432  12.569  17.578  13.450 -0.0154 -0.1567  0.1534
16302W        W31433   1.265   8.951   5.591  0.3230 -0.0101  0.1073
16303W        W31434   6.584  13.062  13.724  0.0482  0.3632  0.1561
16304W        W31435  11.136   5.367  12.228  0.1819  0.0823 -0.0445
16305W        W31436   6.435  13.790  12.789 -0.0691 -0.1915 -0.3691
16306W        W31437   9.094  13.248  15.549  0.0303  0.2311 -0.1321
16307W        W31438  17.661   1.367  12.789  0.0948  0.2267 -0.2257
16308W        W31439   2.996   6.790  13.947 -0.0020 -0.1391 -0.1949
16309W        W31440   5.892  10.311  12.393 -0.2478  0.2082 -0.2755
16310W        W31441   6.783  15.473   4.507  0.1418  0.4564  0.0111
16311W        W31442  11.808   2.680  14.292 -0.2921  0.1047 -0.1363
16312W        W31443   3.549  14.507   2.915  0.0632  0.2496  0.0329
16313W        W31444   8.071   7.235  14.417  0.1466  0.3335 -0.1614
16314W        W31445   9.005   4.303  12.298  0.1105 -0.0029  0.1159
16315W        W31446   2.062   9.126   0.011  0.1357  0.2434 -0.0177
16316W        W31447  10.830  16.779  15.515 -0.2217  0.2492 -0.1528
16317W        W31448   6.346   6.905   3.479 -0.1258  0.0175 -0.2096
16318W        W31449   1.408   8.943  12.292  0.2456 -0.1916  0.0942
16319W        W31450  14.861   1.375   3.081  0.0224 -0.2274  0.0330
16320W        W31451  10.973  12.434   2.463  0.2673  0.1360 -0.2527
16321W        W31452  11.736   9.591   1.186 -0.1821  0.0443  0.0196
16322W        W31453  14.269   1.193   0.376 -0.2190 -0.0791  0.1475
16323W        W31454   8.013   9.150   3.461  0.0775  0.0143  0.0336
16324W        W31455  12.965   1.475  13.112  0.0045  0.2133  0.0578
16325W        W31456  13.083   0.829   5.687  0.1088  0.1621 -0.0383
16326W        W31457  10.622   6.690   4.483  0.0266 -0.0123 -0.1777
16327W        W31458   1.312   8.613  14.340  0.2259 -0.1726 -0.1046
16328W        W31459   8.325   6.526   1.129  0.1048 -0.1963  0.0558
16329W        W31460  15.612  15.879   2.790 -0.1430  0.1256 -0.0516
16330W        W31461  15.774  10.079  11.993 -0.0492  0.0605 -0.0118
16331W        W31462   2.537  11.224   4.676  0.0249 -0.2452  0.0404
16332W        W31463   7.064   7.775  12.531  0.1820 -0.2100  0.1866
16333W        W31464   3.795   6.123  13.979  0.2099  0.0066  0.1560
16334W        W31465  10.241   6.969  13.742  0.0191 -0.1410  0.2220
16335W        W31466   6.849   1.243  13.882  0.0901 -0.2383 -0.2901
16336W        W31467  10.774   6.031   3.296 -0.1097  0.0009  0.0956
16337W        W31468   2.096   2.998  11.854  0.2765  0.2328 -0.2053
16338W        W31469  14.527  10.086   5.366 -0.0833  0.1677  0.2064
16339W        W31470   2.072   9.971   5.716  0.1692  0.0772 -0.0354
16340W        W31471   5.021   0.716  16.285 -0.1251 -0.3113 -0.0845
16341W        W31472  10.235   5.958  16.880  0.3538  0.0161 -0.1485
16342W        W31473  12.014   5.093   0.564  0.3545  0.1490  0.0635
16343W        W31474  15.800  12.099  13.491 -0.0811  0.1459 -0.1865
16344W        W31475   5.817   0.435  11.651  0.1557  0.0904  0.3250
16345W        W31476   2.755  13.548   5.128 -0.0200  0.0669  0.2198
16346W        W31477   0.947   1.449   2.159 -0.1655  0.2624 -0.0353
16347W        W31478  11.285   4.493   2.616  0.0209  0.1628  0.0370
16348W        W31479  12.916  11.429  13.974  0.2147 -0.1031 -0.0568
16349W        W31480  13.466   4.277  13.253 -0.1344  0.0975  0.0394
16350W        W31481   6.611   8.510  15.945 -0.3028  0.0598  0.1191
16351W        W31482   6.397  11.363  13.298  0.0443  0.0551  0.3053
16352W        W31483   5.341  13.076  16.603  0.0683 -0.0314 -0.1211
16353W        W31484   1.183  14.685  14.733 -0.0217  0.0058 -0.1248
16354W        W31485  16.019  10.849   1.738  0.0850  0.1464 -0.0667
16355W        W31486  17.067   8.610   3.903  0.3477  0.1523 -0.0226
16356W        W31487  17.670  15.941  12.055  0.0404  0.1978  0.1382
16357W        W31488  12.537   3.904   0.496 -0.1224  0.1567 -0.0367
16358W        W31489   4.882   4.296   0.166 -0.2658 -0.1253 -0.2389
16359W        W31490   4.256   4.700   4.776 -0.0298  0.0733 -0.1199
16360W        W31491  14.473   3.113  12.278 -0.1813 -0.3475  0.0615
16361W        W31492  14.983  12.616   1.375 -0.1972 -0.0553 -0.1706
16362W        W31493  10.040   6.969  14.692  0.1142  0.1168  0.0540
16363W        W31494   5.102  13.184   4.425 -0.2301  0.2375  0.2624
16364W        W31495  11.882   2.290   2.439 -0.1776  0.1737  0.1351
16365W        W31496  15.688   5.359   4.163  0.0738 -0.0082  0.1718
16366W        W31497  11.111   3.400   1.668  0.0208 -0.1838  0.2015
16367W        W31498  17.417  11.863   4.662 -0.0876  0.0999 -0.1270
16368W        W31499  10.420   5.194   0.173 -0.0182 -0.2186 -0.0719
16369W        W31500   2.399  14.994  12.298 -0.0706  0.0769 -0.2912
16370W        W31501   0.011  11.760   1.553  0.1984  0.0791 -0.4211
16371W        W31502   8.059   5.677   1.045  0.0038 -0.1776 -0.0604
16372W        W31503  17.126  12.776   0.031 -0.2362 -0.3364  0.1392
16373W        W31504   2.125  15.689   4.449 -0.0539  0.4102  0.0479
16374W        W31505  10.612   0.524   2.062 -0.0899  0.0480 -0.3188
16375W        W31506   4.273   6.209   1.262  0.4276 -0.0854 -0.1266
16376W        W31507   4.957   1.158   5.514  0.0965  0.1082 -0.2154
16377W        W31508   8.564   4.924   2.193  0.0999  0.0767  0.0989
16378W        W31509   0.868   1.370  14.663 -0.2694  0.0635 -0.0931
16379W        W31510   4.475   0.845  15.590 -0.0057 -0.0128 -0.3113
16380W        W31511   6.004   1.597   1.563 -0.0136 -0.1666  0.1583
16381W        W31512  14.155   6.066  16.159 -0.3283  0.1032  0.1206
16382W        W31513   7.993  15.330   4.245  0.0169 -0.2031 -0.2067
16383W        W31514  14.111   3.135   0.661 -0.2162  0.2062 -0.1200
16384W        W31515  11.665   3.606   2.476 -0.0657 -0.2836  0.1071
16385W        W31516   8.614  12.303   5.896 -0.0885  0.1451  0.1742
16386W        W31517   0.150  14.206   4.070 -0.1158 -0.0205  0.0765
16387W        W31518   5.921  15.927  11.795  0.0293 -0.0161 -0.0494
16388W        W31519   7.282  15.022   6.108  0.0291  0.4001  0.0972
16389W        W31520  10.547  17.397   1.798 -0.1128  0.1844  0.1301
16390W        W31521   9.702   7.670   3.009  0.2820  0.0765 -0.1863
16391W        W31522  13.289   3.863  12.461  0.1384  0.2525  0.2983
16392W        W31523   9.318  10.172  13.447 -0.1380 -0.4996 -0.2885
16393W        W31524  10.987   9.493   2.933  0.2637 -0.1701 -0.0565
16394W        W31525   0.906   0.455   0.958 -0.2040 -0.1197  0.2769
16395W        W31526  13.618   4.817   2.993 -0.4283  0.2089 -0.0089
16396W        W31527   1.987   5.840   4.432 -0.5355 -0.0010  0.1424
16397W        W31528  14.501   5.520  12.414 -0.0381 -0.1015  0.0311
16398W        W31529   6.787   1.031  13.446 -0.1893 -0.2058  0.1144
16399W        W31530  11.895  13.366   2.971  0.0675  0.0942 -0.4120
16400W        W31531  14.525   9.415  15.551 -0.0536 -0.0619  0.4925
16401W        W31532  16.730   8.005  15.142  0.1629  0.3924 -0.1152
16402W        W31533  14.062   3.026   2.018  0.1473 -0.2211 -0.0277
16403W        W31534  14.573  11.190  12.634 -0.1050 -0.0668  0.0955
16404W        W31535   8.422   0.724  16.475 -0.3637 -0.0993 -0.1447
16405W        W31536   3.153   0.916  14.161 -0.0617  0.0378 -0.2287
16406W        W31537   6.455   7.703  13.240  0.2414 -0.2074  0.0481
16407W        W31538   1.664  17.244  12.145 -0.1830  0.4006 -0.1200
16408W        W31539  10.829   1.768   1.166 -0.1161 -0.0631 -0.2918
16409W        W31540   4.013   4.692   2.581  0.0814  0.1157 -0.0036
16410W        W31541  11.127  14.913   6.184  0.0842  0.4721  0.1032
16411W        W31542   2.282   9.608  15.302 -0.0005  0.1463  0.0807
16412W        W31543   1.505   9.807   0.084  0.0037  0.1844  0.3159
16413W        W31544   6.106   8.091  12.439 -0.0088  0.1962  0.0007
16414W        W31545   5.323   8.139   2.140 -0.3222  0.1466 -0.0504
16415W        W31546  12.344   7.952  11.145  0.0859 -0.1675 -0.0365
16416W        W31547   2.282   2.736   2.901 -0.1136 -0.1807  0.0280
16417W        W31548   1.302   5.110  11.738 -0.2192 -0.0633  0.1296
16418W        W31549  10.814  14.000   0.639 -0.1301  0.1191 -0.4082
16419W        W31550   1.026   7.854   2.978  0.3154 -0.2025 -0.0943
16420W        W31551   8.612   8.346  16.092 -0.3842 -0.3000  0.2343
16421W        W31552   9.583   7.150   5.517 -0.0373 -0.1753  0.1278
16422W        W31553   9.103   2.601  12.019  0.0167  0.0425 -0.1744
16423W        W31554  12.604  11.102   0.376 -0.2441  0.0795  0.0380
16424W        W31555  15.391   6.201  14.171 -0.1985 -0.1832  0.2851
16425W        W31556  10.802   2.204   3.141 -0.3071 -0.3836 -0.1901
16426W        W31557  10.717  11.309  12.933 -0.1230  0.4094  0.1381
16427W        W31558  14.584   8.121  12.474 -0.0288 -0.1517  0.0558
16428W        W31559  12.690   6.975  16.030 -0.0235  0.0427  0.1977
16429W        W31560   5.136   8.557   4.352  0.1015  0.0171 -0.0069
16430W        W31561   9.754  10.924  16.413  0.1000  0.0938  0.1034
16431W        W31562  13.151   6.270  13.655 -0.1002  0.0094  0.0416
16432W        W31563   3.045  17.098   1.074  0.0896 -0.2457  0.1233
16433W        W31564  12.280  17.439   4.211  0.0642 -0.1660  0.0725
16434W        W31565  16.072  17.687  13.418 -0.3934  0.2345 -0.0952
16435W        W31566   3.585  16.207   1.606  0.5266 -0.2203  0.3466
16436W        W31567   6.808  13.002  13.230  0.1682  0.0392  0.2172
16437W        W31568   7.760  10.617   5.799 -0.1121  0.0204  0.2512
16438W        W31569  16.668   3.259   0.863  0.0930  0.0247  0.2194
16439W        W31570  10.581  17.277  12.451 -0.0268  0.1046 -0.4890
16440W        W31571   1.969  11.776  16.877 -0.0884 -0.0200  0.3163
16441W        W31572   1.822  16.030   4.723 -0.1302 -0.0799 -0.0059
16442W        W31573  12.949  16.131  13.339 -0.2281 -0.2788  0.0796
16443W        W31574  11.934   5.713  11.500 -0.1707  0.0987 -0.0642
16444W        W31575  10.695  16.048  11.989  0.1575 -0.0028  0.0908
16445W        W31576  10.419  17.257  15.617 -0.1671 -0.1938 -0.0969
16446W        W31577   5.536   1.809   4.130  0.1632 -0.1959 -0.4157
16447W        W31578   7.810   7.856   0.114  0.0447  0.0112 -0.2801
16448W        W31579  14.239   1.919   3.267  0.0851 -0.1361 -0.4043
16449W        W31580   9.387  13.420  14.565 -0.1536  0.0192 -0.0451
16450W        W31581  10.225  16.085   4.098 -0.1977 -0.1581  0.2460
16451W        W31582  10.749   4.319   0.052 -0.1059 -0.2532  0.0415
16452W        W31583  12.202  11.511  11.154 -0.2997 -0.2602  0.0588
16453W        W31584  15.317   3.470  14.258  0.0163  0.2042  0.2908
16454W        W31585   1.273   7.294  14.057  0.0003  0.1357  0.2584
16455W        W31586   3.967  16.268  16.677  0.3086  0.1194  0.0096
16456W        W31587   0.593   0.486   4.876  0.1422 -0.4651  0.0803
16457W        W31588   6.402  17.454   5.413  0.1224 -0.0119  0.0527
16458W        W31589  13.958   4.766  11.185 -0.1481  0.1452  0.3072
16459W        W31590   8.291   7.017   4.977 -0.1129 -0.1035  0.2326
16460W        W31591  12.679  12.320  13.696  0.0204 -0.1154  0.2931
16461W        W31592   7.678   6.619   4.606  0.2569 -0.0360  0.0413
16462W        W31593   5.492   9.247   3.248 -0.5318 -0.0090  0.0665
16463W        W31594  13.797   5.829   1.748  0.0636 -0.1501  0.0654
16464W        W31595   0.625  10.492  14.854  0.1389  0.0981 -0.2806
16465W        W31596   4.250   3.200  12.359 -0.1037 -0.0973  0.1383
16466W        W31597  16.163  13.133  10.528 -0.0490 -0.0012 -0.1078
16467W        W31598   1.662   5.902   0.610 -0.1472 -0.0158 -0.2230
16468W        W31599  13.275   5.311   3.815  0.3815 -0.0963 -0.2848
16469W        W31600  10.798   9.418   2.112  0.1925  0.0538  0.1187
16470W        W31601  17.003   5.088  12.677  0.0756 -0.2834  0.0707
16471W        W31602  15.587   3.142  14.505 -0.3751 -0.1600  0.3347
16472W        W31603   7.500  13.696   4.747 -0.2757 -0.0149 -0.4800
16473W        W31604  10.115   8.118  11.488 -0.1424  0.4402  0.1215
16474W        W31605   7.546   3.462   0.863  0.3726  0.0554  0.1056
16475W        W31606   6.897  15.162   3.542  0.1364  0.0729 -0.1005
16476W        W31607  17.383  14.654   2.009  0.4074  0.0090 -0.2085
16477W        W31608  10.023   9.981  12.696  0.1411 -0.3296  0.4452
16478W        W31609   2.385  10.017   0.613 -0.0840  0.1566 -0.1678
16479W        W31610  15.177  15.677   2.925  0.0055  0.0346  0.1866
16480W        W31611  13.263   8.026  14.439  0.2455  0.2275 -0.3301
16481W        W31612   6.467   0.877   6.201 -0.0631  0.1006  0.1247
16482W        W31613   4.104   1.789   2.116 -0.0463  0.1680 -0.0991
16483W        W31614  12.579   5.579  15.368  0.0130  0.1750  0.1290
16484W        W31615  12.969  14.893   3.587 -0.2351 -0.0008 -0.3047
16485W        W31616   2.298   8.977  15.293 -0.0982 -0.5386 -0.2538
16486W        W31617   7.390   2.665  10.708  0.1212 -0.3385  0.3180
16487W        W31618  11.351  10.007   1.145 -0.0113 -0.2873 -0.1030
16488W        W31619  13.204   2.095  13.617  0.0407 -0.0560  0.2859
16489W        W31620   4.913  12.407  14.014  0.0569 -0.0302  0.2652
16490W        W31621   3.227  16.360  15.746  0.1377 -0.3725 -0.0693
16491W        W31622  13.873  10.364  12.248  0.0163  0.0041 -0.0465
16492W        W31623  17.487  11.874   0.766 -0.0583 -0.0203  0.0327
16493W        W31624  15.132   0.861   3.801  0.1043  0.0525  0.3648
16494W        W31625   9.399   8.557   3.199  0.0308 -0.2305 -0.0371
16495W        W31626   7.008   8.613  15.721 -0.2160  0.0757  0.0434
16496W        W31627   8.529  11.821  11.198  0.1561 -0.1483  0.1182
16497W        W31628   5.033  15.373   3.918 -0.0283  0.0870 -0.0834
16498W        W31629  14.291   0.081   5.528 -0.2521  0.1666  0.1012
16499W        W31630   2.221   5.451  15.697  0.1620  0.1680 -0.0274
16500W        W31631   9.841  10.923   4.693 -0.1725 -0.1386 -0.1128
16501W        W31632   8.391  12.149  16.550  0.0073 -0.1137 -0.1108
16502W        W31633   1.945  13.626   5.635 -0.2466  0.3369 -0.0912
16503W        W31634  17.170  16.649   0.271 -0.2982 -0.0501 -0.1383
16504W        W31635   3.788  13.590   5.746 -0.1118 -0.1462  0.0202
16505W        W31636   2.912   0.424   0.889 -0.3361 -0.0966  0.0765
16506W        W31637  15.317   2.339  14.870 -0.1931 -0.0770 -0.4138
16507W        W31638   0.972   2.937  14.714  0.0283 -0.1872  0.4663
16508W        W31639   6.315   5.578   1.434 -0.0948 -0.0193 -0.3719
16509W        W31640   1.627  16.680   5.113 -0.2686  0.3794  0.0689
16510W        W31641  14.277  12.472   3.837  0.1652  0.0346 -0.1907
16511W        W31642   9.774   1.711   0.157  0.0862 -0.0895  0.1312
16512W        W31643  10.393   9.755   1.798 -0.2517 -0.2081  0.1453
16513W        W31644   4.391   0.518  13.523  0.1329 -0.1326  0.1124
16514W        W31645  14.968   9.751   5.313  0.0283  0.0507 -0.1829
16515W        W31646   9.403   5.959  16.551  0.1169  0.0871 -0.2005
16516W        W31647   8.891  12.457   1.472 -0.1743  0.1104  0.0815
16517W        W31648   2.547  17.636  11.823 -0.0626 -0.2715 -0.0222
16518W        W31649   6.127  11.583   3.387  0.1257 -0.0798  0.0477
16519W        W31650   5.692   4.093   3.219  0.1086 -0.2817 -0.0795
16520W        W31651  17.275  15.847  14.514  0.0487  0.0079 -0.2496
16521W        W31652   6.637  16.139   5.824  0.2097 -0.2020 -0.1115
16522W        W31653   0.383  12.727  13.021  0.3934 -0.2253 -0.0028
16523W        W31654   4.802   3.195   1.959 -0.1742  0.0898 -0.3588
16524W        W31655   4.059   3.917   3.239 -0.2449  0.0428  0.1697
16525W        W31656  15.842   2.840   6.083 -0.3398 -0.1284  0.1301
16526W        W31657  15.019   9.566  11.725  0.1767 -0.0449  0.0942
16527W        W31658   2.558   9.484  13.951  0.0104 -0.1941  0.0500
16528W        W31659   8.512   9.321  14.096 -0.1461 -0.0198  0.0700
16529W        W31660   0.987  16.560   0.204 -0.2815 -0.0601 -0.3915
16530W        W31661   2.136  16.165  15.507  0.0623 -0.0055  0.0412
16531W        W31662   5.076   6.725   0.815 -0.1099  0.1234 -0.2751
16532W        W31663  15.042   7.566  13.064  0.1051 -0.0009  0.3560
16533W        W31664  15.037  11.160  13.907  0.0970 -0.0324 -0.0144
16534W        W31665  12.670   4.252   5.562 -0.0730  0.1200  0.0430
16535W        W31666   5.358   4.041   4.175  0.2989 -0.1007 -0.3005
16536W        W31667   2.884   8.624   2.908  0.2810 -0.2756  0.0515
16537W        W31668   5.941  12.757  16.775  0.0081 -0.0381 -0.0102
16538W        W31669  14.437   8.270   0.636 -0.0360  0.4279  0.1209
16539W        W31670   3.223   5.201   1.581  0.4805 -0.0777  0.0499
16540W        W31671   5.928   1.130   1.018 -0.0667  0.2116  0.2629
16541W        W31672   6.688  10.788  16.256  0.0726 -0.3130  0.0174
16542W        W31673   8.208   3.663  13.515 -0.3132 -0.0172 -0.0695
16543W        W31674   7.934  15.920   6.640  0.0665  0.1391 -0.2388
16544W        W31675   6.273  15.486   0.875  0.0218  0.3409  0.1979
16545W        W31676   1.406   2.439  11.848  0.0222 -0.1464 -0.0655
16546W        W31677   4.160   3.312  16.151  0.1363  0.2303 -0.0214
16547W        W31678   2.432  15.604  16.800 -0.0767  0.3032  0.0235
16548W        W31679   7.192   0.074  13.418  0.0872 -0.1542  0.1989
16549W        W31680   3.102  10.176  14.033 -0.0172 -0.2528 -0.1925
16550W        W31681   7.048  12.517  11.807 -0.0291  0.1025  0.0754
16551W        W31682  13.290   1.171   1.709 -0.0536  0.3631  0.1415
16552W        W31683  17.667  12.478  14.931 -0.3439 -0.1632 -0.0665
16553W        W31684   9.439  10.233   1.071  0.3942  0.2241 -0.1583
16554W        W31685   7.771   0.045   0.407 -0.1566 -0.1301  0.2607
16555W        W31686   1.369   2.217   2.957 -0.0051  0.2372  0.0667
16556W        W31687  13.356  15.610  16.468 -0.4109 -0.0832  0.1682
16557W        W31688   5.410   4.657  13.768 -0.1545  0.3368  0.3963
16558W        W31689   3.494   9.122   5.025  0.0832 -0.0182  0.0897
16559W        W31690   3.525   3.366   2.259 -0.2116 -0.0384  0.0492
16560W        W31691   1.612   3.031   5.376 -0.1371 -0.0696 -0.0485
16561W        W31692   0.120   2.548  13.381  0.0490  0.0873 -0.0024
16562W        W31693   4.430  11.638  13.522  0.1159  0.1820  0.0640
16563W        W31694  11.981   4.770   5.191  0.1189  0.1681 -0.2977
16564W        W31695  14.148  17.402   4.805  0.2252  0.1022 -0.2780
16565W        W31696  12.190   0.872   2.669  0.0460  0.0464  0.1633
16566W        W31697   7.889   0.854  14.750 -0.0421 -0.0323  0.2592
16567W        W31698   7.874   7.666  14.249 -0.3212 -0.1451  0.0374
16568W        W31699  11.635   6.510   0.491 -0.0089  0.0196  0.0432
16569W        W31700   3.278   4.108   5.477 -0.0764  0.3873 -0.0319
16570W        W31701  15.279   9.833  13.548 -0.0695  0.0017 -0.1468
16571W        W31702   5.326   2.246   4.180 -0.4073 -0.0687  0.0376
16572W        W31703  10.919   6.281   4.635  0.0697 -0.0258  0.0801
16573W        W31704   9.261  13.820  13.625 -0.1992 -0.0041  0.2244
16574W        W31705  14.034   2.371  15.870 -0.2312  0.4510  0.2609
16575W        W31706   2.444   7.874   3.110 -0.1593 -0.0026  0.0176
16576W        W31707   8.581  10.558   4.654 -0.0921 -0.1480  0.0356
16577W        W31708   5.716  11.054   3.957 -0.0814 -0.0910 -0.2004
16578W        W31709  14.885   3.275  14.453  0.1044 -0.0295 -0.2496
16579W        W31710   0.718   3.229   2.367 -0.1760 -0.1107  0.0142
16580W        W31711   1.313  10.096   1.915 -0.1225  0.2284  0.1225
16581W        W31712  14.953  12.811   3.316  0.0023  0.1069 -0.2604
16582W        W31713   2.058   9.953  13.886 -0.1015  0.2248 -0.0807
16583W        W31714  16.567   4.301   4.251  0.0251  0.0124  0.4579
16584W        W31715  16.529   6.646  11.085 -0.2285  0.0643 -0.1220
16585W        W31716   3.132   3.370   3.893  0.1459  0.0700 -0.3031
16586W        W31717  12.420  10.703  12.195  0.0440  0.4130  0.2437
16587W        W31718   2.733  16.380   4.723 -0.0254  0.0289 -0.3683
16588W        W31719   9.395  15.930  16.217  0.3200  0.1309  0.0852
16589W        W31720   4.563   6.596  11.366  0.0388  0.0870 -0.2296
16590W        W31721   5.120  12.999   2.080 -0.0956 -0.0906  0.0372
16591W        W31722   5.948   7.861   5.738  0.2102  0.4177 -0.1834
16592W        W31723  10.774   0.893  14.173  0.0289  0.2688 -0.0320
16593W        W31724   9.358  10.003   2.882 -0.1223  0.0669  0.0899
16594W        W31725   8.734  14.821  16.258  0.5102 -0.1441 -0.0349
16595W        W31726   3.403  10.093   5.833  0.2608 -0.1242  0.0322
16596W        W31727   3.840   3.124   1.010  0.0613  0.2846 -0.0723
16597W        W31728   6.003   1.742   3.612  0.0899 -0.3178 -0.1075
16598W        W31729   5.801  16.123   2.897 -0.3629  0.0170 -0.0862
16599W        W31730   0.696  15.486  13.070  0.0413 -0.3311  0.1690
16600W        W31731  17.565  13.171   1.067  0.0079 -0.0120 -0.1465
16601W        W31732  12.755   0.772  13.617  0.0994 -0.2362 -0.2158
16602W        W31733   1.468   7.076   4.935  0.0878  0.0007  0.0495
16603W        W31734   0.228   1.999  15.996  0.3037  0.3524  0.3306
16604W        W31735  12.797   7.009   3.420 -0.2423  0.0412  0.0193
16605W        W31736   6.974  10.368  12.929  0.0665  0.0939 -0.1833
16606W        W31737   8.486  15.314  15.480 -0.0047 -0.1099 -0.3168
16607W        W31738  13.283  13.304  15.483 -0.1239  0.1372 -0.1037
16608W        W31739   7.947   8.525  12.512  0.2556 -0.3475  0.0212
16609W        W31740  11.633   1.275  14.357  0.0964 -0.1143 -0.1206
16610W        W31741  13.337  14.384  16.599 -0.2993  0.3065 -0.1199
16611W        W31742  12.442  14.661   0.681  0.3995  0.1352 -0.0963
16612W        W31743   0.675   7.810   0.988  0.3158 -0.2199  0.0493
16613W        W31744  16.042  15.192  14.364 -0.0692 -0.2217  0.1439
16614W        W31745   9.830   0.862  14.738  0.1454 -0.1554  0.1801
16615W        W31746   5.270  12.112   4.407  0.1243  0.3219 -0.1127
16616W        W31747   5.258  17.393  12.611  0.0159  0.0254  0.1124
16617W        W31748   3.678   9.269   5.572  0.4140  0.1907 -0.1584
16618W        W31749  16.745   7.097  10.917  0.0696  0.0998 -0.1903
16619W        W31750  17.310   3.605  15.457  0.1717 -0.1918  0.2093
16620W        W31751  13.329   5.570   5.109  0.0824  0.1565  0.1301
16621W        W31752  14.909   2.894   1.799  0.0357  0.2642  0.0283
16622W        W31753   1.550   6.813  15.692 -0.0328  0.2785  0.0505
16623W        W31754   2.372   7.018   0.611 -0.1914 -0.0586 -0.0159
16624W        W31755   1.398   6.954   0.985 -0.0392 -0.0466 -0.1110
16625W        W31756   5.556   8.389   5.176  0.1406 -0.0119  0.1192
16626W        W31757   2.006   1.144   5.677 -0.0654 -0.1510 -0.0356
16627W        W31758   0.227   0.918   1.665 -0.1323  0.1911  0.1793
16628W        W31759  14.733  15.893   1.576 -0.4961 -0.1112 -0.0039
16629W        W31760  13.349  11.506   2.574  0.3204 -0.1135 -0.0503
16630W        W31761   6.844   7.411  14.505 -0.0310 -0.1334 -0.1156
16631W        W31762   9.900   6.127  14.836 -0.0335 -0.0420 -0.1303
16632W        W31763   0.585   2.264   3.910 -0.2882 -0.0512  0.2090
16633W        W31764  12.593  13.945   1.426 -0.1717  0.0145 -0.2436
16634W        W31765  14.979   9.875   2.335 -0.1669  0.3373 -0.1951
16635W        W31766  14.116   3.344   3.977 -0.0723 -0.1998 -0.1988
16636W        W31767   7.232   5.102   4.461  0.1326 -0.0302  0.0557
16637W        W31768   8.323   7.958  15.190  0.3266  0.0348 -0.2465
16638W        W31769   7.232  11.933   1.667 -0.0676  0.1439  0.0054
16639W        W31770  11.995   7.514  12.827 -0.0502  0.3802 -0.0035
16640W        W31771  14.367   1.035  11.565 -0.0705 -0.2352 -0.1118
16641W        W31772   2.893   1.833  13.780 -0.1719 -0.2470 -0.1397
16642W        W31773   4.544  10.233  11.640 -0.1782  0.0162 -0.0337
16643W        W31774   1.246  13.304  14.650 -0.0024 -0.0565  0.1508
16644W        W31775   0.197  10.620  15.196  0.0515 -0.1065 -0.1371
16645W        W31776   4.594  15.795  11.993 -0.0119  0.0838 -0.0788
16646W        W31777   3.102   0.128   3.048  0.1940 -0.0527 -0.1928
16647W        W31778  10.496   6.752   1.839  0.0734 -0.0465 -0.1039
16648W        W31779   6.183  15.265   1.313 -0.2071  0.1146 -0.4398
16649W        W31780   0.575   2.659   0.159 -0.5541 -0.0068  0.0118
16650W        W31781  10.151  14.519   1.314 -0.0798  0.0944 -0.2637
16651W        W31782  16.050   3.132   2.478  0.1474 -0.1496  0.0437
16652W        W31783  15.723   5.388   2.761 -0.2594 -0.2407  0.1754
16653W        W31784  15.328  13.497  11.657 -0.1471 -0.3971 -0.0514
16654W        W31785  10.762  15.958  14.630  0.2066  0.0138 -0.0222
16655W        W31786  14.603   2.206  13.331 -0.0142 -0.0098  0.0252
16656W        W31787  15.348   0.089  12.950 -0.1557  0.1856 -0.0729
16657W        W31788   0.515  13.225  15.474  0.0083 -0.1093 -0.1966
16658W        W31789  15.627   9.828   4.297 -0.0063  0.4070 -0.0621
16659W        W31790  15.590   6.733  15.986 -0.0116 -0.3163  0.1722
16660W        W31791   9.055  14.535   3.755 -0.3187 -0.2865  0.0039
16661W        W31792   1.171   6.827   1.441  0.0317 -0.0016 -0.2313
16662W        W31793  14.384  13.648   1.151 -0.2862  0.3627  0.1269
16663W        W31794   3.644   9.013  13.309  0.0888 -0.2042 -0.0720
16664W        W31795  14.347   8.800  12.211  0.1337  0.0166 -0.0681
16665W        W31796  10.056   7.693   4.299 -0.2273 -0.1780 -0.0015
16666W        W31797   5.428   5.801   1.158 -0.3404 -0.3403  0.0476
16667W        W31798   4.944   9.077   3.168 -0.0636 -0.1220  0.0877
16668W        W31799  10.079   3.783   1.901 -0.0427  0.0661  0.0415
16669W        W31800   8.451   1.378   1.297  0.0273 -0.2052  0.1613
16670W        W31801  11.779   3.000   5.478 -0.1450  0.0946  0.0649
16671W        W31802  11.822   3.190  15.796 -0.3750 -0.0832  0.1773
16672W        W31803  13.408  16.463   0.770 -0.1847  0.1701  0.1762
16673W        W31804  10.315  11.265  12.668 -0.0942  0.2116  0.0767
16674W        W31805   9.980   3.667   4.520  0.3022  0.4462 -0.1286
16675W        W31806   5.604  12.018   6.219 -0.2780  0.0177 -0.4491
16676W        W31807   4.930   2.150  14.938  0.0130 -0.1491  0.1071
16677W        W31808   6.436  11.801  13.527 -0.0250 -0.2289  0.1587
16678W        W31809   6.685   6.205  15.341  0.1746 -0.2266 -0.3859
16679W        W31810   1.819   3.559  11.485 -0.0912 -0.0200  0.0486
16680W        W31811  11.690   0.677  12.637  0.4653  0.0434  0.0657
16681W        W31812   4.350  14.998  13.665 -0.1060 -0.2660  0.0920
16682W        W31813  12.212   0.074  13.152  0.1846  0.0531 -0.0639
16683W        W31814  12.397  16.013   2.294  0.0319  0.0003 -0.3576
16684W        W31815   1.067  17.419   3.235  0.2732 -0.1801 -0.4166
16685W        W31816   1.423  12.864  11.835  0.0197 -0.0696  0.0297
16686W        W31817  17.218   8.822  12.037 -0.1630  0.0323  0.0512
16687W        W31818   7.890   4.310   0.757 -0.0774 -0.1650  0.3657
16688W        W31819  12.835  13.781   6.520 -0.1223  0.0540  0.1710
16689W        W31820   5.931   3.837  12.428  0.3132 -0.1196  0.1720
16690W        W31821  11.362   2.837   2.866 -0.0536  0.2248 -0.2132
16691W        W31822   5.088   2.473  13.373  0.0079  0.0218 -0.0811
16692W        W31823   5.654   2.968   4.851  0.0783 -0.2440 -0.1289
16693W        W31824   9.262   3.623  13.432 -0.0331 -0.1141 -0.1627
16694W        W31825   1.463   5.383  14.054 -0.1688 -0.1718  0.0152
16695W        W31826  11.601   2.581   3.293 -0.0002  0.1952  0.0426
16696W        W31827  16.755  10.601   3.828 -0.1510 -0.2046  0.0172
16697W        W31828   7.510   7.186   5.298 -0.0421 -0.0287  0.2128
16698W        W31829   7.346  14.230   4.171 -0.1395  0.1615 -0.1138
16699W        W31830  11.374   6.355  12.134 -0.0869  0.0590  0.0201
16700W        W31831   8.695  15.136   5.879  0.1846  0.2814  0.0570
16701W        W31832   2.643   3.509  14.476 -0.0312  0.3126  0.2024
16702W        W31833   3.675  14.842  14.678  0.0733 -0.0017 -0.0153
16703W        W31834   7.523   8.119  13.634  0.0485 -0.0175  0.2613
16704W        W31835  16.794   5.454   0.230  0.0864 -0.0775 -0.0807
16705W        W31836   4.192   6.866   5.498  0.0337 -0.0576 -0.0315
16706W        W31837   1.255   9.961  16.420  0.1224  0.2038 -0.1539
16707W        W31838  13.367  15.174   4.889  0.0030 -0.0247 -0.0187
16708W        W31839   3.204   5.607  10.173  0.1352  0.0329  0.1938
16709W        W31840   1.690   6.245  15.480 -0.0406 -0.2214 -0.1685
16710W        W31841  10.280   4.304  13.591  0.0861 -0.1521  0.1742
16711W        W31842   6.451  15.223   5.389  0.0341  0.2272  0.1707
16712W        W31843  17.677  13.385   3.442  0.2593  0.1203  0.0669
16713W        W31844  12.286   3.898   2.759  0.1815  0.1679  0.2301
16714W        W31845   7.491   7.598   4.855 -0.0309  0.3271  0.2452
16715W        W31846  17.135  13.691  14.589  0.2922  0.0158 -0.2644
16716W        W31847   9.794   4.266  13.836 -0.0245  0.1035  0.1932
16717W        W31848  14.377   5.348   2.277  0.2349 -0.0752  0.1797
16718W        W31849   3.222   3.166  12.021 -0.2706  0.1825 -0.1230
16719W        W31850  10.452   8.857  15.243  0.0103  0.2940 -0.0379
16720W        W31851   2.121  12.542   3.468 -0.1058  0.0944 -0.0565
16721W        W31852   9.709  15.576   2.287  0.1254 -0.3450  0.3479
16722W        W31853   1.821  12.198  14.047 -0.0518  0.1161 -0.1715
16723W        W31854  17.460   8.364  15.712 -0.0793 -0.0441 -0.1922
16724W        W31855  15.829   7.121  12.129 -0.0660  0.0084 -0.0484
16725W        W31856  16.949  14.941   4.865 -0.1166  0.0589 -0.2813
16726W        W31857   6.378  10.672   4.334  0.2251 -0.3671  0.2211
16727W        W31858   0.354  11.260  14.539 -0.1342 -0.1945 -0.0700
16728W        W31859   1.226  12.047  16.938  0.1841  0.0744  0.2537
16729W        W31860   3.284   0.694  12.486 -0.1118  0.0277 -0.1090
16730W        W31861   9.715   2.097   4.066  0.0772  0.0396 -0.0486
16731W        W31862   9.066   7.184   1.146 -0.2169  0.0454 -0.1547
16732W        W31863   6.783  11.858  12.425  0.2228  0.1185  0.2087
16733W        W31864  14.998   3.386  11.200  0.1189 -0.1157 -0.0311
16734W        W31865   1.489  11.168   0.337  0.0407 -0.0756 -0.1006
16735W        W31866   6.334   9.633   0.579 -0.3034  0.0857  0.2965
16736W        W31867  13.960   1.468  14.604  0.1768 -0.1804  0.2633
16737W        W31868  14.866   0.730   1.177 -0.0073  0.1093  0.1069
16738W        W31869   6.991   4.693  14.180  0.0094 -0.0664  0.1671
16739W        W31870   2.987   6.603  12.885  0.2398 -0.1239  0.2750
16740W        W31871  15.805   4.010   4.275 -0.3347 -0.0089  0.3052
16741W        W31872   5.245  11.043   3.670  0.3465 -0.0168 -0.0552
16742W        W31873  15.641  10.644   0.608  0.0520  0.0354  0.0318
16743W        W31874   6.333   2.622   4.547 -0.0170 -0.0076 -0.0114
16744W        W31875  15.816  11.601  13.720  0.1159  0.1601 -0.1388
16745W        W31876   4.988   4.839   0.184  0.1683  0.2329  0.0728
16746W        W31877   2.074   8.064   4.512  0.1840 -0.0073  0.0031
16747W        W31878  10.164   8.168   4.798  0.2370  0.0872 -0.1068
16748W        W31879  14.682  10.219   0.044  0.1268  0.2963 -0.0774
16749W        W31880   2.918   9.942  14.480 -0.1564 -0.0454  0.4671
16750W        W31881   6.858   4.814  13.723 -0.1146 -0.0338  0.1827
16751W        W31882  10.749  11.995   3.049 -0.2749  0.0154  0.2125
16752W        W31883   8.167  10.735  12.714  0.0133 -0.1493  0.0283
16753W        W31884   7.581  12.273   4.842  0.2232  0.0739 -0.0478
16754W        W31885  13.448  11.872  15.659 -0.1153 -0.2511  0.1256
16755W        W31886   1.593   2.878   6.353 -0.0613 -0.0452  0.1336
16756W        W31887   7.388   4.401   4.521 -0.1759 -0.2726 -0.1673
16757W        W31888   4.557  10.499  12.659 -0.0877 -0.0200  0.0573
16758W        W31889  15.088   3.831  16.907 -0.0121 -0.0181 -0.0519
16759W        W31890   2.186   7.396   3.720 -0.0121  0.0582 -0.1112
16760W        W31891  15.489   7.893   3.117  0.0784  0.2454  0.0366
16761W        W31892   0.961   5.837  14.381  0.2081 -0.2798 -0.0634
16762W        W31893   1.724   5.904   2.156 -0.0336  0.0572  0.2868
16763W        W31894  16.653   3.265  12.349  0.1101 -0.0008 -0.3747
16764W        W31895   8.915   6.269   5.274 -0.1330 -0.2681 -0.1550
16765W        W31896   1.247   2.071   0.499  0.0531 -0.0439 -0.0081
16766W        W31897   6.147   7.427  11.863 -0.2738  0.1064  0.0808
16767W        W31898  17.670  17.533   0.267  0.3130 -0.1883  0.0687
16768W        W31899  14.677   5.667  13.521 -0.0133  0.2509  0.1903
16769W        W31900   0.491  15.390   4.443  0.1009 -0.2369  0.2766
16770W        W31901  10.644  14.963   3.592 -0.0196 -0.1804  0.0187
16771W        W31902   6.338   1.381   0.257 -0.2856 -0.0967  0.0058
16772W        W31903   6.093   6.996  16.035 -0.0534  0.0667  0.1588
16773W        W31904   2.115  12.023  16.421 -0.2096 -0.1788 -0.1067
16774W        W31905   5.854  10.425  14.486  0.1533 -0.3218 -0.2270
16775W        W31906  13.164   1.490   0.245  0.2515  0.3070 -0.0201
16776W        W31907   3.945   5.189   4.037 -0.0651  0.0006 -0.0608
16777W        W31908   0.975   0.445   6.024  0.3228  0.0981 -0.0836
16778W        W31909  17.281  15.678  13.562  0.2451  0.0543  0.2838
16779W        W31910   4.621   5.324  13.868 -0.1516 -0.0028 -0.1942
16780W        W31911   1.785   1.362   1.826 -0.2517  0.0096 -0.1949
16781W        W31912   3.585   6.406  12.801  0.0138  0.1658  0.2753
16782W        W31913  13.031  17.404   2.421  0.0520  0.1545 -0.2486
16783W        W31914  17.542   2.883   5.293  0.0255 -0.2194 -0.0613
16784W        W31915   0.533   4.761  15.915 -0.1494 -0.0514 -0.0452
16785W        W31916   2.509   0.986   0.919  0.0367 -0.0863 -0.2822
16786W        W31917   2.073   6.591   0.573  0.1619  0.1189 -0.2611
16787W        W31918  14.271  11.004   2.740 -0.0690  0.1586  0.2163
16788W        W31919  13.790  13.887   3.684 -0.0967 -0.0394 -0.3461
16789W        W31920   1.238   3.246  15.007 -0.1312  0.1356 -0.1170
16790W        W31921  17.447   5.976  12.075 -0.0176 -0.0024 -0.2345
16791W        W31922   5.763   7.168   0.085 -0.0154 -0.1146  0.0496
16792W        W31923   4.449   7.228  15.081  0.2581 -0.0065 -0.1841
16793W        W31924   8.330  13.906   2.253  0.0178 -0.0387 -0.0757
16794W        W31925   9.140   7.057  16.680  0.1839 -0.0155  0.2154
16795W        W31926   0.790   0.460   3.277 -0.2094 -0.2632 -0.1938
16796W        W31927  17.645   4.605  12.603  0.0314 -0.1473  0.1156
16797W        W31928  10.339  10.789   4.818 -0.0258  0.1420  0.1667
16798W        W31929   2.638  17.345   4.520  0.2083  0.2018  0.0351
16799W        W31930  12.544   3.619   2.359 -0.1058  0.2168 -0.2263
16800W        W31931  11.999  16.997   4.267 -0.0779 -0.0211  0.2112
16801W        W31932   9.577   3.398   0.196  0.0181  0.1554 -0.2571
16802W        W31933   6.068  10.790   0.744 -0.2244 -0.0935 -0.1962
16803W        W31934   9.824   2.422   3.610  0.0499  0.0375 -0.1455
16804W        W31935  11.792  17.540  13.053 -0.1735 -0.1231 -0.1354
16805W        W31936  16.165  15.142   0.131 -0.4013 -0.0488  0.5699
16806W        W31937   3.868  17.100   1.851  0.0545  0.1123  0.0642
16807W        W31938   3.158   8.107   1.280 -0.0797  0.2210  0.1584
16808W        W31939  15.563   3.657   3.214  0.0177 -0.3203 -0.3153
16809W        W31940  16.153   3.211  12.319  0.2512  0.1674  0.1028
16810W        W31941   9.640   9.393   0.220  0.1550 -0.2072 -0.2650
16811W        W31942   6.402   7.349  12.703 -0.1457  0.0983 -0.3032
16812W        W31943   4.591  17.492  14.306 -0.0311 -0.0612 -0.0238
16813W        W31944  14.374  13.554  13.319  0.1297  0.0068 -0.0580
16814W        W31945  10.691   7.961   1.106  0.0934  0.1681 -0.0528
16815W        W31946   4.822  13.057   2.511 -0.0373 -0.0306  0.0374
16816W        W31947   1.961   1.924  15.626 -0.1692 -0.1556 -0.1285
16817W        W31948   7.861   1.782   5.334  0.1048  0.0174  0.0083
16818W        W31949  13.257  12.631  12.921  0.2740  0.0320 -0.4096
16819W        W31950   5.897   2.528  14.438  0.0876 -0.0464 -0.2476
16820W        W31951   4.756   4.405  16.566 -0.2799  0.0538  0.1435
16821W        W31952   9.978  16.472  16.467  0.2065  0.0283  0.3579
16822W        W31953   0.213   7.685  10.776 -0.1384  0.1191  0.1393
16823W        W31954  12.418   3.614  14.041 -0.0308 -0.1204 -0.2337
16824W        W31955   1.645   1.374   5.134 -0.0322 -0.2945 -0.0487
16825W        W31956  13.969   2.294   6.112  0.4090 -0.1042 -0.1085
16826W        W31957   8.423   6.615  13.211  0.0765 -0.0601  0.0631
16827W        W31958  11.174  10.491  15.460 -0.1737  0.2775 -0.0309
16828W        W31959   0.742  17.397  15.561 -0.3862 -0.1087 -0.1660
16829W        W31960  10.713   9.183   4.369  0.1311  0.0069  0.0147
16830W        W31961  13.666  12.866   0.839  0.2662 -0.0328 -0.1594
16831W        W31962   0.642   0.643  12.712  0.1777 -0.0118  0.0981
16832W        W31963  10.987  11.491   5.787 -0.2504 -0.0886 -0.3078
16833W        W31964  10.357  13.429  16.472 -0.0775 -0.0965 -0.0466
16834W        W31965   4.122   8.651   3.831 -0.1721 -0.1154 -0.2788
16835W        W31966   2.893  11.979   2.173  0.0259  0.0800 -0.1483
16836W        W31967  14.364   8.174  15.884 -0.2613 -0.0234  0.1380
16837W        W31968  14.776   4.235  14.707  0.0781 -0.1765 -0.0764
16838W        W31969   5.570   7.636   1.899  0.1234 -0.0606  0.0807
16839W        W31970   4.936   3.416  13.524 -0.0242 -0.3326  0.1891
16840W        W31971   1.651   5.357  14.996 -0.0741  0.1359 -0.2402
16841W        W31972  11.683  13.790   1.902 -0.0967  0.2348 -0.1018
16842W        W31973   0.290   1.994   4.985 -0.0003  0.2990 -0.2960
16843W        W31974  16.851   6.383  13.412  0.0545 -0.2301 -0.0618
16844W        W31975   7.716  14.953  15.650 -0.2333 -0.0181 -0.3956
16845W        W31976  11.627   9.359   4.611  0.2524 -0.0616  0.2585
16846W        W31977   4.617  13.540   2.542 -0.2226  0.0445 -0.1385
16847W        W31978  12.956  14.585   1.309  0.0973  0.0568  0.1135
16848W        W31979  15.298  11.443  12.092  0.0434  0.3334 -0.1824
16849W        W31980  12.628  10.131  12.294  0.0031 -0.0843 -0.0239
16850W        W31981   0.139  15.058   3.577  0.0922  0.2348  0.0562
16851W        W31982   8.506   3.451   0.660  0.1397  0.2805  0.0172
16852W        W31983   2.517   8.290   1.368  0.1321 -0.1059 -0.2109
16853W        W31984  10.598  17.629  15.096 -0.0104  0.1346  0.4185
16854W        W31985  14.131  13.793   3.087  0.1862 -0.0827 -0.3554
16855W        W31986  15.894   1.687  14.547  0.1698 -0.0780 -0.1061
16856W        W31987  13.162   4.988   4.662  0.2436  0.0096  0.2334
16857W        W31988   0.246   2.353   0.315 -0.1027  0.2428 -0.0564
16858W        W31989  14.435   6.509  16.137  0.1959  0.0386 -0.0174
16859W        W31990  15.934   1.436  16.347  0.1687 -0.2091  0.1157
16860W        W31991   4.330  11.103  16.097  0.1141 -0.0101 -0.2151
16861W        W31992  17.150   7.921  12.846 -0.0041 -0.0196  0.0731
16862W        W31993   7.012   8.131  10.471  0.3586 -0.1172 -0.0053
16863W        W31994   2.057  16.814   4.070 -0.0088 -0.0576  0.3804
16864W        W31995  12.591   1.868  15.741  0.0257 -0.2306 -0.0994
16865W        W31996  12.496   9.943   2.575  0.0412  0.0614 -0.2101
16866W        W31997   6.020   4.496  11.133  0.0025  0.2287  0.1192
16867W        W31998  17.005  14.187   4.267  0.1848  0.0331 -0.0666
16868W        W31999   3.159  16.120  12.439 -0.2822  0.0613  0.0832
16869W        W32000  16.006  15.357   0.534  0.0077 -0.0863  0.3059
16870W        W32001  17.040  14.627   0.537 -0.0461 -0.0108  0.2951
16871W        W32002   9.795   0.593   5.256  0.1788  0.3235 -0.0722
16872W        W32003  10.320   6.943   2.404  0.1737  0.2840  0.1802
16873W        W32004   5.312  16.032   0.709 -0.2258  0.1993 -0.0086
16874W        W32005   6.650   0.465  15.244  0.1296 -0.2239 -0.1536
16875W        W32006  17.091   8.030  11.857 -0.1790 -0.1511  0.4188
16876W        W32007  17.230   8.401   5.304  0.0073 -0.0302 -0.2293
16877W        W32008   8.120   5.871  12.864 -0.0175  0.2176  0.0450
16878W        W32009   6.298   8.657   5.509 -0.0238  0.0325 -0.0765
16879W        W32010  12.604   5.591   2.790 -0.1570  0.1569 -0.1361
16880W        W32011  11.212   8.305  13.530 -0.0525 -0.4162 -0.1728
16881W        W32012  15.933   7.654   4.420 -0.1063 -0.1145 -0.2292
16882W        W32013   0.068  13.374  15.855 -0.2087  0.2455 -0.0299
16883W        W32014  12.853  13.508   2.324  0.2508  0.0808 -0.1654
16884W        W32015  16.103   2.724   0.829  0.3201  0.1344 -0.2512
16885W        W32016   2.938  14.129  14.644  0.1137  0.2390 -0.1730
16886W        W32017   4.240  13.339  15.732  0.1375  0.0130  0.0296
16887W        W32018   9.984  10.819  11.464  0.1916  0.0449 -0.4057
16888W        W32019   7.616  10.390  15.955 -0.0908  0.1839 -0.0540
16889W        W32020   6.999  13.804  12.649 -0.0683 -0.2595 -0.3085
16890W        W32021   1.028   6.291  12.044 -0.2493 -0.0657 -0.0284
16891W        W32022   8.403  14.226   4.406  0.2911 -0.0467  0.3025
16892W        W32023  17.336   5.809  11.531 -0.2705 -0.1046  0.0666
16893W        W32024   1.744  12.203  15.821  0.0448  0.3103  0.0540
16894W        W32025   9.705   8.008  11.110  0.0184  0.0528  0.0767
16895W        W32026   0.457   3.253  11.224  0.1636 -0.0251  0.0142
16896W        W32027  12.976   8.225  16.099  0.0014 -0.2884 -0.2174
16897W        W32028   2.206   0.255  12.147  0.0842  0.1791 -0.0068
16898W        W32029  11.159   6.302  11.681  0.2302  0.0433  0.1228
16899W        W32030  10.820   3.224   4.214  0.1512  0.2238 -0.0558
16900W        W32031   9.806   0.237  14.013  0.3205  0.1156 -0.1933
16901W        W32032   9.537  10.087   4.324 -0.1309  0.0862  0.2906
16902W        W32033  11.912   3.098  11.736 -0.3532 -0.0175 -0.0457
16903W        W32034   4.395   4.380   4.338 -0.0894 -0.1950  0.1050
16904W        W32035  16.911   4.957  15.372 -0.1249  0.2710  0.3527
16905W        W32036  10.291   1.566   3.580 -0.1176  0.0997  0.0491
16906W        W32037  14.867   8.009   4.864  0.1058 -0.0575  0.1521
16907W        W32038   7.166   5.459  15.143  0.1078  0.1575  0.1284
16908W        W32039   9.297   3.527   1.282 -0.1514 -0.3884  0.0359
16909W        W32040   7.163  11.014  16.467 -0.0094  0.0340  0.0440
16910W        W32041  16.964   2.261   1.765 -0.2345 -0.0256 -0.0488
16911W        W32042  13.253  11.605   5.335  0.1899  0.0456  0.0466
16912W        W32043   8.161   3.724   5.645  0.0102  0.0611  0.1083
16913W        W32044   9.708   3.256   2.122  0.0978 -0.2232  0.1425
16914W        W32045   9.096   4.757   1.884  0.0118  0.1183  0.1814
16915W        W32046  12.493   4.567   4.626  0.0488 -0.0405  0.1763
16916W        W32047  10.908  12.145  15.823  0.1080  0.1195  0.1375
16917W        W32048   0.621   9.426  16.853 -0.0785  0.2083  0.2389
16918W        W32049  16.551   4.687  10.784 -0.1246 -0.0956  0.2230
16919W        W32050   6.482   7.256   1.344 -0.0211  0.0131  0.1110
16920W        W32051  17.670  17.535   5.008 -0.0987 -0.2600  0.2028
16921W        W32052  11.903   7.766  13.316  0.2984 -0.3136  0.1867
16922W        W32053  14.302  11.564   5.128  0.0425 -0.1065  0.1137
16923W        W32054  14.824   4.733  13.828 -0.0619  0.1134  0.0090
16924W        W32055  11.693   7.304   1.730 -0.1283 -0.0965 -0.2036
16925W        W32056   7.330   8.714   1.577  0.1157 -0.1706  0.2102
16926W        W32057   0.054  14.814   6.802  0.1298 -0.2476  0.1008
16927W        W32058  15.431  12.588  11.549  0.0727  0.1154  0.0490
16928W        W32059   1.866  13.566  11.374 -0.2977 -0.1596  0.2027
16929W        W32060  13.665   3.516  12.576 -0.0799 -0.1118  0.3682
16930W        W32061  16.174  13.511  12.012  0.1042 -0.0612  0.1019
16931W        W32062   2.237   1.155   6.357  0.3768  0.1795 -0.1328
16932W        W32063   5.702  11.826   2.658 -0.1055  0.0160  0.0891
16933W        W32064  13.619   0.097  12.155 -0.2569 -0.1196 -0.1309
16934W        W32065   3.226   7.366   2.814 -0.1492 -0.1588  0.0773
16935W        W32066   6.585  15.325   4.937 -0.0639 -0.2213  0.2025
16936W        W32067   1.733  11.273  15.165  0.2628 -0.0715 -0.0670
16937W        W32068  12.026   4.998  12.357 -0.2760 -0.0249  0.2764
16938W        W32069  14.295  15.676   3.473  0.0987  0.0200  0.1969
16939W        W32070   9.401  16.147   3.542 -0.1509  0.1740  0.0337
16940W        W32071   1.751  10.266   3.364  0.0321 -0.0111 -0.1968
16941W        W32072   4.880  17.699  13.622 -0.0527  0.2239 -0.0737
16942W        W32073   3.641  16.506   4.141 -0.0851  0.1317  0.1799
16943W        W32074   5.986  13.651   3.177  0.2512 -0.2104 -0.1427
16944W        W32075   7.457  13.879   0.240  0.1017  0.0730  0.0935
16945W        W32076  12.032  12.425   3.548 -0.0469  0.2903  0.3453
16946W        W32077   4.115   6.679   0.627  0.1545 -0.1176 -0.1622
16947W        W32078   0.889   4.432   5.040  0.1253  0.0558 -0.0886
16948W        W32079   3.688   7.953  12.116  0.1635 -0.1752 -0.1905
16949W        W32080  16.686  14.243   5.861 -0.2649 -0.1160 -0.2042
16950W        W32081   4.318   7.344  16.078 -0.1918  0.1869 -0.1534
16951W        W32082   9.153  16.469  11.946 -0.1754 -0.0997 -0.0333
16952W        W32083   2.737   4.723   4.052  0.0870 -0.3524  0.1356
16953W        W32084   2.785  15.264  14.698 -0.0018  0.0036  0.1019
16954W        W32085   7.563   5.089   3.223 -0.0351 -0.3694  0.0723
16955W        W32086   2.715  12.199   2.886 -0.2352  0.3120 -0.0268
16956W        W32087   6.374  17.628   4.909 -0.1002 -0.0739 -0.1202
16957W        W32088   0.636   7.624   1.517  0.0302 -0.0341  0.0748
16958W        W32089  11.426   8.509  16.104  0.0143  0.2527  0.0851
16959W        W32090   1.981   0.954   2.904  0.1939 -0.0389 -0.1172
16960W        W32091  17.229   2.087   0.968 -0.0296 -0.3701  0.0027
16961W        W32092   7.809  12.107  11.885 -0.2070 -0.1134 -0.0458
16962W        W32093   6.102  16.474  13.990 -0.0485 -0.0232 -0.0236
16963W        W32094   7.038  10.390   0.584 -0.0174  0.0301  0.1382
16964W        W32095  17.708  12.836   0.010 -0.0189  0.2232  0.0033
16965W        W32096   7.277  13.018  16.728 -0.1161 -0.1579 -0.1805
16966W        W32097   2.724   8.982   5.416  0.1620 -0.3179  0.3105
16967W        W32098  14.255   2.392   2.374  0.2075  0.1011 -0.1390
16968W        W32099   4.311   5.012   0.726 -0.3365  0.0254 -0.1403
16969W        W32100   1.403  16.922  12.402  0.2366 -0.0262  0.1612
16970W        W32101   3.722  17.571   3.506  0.0240  0.1160 -0.1246
16971W        W32102  16.674   1.400  12.054 -0.0652 -0.2273  0.1427
16972W        W32103  10.549  13.225   4.341 -0.3249 -0.2903  0.0607
16973W        W32104   7.329   7.154   0.625 -0.0734 -0.2659 -0.0685
16974W        W32105   1.408  14.368  14.395 -0.1788 -0.2168 -0.0573
16975W        W32106   9.988  12.123   5.502  0.0448 -0.0186 -0.0417
16976W        W32107   9.602   0.572  14.399 -0.3148 -0.1437 -0.1277
16977W        W32108   3.376   1.826  12.235  0.0197  0.0561  0.0127
16978W        W32109   9.071   1.482   3.261 -0.0305 -0.3109  0.2382
16979W        W32110   7.704  13.239   2.035 -0.1592 -0.0870  0.2850
16980W        W32111  16.500  10.501  11.569 -0.2138 -0.2839 -0.0103
16981W        W32112   7.758   5.496   3.549  0.0788 -0.0560 -0.1679
16982W        W32113   2.266   3.534  12.466 -0.1028 -0.1568 -0.1668
16983W        W32114  10.710   6.683  15.065  0.2781 -0.0546 -0.1892
16984W        W32115  11.535   0.170  13.453 -0.2098  0.1892  0.0386
16985W        W32116   1.735   5.279  16.388 -0.1689 -0.1090 -0.1095
16986W        W32117   3.473   1.835   2.889  0.0893 -0.3045  0.1672
16987W        W32118  10.262  13.761   2.399  0.0341  0.1043  0.2354
16988W        W32119   4.696  10.765  16.201 -0.1561  0.2403 -0.2131
16989W        W32120   5.267  12.078  12.640 -0.1316 -0.0548  0.1867
16990W        W32121  15.887   7.275   4.783 -0.0401  0.0189 -0.1017
16991W        W32122  15.352   5.692  15.758  0.2191  0.1481 -0.1988
16992W        W32123  10.259   9.332   2.218  0.0739 -0.1483  0.2146
16993W        W32124  12.937  11.383   4.266 -0.0257 -0.2494  0.0471
16994W        W32125   4.877   8.948  15.861  0.2176 -0.0901  0.1853
16995W        W32126  14.804   4.977  16.449 -0.2516  0.1831 -0.1674
16996W        W32127   5.402   0.128   0.697  0.2242  0.1004  0.0822
16997W        W32128   5.802   4.961  14.499 -0.1176  0.2039 -0.0466
16998W        W32129  14.099   0.575   4.883 -0.1276 -0.2171  0.4745
16999W        W32130   2.322  10.073  15.288 -0.0539 -0.0301  0.2182
17000W        W32131   4.750   9.736   5.259 -0.0604  0.0923 -0.2255
17001W        W32132   1.064   5.317  10.859  0.2702 -0.1341  0.0875
17002W        W32133  16.899   4.382  13.148  0.2968  0.0965 -0.1703
17003W        W32134  14.230   4.468  13.691 -0.2077  0.0512 -0.0537
17004W        W32135   1.134   3.498   2.409 -0.3006  0.0757  0.0509
17005W        W32136   1.309  14.570   5.108 -0.0808 -0.0380 -0.1109
17006W        W32137  11.210   6.134   3.608  0.2906 -0.1147  0.0142
17007W        W32138  13.304  11.310  15.750 -0.2601 -0.2933 -0.1475
17008W        W32139   6.939   4.789   6.133  0.0161 -0.0059 -0.0779
17009W        W32140   1.659   4.907   3.566 -0.1276  0.0952  0.2634
17010W        W32141  15.592   0.657   3.072 -0.3478 -0.0686 -0.0431
17011W        W32142  13.365  17.397  13.515 -0.0046  0.2080  0.1674
17012W        W32143   3.137   4.229  15.146 -0.3334  0.0623 -0.0998
17013W        W32144   9.475  17.493  11.895 -0.2005 -0.0659 -0.1039
17014W        W32145   2.002  14.887  13.566 -0.0312  0.1234 -0.2470
17015W        W32146   6.953  14.475  13.939  0.1395  0.1660  0.0970
17016W        W32147  12.535  17.079  14.150 -0.2232 -0.0003 -0.1037
17017W        W32148   5.957   8.343  14.827 -0.0482 -0.2377  0.3846
17018W        W32149   1.369  17.188  16.505  0.2095  0.0725  0.3749
17019W        W32150  16.342   2.049  10.860  0.2206 -0.1669  0.0351
17020W        W32151   5.355   7.991  16.669  0.0170  0.0007 -0.2761
17021W        W32152  15.906   7.504  11.728 -0.1719 -0.2493  0.0352
17022W        W32153  10.929   0.728  13.313  0.0924  0.1576  0.0205
17023W        W32154  12.124   7.189  11.927  0.3364 -0.2064 -0.0948
17024W        W32155   4.393   4.727   2.924  0.0368  0.0050  0.0963
17025W        W32156   1.085   2.849  11.848  0.2428 -0.0981 -0.0873
17026W        W32157  16.509   4.791   0.684  0.0762  0.1680 -0.2610
17027W        W32158  15.620   3.495  12.692  0.3001 -0.0564 -0.2887
17028W        W32159   6.217   9.425  16.052  0.0454 -0.1107  0.1069
17029W        W32160   9.995   1.515   3.007 -0.2020 -0.3500 -0.3028
17030W        W32161  16.890  17.638  11.849 -0.1122 -0.1765 -0.0356
17031W        W32162  14.634  12.332  12.533  0.1447 -0.3296  0.2677
17032W        W32163   8.841   1.670  16.208 -0.0056 -0.1783 -0.1190
17033W        W32164  11.967   8.992   5.294 -0.0916 -0.0177  0.0108
17034W        W32165   4.260  16.793   0.558 -0.4687 -0.0606 -0.1138
17035W        W32166   2.974  10.474  15.745  0.1671 -0.1319  0.0374
17036W        W32167   3.956  11.057  11.273  0.1070  0.0887  0.3160
17037W        W32168   5.814  14.470   2.581  0.1217  0.3473 -0.1628
17038W        W32169   7.615   6.359   2.701  0.1969  0.0636  0.2291
17039W        W32170   1.441  14.579   1.159  0.0726 -0.0443 -0.1225
17040W        W32171   0.625   9.126   0.752 -0.0661  0.1372  0.0818
17041W        W32172  15.450   3.039  12.670  0.3909 -0.2182  0.1409
17042W        W32173   8.105   3.217  14.344 -0.2094 -0.0267 -0.0642
17043W        W32174  16.130  11.722   0.074  0.0650 -0.1785  0.0344
17044W        W32175   2.596  16.595   3.173  0.2937  0.1573 -0.0459
17045W        W32176   0.684  14.156   5.131 -0.1188 -0.1148  0.0990
17046W        W32177   3.042  10.044   3.462 -0.3850  0.3083  0.1098
17047W        W32178   0.763  15.480  16.470  0.0186 -0.0119 -0.0516
17048W        W32179  11.769   0.357   6.029  0.0448 -0.2240  0.2821
17049W        W32180   5.924   4.803   0.235 -0.2099  0.0502  0.0501
17050W        W32181  11.855  14.575  15.354  0.0906 -0.0044 -0.1476
17051W        W32182  11.050   8.157  15.179  0.1959 -0.1176  0.1851
17052W        W32183  10.725   4.062  16.024  0.3810  0.2023 -0.0283
17053W        W32184   3.606   4.385   2.204 -0.0005 -0.2256 -0.1693
17054W        W32185   8.006  12.571   3.650  0.1535 -0.2241 -0.0450
17055W        W32186   7.002  15.025  12.974  0.0319 -0.3474 -0.3781
17056W        W32187   8.810   7.521   1.918  0.0117  0.1379  0.0671
17057W        W32188  10.094   5.696   0.408  0.0370 -0.1734 -0.0419
17058W        W32189   7.752   7.584  14.825  0.0579  0.4927 -0.1710
17059W        W32190  15.532  12.211   2.333  0.0808  0.0085  0.2073
17060W        W32191   5.237   7.038  12.377  0.1953  0.1642  0.1186
17061W        W32192  13.348  14.516   0.928 -0.1280  0.3678  0.1182
17062W        W32193   2.387   5.886  14.952 -0.0632  0.1566  0.1365
17063W        W32194   7.833   3.856  14.814 -0.4953  0.2888 -0.0216
17064W        W32195   1.269   1.677   3.820  0.1603  0.0516  0.0608
17065W        W32196   6.454   1.560   1.405  0.2034  0.2955 -0.1717
17066W        W32197   8.371   9.872   2.943 -0.3404  0.0258  0.0911
17067W        W32198   1.693   8.263   2.037  0.2024 -0.4041 -0.2645
17068W        W32199  10.498  14.146   0.960 -0.0497 -0.2605 -0.0540
17069W        W32200  10.430   9.541   0.223 -0.0696 -0.0080  0.2852
17070W        W32201   2.361  13.576  16.206  0.2268 -0.1752  0.1146
17071W        W32202   6.501  14.582   1.020  0.0846 -0.0510  0.0268
17072W        W32203  10.662   3.195  14.000  0.1101 -0.0155  0.0007
17073W        W32204   9.485   5.084  12.968  0.0453 -0.1448  0.1205
17074W        W32205  11.395   5.906  10.802  0.2792 -0.1131  0.0094
17075W        W32206  11.387  11.735  16.561  0.1506 -0.0162  0.0928
17076W        W32207   5.256   3.472  14.281 -0.0315 -0.0293 -0.3436
17077W        W32208   4.204  13.810   1.126  0.1002  0.1599  0.1128
17078W        W32209   2.134  13.346   4.737 -0.1900 -0.1875  0.2873
17079W        W32210   6.427  10.215   3.357 -0.2075  0.1640  0.0143
17080W        W32211  17.080   4.017   0.806 -0.0326  0.4028 -0.3253
17081W        W32212   3.445   6.804  15.627 -0.1834 -0.1201 -0.1941
17082W        W32213  14.116  17.482  12.147 -0.2570  0.0748 -0.1828
17083W        W32214   5.721  14.485  16.880  0.1053  0.0483 -0.1163
17084W        W32215   5.924   3.000  15.116  0.1899 -0.0864  0.1240
17085W        W32216  12.253   6.738  12.225  0.3105 -0.0574  0.2097
17086W        W32217   2.150  17.233  14.040 -0.0212 -0.0041 -0.0700
17087W        W32218  15.078  10.000  15.846  0.1521  0.0368  0.1897
17088W        W32219   8.306   2.183  11.732  0.3573 -0.0634  0.0134
17089W        W32220   8.953   2.044  15.849 -0.1275  0.1085 -0.2587
17090W        W32221   3.411  17.561   5.276  0.0733 -0.0672 -0.2308
17091W        W32222   1.775   0.227  16.344 -0.1173  0.1538 -0.0294
17092W        W32223  14.644   5.119   0.041  0.0811 -0.1150  0.0475
17093W        W32224   5.492  12.476  12.784 -0.0982 -0.1580  0.0513
17094W        W32225  10.405   7.229   5.188  0.1951 -0.0914 -0.1255
17095W        W32226   4.334  17.547  15.336  0.2358 -0.0180 -0.1904
17096W        W32227   2.788   8.850  13.526  0.2645 -0.2658 -0.0927
17097W        W32228   0.504   5.808   3.436  0.0670  0.0490 -0.0541
17098W        W32229  10.693   5.697  11.133  0.0927 -0.2034 -0.1423
17099W        W32230   6.824   8.726   5.681 -0.1685  0.0439 -0.1792
17100W        W32231   4.280   0.388   3.234 -0.1682  0.0855  0.0251
17101W        W32232  12.858  14.288  10.761  0.1022 -0.2825 -0.0757
17102W        W32233  11.212   4.494   3.998 -0.1915 -0.1982 -0.0038
17103W        W32234   1.958  13.044   3.684  0.3143 -0.1900 -0.1530
17104W        W32235   0.103   4.554  12.104  0.1133  0.1244  0.2224
17105W        W32236   0.563  11.304  16.670 -0.0465  0.3797  0.0869
17106W        W32237   8.426   2.228   3.821 -0.0522  0.0681 -0.0570
17107W        W32238  10.554   7.554   0.703 -0.2423 -0.1543  0.3236
17108W        W32239   1.312  14.099   1.978  0.0258  0.1494 -0.0103
17109W        W32240  10.964   7.752   2.207 -0.0184  0.1752  0.0883
17110W        W32241  16.544   0.481  16.866  0.1742 -0.0339  0.4284
17111W        W32242   6.845  12.252  12.774  0.0178 -0.1866  0.0433
17112W        W32243  11.513   1.363   0.537 -0.1735 -0.0405 -0.0363
17113W        W32244   6.416   9.294  10.504  0.1700  0.1537 -0.0129
17114W        W32245   4.560   9.208   2.891 -0.0577  0.1276 -0.2158
17115W        W32246   9.799  15.133  13.371  0.3289 -0.1307  0.1174
17116W        W32247  17.653  14.036   2.820 -0.1986  0.2858  0.0493
17117W        W32248   1.876   9.612   2.797 -0.5879 -0.1864 -0.1043
17118W        W32249   1.335  15.742   3.346  0.2044 -0.0173 -0.2100
17119W        W32250  16.496   3.935  14.392  0.0710  0.0878 -0.1848
17120W        W32251  12.610   8.907  15.877 -0.0153 -0.1137  0.1995
17121W        W32252   4.809  15.969  14.122 -0.2785  0.1559 -0.0818
17122W        W32253  15.284  13.027   5.646  0.0317 -0.1293 -0.1299
17123W        W32254   7.075  16.066   3.313 -0.1260  0.0064  0.0768
17124W        W32255   7.213   1.518   1.233  0.2310  0.0996  0.0169
17125W        W32256  10.910   8.549   4.785  0.1038 -0.2331  0.0412
17126W        W32257   1.964   3.576  12.832  0.1591  0.1070 -0.5191
17127W        W32258   5.784  11.937  12.845  0.2306  0.0273  0.0786
17128W        W32259   1.889   7.337   4.983  0.3268  0.0733  0.4354
17129W        W32260   4.761  14.917   3.370 -0.0820  0.0461  0.1037
17130W        W32261  12.208   6.177   5.360  0.1926 -0.2970 -0.0184
17131W        W32262   1.462   1.138  12.771 -0.4496 -0.0411 -0.0907
17132W        W32263   3.786   8.755  16.826  0.0126 -0.0163 -0.3253
17133W        W32264  10.806   9.545   1.609  0.2248  0.0269  0.0117
17134W        W32265  12.666   0.824  16.655 -0.0647 -0.0754 -0.4242
17135W        W32266   9.409  10.046   1.593 -0.3661 -0.0038  0.0296
17136W        W32267   2.719  11.482  13.081 -0.3054  0.2594  0.0893
17137W        W32268  12.679   4.834  11.632  0.1875 -0.0643  0.0167
17138W        W32269  16.321   1.705  11.785 -0.7289 -0.2331  0.1073
17139W        W32270   7.808   9.129   2.510  0.3195 -0.0768  0.0839
17140W        W32271   6.674   0.782   0.845  0.3234 -0.0607 -0.1182
17141W        W32272   8.772  13.723   3.480 -0.0321  0.0991 -0.0636
17142W        W32273   8.556  15.912  11.248 -0.2931  0.0256  0.2528
17143W        W32274   0.430   3.126   3.703 -0.0885 -0.0416  0.0344
17144W        W32275   0.467   3.899  11.446 -0.1285  0.2927 -0.2528
17145W        W32276  14.035  15.539  14.994 -0.4397 -0.0125  0.2302
17146W        W32277   2.895   7.635   5.439 -0.1150  0.1426  0.1354
17147W        W32278   4.627   6.144   1.563 -0.0726  0.0084  0.0424
17148W        W32279   9.422   6.515   4.250 -0.1182 -0.3669 -0.2505
17149W        W32280   9.165  11.440   4.780 -0.0884 -0.2158 -0.3259
17150W        W32281   9.418  10.284   0.599 -0.2324  0.0995  0.0187
17151W        W32282   9.559   1.407   2.728 -0.2593 -0.1895  0.2593
17152W        W32283  10.669  12.140   3.567 -0.1257 -0.0101 -0.0801
17153W        W32284  15.951   8.177   3.179 -0.0500  0.2525  0.2046
17154W        W32285   3.472   8.993  14.839 -0.1965 -0.1525  0.3299
17155W        W32286   8.887   5.989  16.059 -0.4126  0.0021  0.0295
17156W        W32287   0.468   1.857   0.761 -0.1240  0.0220 -0.3502
17157W        W32288  10.222  10.236   1.123 -0.2550 -0.1025  0.2008
17158W        W32289  17.430  15.244   3.439  0.1674  0.1568  0.0602
17159W        W32290   8.905   0.806   0.761  0.2872  0.0299  0.0326
17160W        W32291   3.602   5.030  10.863  0.0435 -0.1902 -0.2069
17161W        W32292  12.860  13.782   2.810  0.2952 -0.0612  0.1707
17162W        W32293   3.521   4.004  11.365 -0.0877  0.2506  0.1978
17163W        W32294  12.213  13.837   5.899  0.1573  0.0023 -0.1132
17164W        W32295   9.591   3.251   5.438 -0.3297  0.1430 -0.0769
17165W        W32296   0.173   0.470   0.511  0.1589 -0.1052 -0.1037
17166W        W32297  10.124   2.696  11.691  0.0699  0.1506  0.0263
17167W        W32298   7.354   0.365  15.937 -0.2596 -0.0449 -0.1448
17168W        W32299   5.505   0.980  11.713 -0.1030 -0.2133 -0.2297
17169W        W32300   4.654   4.920  12.623  0.0897 -0.1041 -0.0129
17170W        W32301   3.568   2.283   2.160 -0.0125  0.1552  0.1203
17171W        W32302  17.645  16.613  16.935 -0.1517 -0.0582 -0.3573
17172W        W32303   0.593  13.975   5.655 -0.2624 -0.0260 -0.0925
17173W        W32304  13.152   3.820   1.738  0.3352  0.1136  0.0786
17174W        W32305   0.638   3.096  11.779  0.2199  0.1411  0.0625
17175W        W32306  14.692   2.526   2.151 -0.0362  0.1617  0.2713
17176W        W32307   2.996   0.606   0.225  0.2372 -0.0568  0.1908
17177W        W32308   2.239   7.276  13.921  0.0431 -0.0074 -0.3823
17178W        W32309   5.129   6.463  14.311  0.1269 -0.4352 -0.2964
17179W        W32310   0.137   7.695  14.946 -0.3236  0.3372  0.0918
17180W        W32311   3.801   7.709  15.428  0.0532 -0.1394  0.2687
17181W        W32312   1.916  13.795   4.828 -0.2415  0.2946 -0.1734
17182W        W32313   4.997   1.744  11.899 -0.1343 -0.1170  0.0234
17183W        W32314   2.084  12.512  14.545  0.0200  0.1442 -0.0670
17184W        W32315   9.666  13.815  14.557 -0.0700 -0.0040  0.1070
17185W        W32316  11.960   5.762   0.021 -0.0145 -0.0772 -0.1760
17186W        W32317   0.740   9.273   4.085 -0.0654 -0.1148 -0.0547
17187W        W32318   7.568   6.756  16.231  0.1087 -0.0520  0.2565
17188W        W32319   4.023   9.776   2.333  0.0406  0.0953  0.2548
17189W        W32320  14.114   2.315   0.834  0.0349 -0.0441 -0.6043
17190W        W32321   6.094  13.357  12.354  0.1193  0.0848  0.0580
17191W        W32322   3.853  14.672   0.767 -0.1292  0.0048 -0.0157
17192W        W32323   5.774  12.115  12.386  0.1557  0.0510 -0.0015
17193W        W32324  15.276  11.775  13.306  0.1206 -0.0298 -0.1339
17194W        W32325   2.108   8.293  11.617 -0.1472  0.0414  0.0192
17195W        W32326   8.202   2.982   3.086  0.3565 -0.0754  0.1839
17196W        W32327   6.555  14.428  15.211 -0.1428  0.2165  0.2048
17197W        W32328   3.732   9.865   3.917 -0.0758 -0.1131  0.2325
17198W        W32329  14.586   1.072  12.011  0.2834  0.0524  0.0611
17199W        W32330  17.594  16.360  14.138  0.3892  0.0925  0.2452
17200W        W32331   8.640  11.316   0.043  0.0340 -0.0504 -0.1576
17201W        W32332   2.489   2.582  15.952  0.2087 -0.2647  0.1863
17202W        W32333  16.274  13.686   1.549  0.2427 -0.1873 -0.3685
17203W        W32334   3.002   0.470  15.379 -0.1460 -0.1019  0.1419
17204W        W32335   1.466   7.454   0.827  0.4232  0.1651 -0.2311
17205W        W32336  15.318   9.833   3.170  0.3115 -0.1533 -0.1216
17206W        W32337   0.456   8.912   1.243 -0.0866  0.0287  0.0656
17207W        W32338   2.540  14.858  15.097  0.3347  0.2120  0.2183
17208W        W32339   9.188  15.734   1.998  0.0538 -0.0608  0.0177
17209W        W32340  16.459   3.468  14.062 -0.0121  0.0845 -0.3375
17210W        W32341   7.725  11.244  14.914 -0.2347  0.1120  0.1491
17211W        W32342  16.511   6.741  11.558  0.0658 -0.4198 -0.1936
17212W        W32343   2.027   8.085  12.186  0.0807  0.2620  0.0072
17213W        W32344   2.874  12.654  14.950  0.0010  0.1201  0.0198
17214W        W32345  16.190   7.387   0.765  0.1720 -0.2256  0.0906
17215W        W32346   1.525  13.704  12.177  0.1232 -0.5264 -0.4735
17216W        W32347  11.469   6.494   3.343  0.2990  0.2867 -0.2727
17217W        W32348   4.392   9.546  12.298  0.2095  0.2012 -0.1572
17218W        W32349   8.800   8.896  16.093 -0.1894 -0.1453  0.1798
17219W        W32350  14.088  14.260   3.886 -0.1038 -0.0892 -0.1377
17220W        W32351   5.707   0.448   1.037 -0.0365  0.0216  0.0776
17221W        W32352   0.244   7.523  14.144  0.0838  0.1407  0.1382
17222W        W32353   7.956  17.569   5.499  0.0682  0.2447  0.0833
17223W        W32354   2.087   6.188   0.919  0.1219  0.0756 -0.2764
17224W        W32355   9.450   4.198   3.206 -0.0086  0.0319 -0.0315
17225W        W32356  16.397   1.782  14.347 -0.0318  0.0818 -0.1270
17226W        W32357  13.910  16.296  16.694  0.2889  0.0655 -0.2822
17227W        W32358  10.820   2.194   5.291  0.2429  0.0152  0.0637
17228W        W32359  13.544   6.727   2.810 -0.0052  0.2051  0.0170
17229W        W32360   0.803   4.329  16.014  0.0682  0.0495  0.1677
17230W        W32361   5.849  13.043  15.146 -0.0211  0.0284 -0.0792
17231W        W32362   4.295  15.484   2.864  0.1575  0.0353 -0.1119
17232W        W32363   9.158  13.632  14.059  0.1495  0.0864  0.2574
17233W        W32364   2.339   7.646   4.768 -0.0161  0.0545 -0.0503
17234W        W32365  11.594   9.113   1.717  0.3138  0.3249  0.0813
17235W        W32366   3.139   6.041   2.016 -0.0842 -0.1151 -0.1539
17236W        W32367  10.944  14.523   3.725 -0.0740 -0.1032 -0.0498
17237W        W32368  13.840  11.728   4.423  0.1417  0.0031  0.4746
17238W        W32369  12.557   7.960   3.896 -0.0009 -0.1786 -0.0058
17239W        W32370   6.394  14.840   1.957  0.0604 -0.2041 -0.1265
17240W        W32371   2.232   2.561   1.885  0.0356  0.0645  0.0107
17241W        W32372   6.518   0.863  16.456 -0.0203  0.1611 -0.1950
17242W        W32373  10.493   4.107   1.994  0.2189 -0.0148 -0.0877
17243W        W32374  14.939   5.485  16.570 -0.1884 -0.0682 -0.0530
17244W        W32375  17.022  10.028  14.646  0.2935 -0.1915  0.0489
17245W        W32376   6.670   2.629   0.699  0.2522  0.0259  0.0689
17246W        W32377  11.082   5.517   4.373 -0.0857  0.2529 -0.1214
17247W        W32378  11.846  10.240   4.689 -0.2351 -0.0788 -0.0938
17248W        W32379   6.249  14.485   3.511 -0.5522  0.0789  0.0189
17249W        W32380   9.449  14.900  15.659  0.1342 -0.0296 -0.2534
17250W        W32381  12.894  17.648   6.473 -0.0235  0.0654  0.1837
17251W        W32382   1.925   7.030  11.496  0.1281  0.2492 -0.1845
17252W        W32383  14.666   8.396   4.555 -0.0722 -0.0727 -0.0582
17253W        W32384   3.151  11.598   2.805  0.0311 -0.0350  0.1392
17254W        W32385  10.804   9.027   3.034  0.0013 -0.0143 -0.0988
17255W        W32386  14.668   4.424   2.451 -0.1905 -0.1133 -0.2752
17256W        W32387   3.814  17.519  11.415  0.0856 -0.2938  0.1074
17257W        W32388   0.234   0.045  12.031 -0.0670  0.0041  0.0188
17258W        W32389   3.516   0.568  16.020  0.1367  0.1507  0.2652
17259W        W32390   6.852  13.873  13.143  0.1136 -0.2291  0.0539
17260W        W32391  16.209   0.615   4.794 -0.1368  0.1318 -0.0315
17261W        W32392   6.703  16.598  16.923  0.0039  0.2329  0.1126
17262W        W32393   5.814   6.152   0.955 -0.0160  0.0205  0.0272
17263W        W32394  13.954   7.686  11.047  0.1463  0.1122 -0.1268
17264W        W32395   8.562  14.607   5.920 -0.0906 -0.1079  0.0765
17265W        W32396   9.684  10.261   5.232  0.0797 -0.1649  0.0516
17266W        W32397  16.565   4.895   5.248 -0.1776 -0.0507  0.0110
17267W        W32398  10.182   0.856   5.444 -0.0811 -0.1427 -0.1735
17268W        W32399  13.611  10.806   0.854  0.1583  0.0077  0.0657
17269W        W32400   9.768  16.590   2.710  0.1126 -0.2866  0.1241
17270W        W32401   6.338   5.836  11.710 -0.2622  0.1926  0.0742
17271W        W32402   7.905  16.867  15.877  0.1341 -0.0469 -0.0375
17272W        W32403  11.774   4.736  14.065 -0.1471 -0.1709 -0.0647
17273W        W32404   8.972  16.984  12.847 -0.2787 -0.0285 -0.1641
17274W        W32405  16.198  15.091   1.710  0.1981 -0.0582  0.0677
17275W        W32406   9.753   9.003  15.538  0.0200 -0.1819  0.0100
17276W        W32407  17.119   8.088   2.328  0.3330  0.0518 -0.3724
17277W        W32408  14.125   5.612   1.301  0.0236  0.3184  0.1670
17278W        W32409   3.028   4.812   0.718  0.0053 -0.0095 -0.0745
17279W        W32410  15.941   6.943   3.292 -0.1751 -0.1892  0.0900
17280W        W32411  13.380  10.635  10.793 -0.2275 -0.2064  0.1121
17281W        W32412   8.651  16.807  15.345  0.0497 -0.0133  0.1327
17282W        W32413   5.410  13.635   3.173  0.1884  0.3513  0.0123
17283W        W32414   3.491   5.978   3.978 -0.0955  0.0356 -0.0421
17284W        W32415   2.826   5.322  10.479  0.0083 -0.1624 -0.3265
17285W        W32416   0.941   3.416   5.297 -0.1347  0.0928 -0.0826
17286W        W32417   7.715   1.288  12.568  0.1135  0.0999  0.2083
17287W        W32418   0.724   0.043   1.179  0.3895  0.2936  0.3109
17288W        W32419   7.489   8.035  10.670 -0.0750 -0.0865  0.1201
17289W        W32420   0.432   4.898  12.331 -0.2519 -0.1152  0.5012
17290W        W32421   8.248   9.383  11.073  0.0276 -0.4084 -0.1214
17291W        W32422  17.195  12.610   5.036  0.1145  0.0164 -0.3167
17292W        W32423  17.587   3.111  12.401 -0.0752  0.0008 -0.2738
17293W        W32424   4.091  11.134   2.735  0.2081  0.1682 -0.2033
17294W        W32425  13.605   8.344   1.061 -0.0606 -0.0767  0.0698
17295W        W32426  13.737  10.906  15.510 -0.0236 -0.0164 -0.0424
17296W        W32427  15.116   5.887  13.579 -0.1778  0.0791 -0.0823
17297W        W32428   3.569   1.639   5.455  0.0621 -0.2830 -0.0658
17298W        W32429  15.624  13.942   5.177  0.1945  0.0903 -0.0009
17299W        W32430   3.215  12.739  12.027  0.0256  0.0096  0.1555
17300W        W32431   3.568   0.115  14.426  0.0818 -0.1640  0.0914
17301W        W32432   7.342   0.001  16.408 -0.0502 -0.3439  0.1396
17302W        W32433   8.996   9.962   2.109  0.0957 -0.1232 -0.0118
17303W        W32434  15.125  16.277   2.140  0.1131 -0.0870  0.0668
17304W        W32435  16.506   3.970  15.051  0.0667 -0.1118  0.4936
17305W        W32436   1.613  17.134   0.052 -0.0868  0.1261 -0.1633
17306W        W32437   2.732   0.632  14.260 -0.2430  0.2320 -0.0222
17307W        W32438  16.077  16.332  13.419 -0.1686 -0.0510 -0.3117
17308W        W32439   3.621   1.784  15.622  0.0207  0.0333 -0.1168
17309W        W32440   6.177   5.416   3.137 -0.2244 -0.0378  0.1555
17310W        W32441   8.242   0.522  14.739 -0.1577  0.2035 -0.1912
17311W        W32442   9.593   9.796   5.419  0.1425  0.0029 -0.2807
17312W        W32443  13.075  11.235   3.043  0.0643 -0.1448  0.1060
17313W        W32444   2.102  11.388  13.711 -0.0331 -0.2882  0.0726
17314W        W32445   9.521   2.342   5.842  0.4433  0.0568  0.2695
17315W        W32446   6.263  11.860  14.001  0.2414 -0.1158  0.2302
17316W        W32447   1.873  17.004  14.642  0.0422 -0.1019  0.1444
17317W        W32448   2.745  15.719   5.634 -0.0532 -0.0471 -0.1281
17318W        W32449   4.804   8.495   0.837  0.2180 -0.1209 -0.0306
17319W        W32450  10.629   7.313  16.185 -0.1943  0.2816  0.1097
17320W        W32451   9.576   9.120  12.670  0.1610 -0.3080 -0.0015
17321W        W32452   3.201  14.196  15.982  0.2300 -0.1655 -0.2150
17322W        W32453  17.604   6.815   0.999  0.0511 -0.0228  0.0811
17323W        W32454   1.036   7.983  12.283 -0.2925 -0.1032 -0.1629
17324W        W32455   9.860  11.748  14.645  0.1866  0.2247 -0.0161
17325W        W32456   2.878   1.411   0.798 -0.0208  0.0638 -0.3178
17326W        W32457   7.589  14.300  11.793  0.3637 -0.1056 -0.0691
17327W        W32458   0.556   5.456  16.752  0.0195  0.0809  0.1964
17328W        W32459  10.645   8.477  14.962 -0.4262 -0.1332 -0.2353
17329W        W32460   3.816   7.586   2.581  0.1653  0.4114 -0.1824
17330W        W32461  12.193  16.120   1.708 -0.2569  0.2402  0.2992
17331W        W32462   2.682   0.857   4.558  0.0447 -0.0004  0.1423
17332W        W32463   1.583   3.220  11.791 -0.2447  0.3664 -0.1174
17333W        W32464   3.330  15.188   2.638 -0.2178 -0.2301 -0.0429
17334W        W32465  14.500   1.496   2.324  0.2039 -0.0784  0.3086
17335W        W32466  12.413  12.334  12.663 -0.0442 -0.1428  0.0571
17336W        W32467   9.223  15.655   3.911 -0.2478 -0.2716 -0.1628
17337W        W32468   4.761   5.556   3.288  0.2784 -0.2059  0.1669
17338W        W32469   1.596   3.469  13.376  0.0956 -0.1641 -0.0660
17339W        W32470  13.831  17.167   3.893 -0.3202  0.3037  0.1680
17340W        W32471   6.042  12.563   4.748 -0.0317 -0.0193 -0.0063
17341W        W32472   8.955  14.263   4.157  0.3860 -0.0366 -0.4219
17342W        W32473   2.525   8.870   1.231  0.1989 -0.1094 -0.0838
17343W        W32474   6.752  10.716   4.880 -0.2609 -0.2173  0.1563
17344W        W32475  17.472  15.269  10.641 -0.2349  0.0443  0.1911
17345W        W32476  12.796  12.574   1.782  0.0020  0.0436 -0.0382
17346W        W32477   9.211   2.733   5.203  0.0913  0.0273  0.0127
17347W        W32478   4.749  16.618   2.014 -0.0212  0.2338 -0.3624
17348W        W32479   8.689  16.868  16.778 -0.4695  0.0051  0.0730
17349W        W32480   7.007  13.614  16.270  0.0418 -0.0551  0.3277
17350W        W32481  11.974  16.307  15.710  0.0548  0.1231 -0.0520
17351W        W32482   4.620   6.776   2.319  0.0518  0.1176 -0.0644
17352W        W32483  16.376   7.057   0.474  0.1145  0.0020  0.0551
17353W        W32484  13.281   9.892  12.398  0.0818 -0.0740 -0.2696
17354W        W32485  10.044  14.796   3.696 -0.0681 -0.1504  0.0254
17355W        W32486   4.659   4.279  14.825  0.0844  0.1806  0.2308
17356W        W32487   4.071  15.480  16.401  0.1918 -0.0636  0.0142
17357W        W32488  14.611   7.079  12.915 -0.1074 -0.1609  0.1186
17358W        W32489   5.526  11.768   3.883  0.0383 -0.0025 -0.2159
17359W        W32490   7.135   0.533  14.276  0.1915 -0.1351 -0.2351
17360W        W32491  12.867   5.642   3.753  0.3916  0.1626  0.2166
17361W        W32492   8.334   6.668  15.582  0.2694 -0.0307  0.1768
17362W        W32493   3.358   3.888  14.168  0.1903  0.1822  0.1040
17363W        W32494   5.265   0.022  14.050 -0.0969 -0.4462 -0.0727
17364W        W32495   3.416  12.752   4.566  0.2903 -0.0252 -0.0542
17365W        W32496   5.734   2.900   5.353  0.0507  0.0214  0.2838
17366W        W32497   7.270   5.250  11.981 -0.0930 -0.3394  0.3157
17367W        W32498   5.535   7.384   0.980  0.1053  0.2453  0.2320
17368W        W32499   2.341   7.176   4.145 -0.0250 -0.0181 -0.2105
17369W        W32500   4.769  17.020  14.371  0.0920 -0.2991 -0.2158
17370W        W32501   9.691   5.586  13.109 -0.1717  0.2318  0.1613
17371W        W32502   5.538  16.080  16.602 -0.1547 -0.0441  0.1967
17372W        W32503   4.419  16.310  12.983  0.0913  0.3336 -0.0495
17373W        W32504   9.669  15.778  10.881  0.0681 -0.3845  0.0606
17374W        W32505   1.486   8.229   1.182 -0.0230  0.2786  0.0279
17375W        W32506  16.207  14.565   4.521  0.0707  0.5491  0.1858
17376W        W32507   5.231   1.381   3.305  0.1092  0.0100 -0.0862
17377W        W32508   9.892   5.727  11.293  0.3952  0.0370 -0.1552
17378W        W32509  14.964  11.736   1.771  0.0100 -0.0082 -0.0365
17379W        W32510   5.792  16.419  16.872 -0.1242  0.1387 -0.0642
17380W        W32511   1.837   7.971  13.892  0.0877  0.1045 -0.4052
17381W        W32512   6.888  10.434   5.367  0.1002  0.2574 -0.2952
17382W        W32513   1.232   1.658   1.385  0.1698 -0.1195  0.1478
17383W        W32514  17.256   4.560  15.537 -0.1833 -0.0490 -0.0979
17384W        W32515   7.148   9.440  15.089  0.4131  0.1233 -0.2117
17385W        W32516   5.003   0.125   3.412  0.1296  0.0138  0.1047
17386W        W32517   6.922   8.845   6.570  0.0701  0.0487 -0.1065
17387W        W32518  11.831   1.437  13.049  0.0106  0.2891 -0.2335
17388W        W32519   2.625  13.869   1.616  0.1253  0.0060 -0.0847
17389W        W32520   8.574   7.702  16.694  0.0677 -0.2016 -0.0020
17390W        W32521  17.617   0.308  12.344 -0.2007 -0.2155 -0.1292
17391W        W32522   9.985  15.052  11.043  0.1134  0.0487 -0.0530
17392W        W32523  17.012   4.244  13.715 -0.1007  0.1012 -0.0413
17393W        W32524   8.402   3.264   0.127  0.2295  0.0984 -0.2024
17394W        W32525  10.905   8.004   1.704 -0.0785  0.0663 -0.0463
17395W        W32526  11.322   2.126   5.557  0.4487  0.3359 -0.0567
17396W        W32527   5.590  12.645   0.882 -0.0388  0.3138 -0.0400
17397W        W32528  12.618  15.135   0.766 -0.1192 -0.0849  0.0076
17398W        W32529   7.756  11.222   2.738 -0.0222  0.0070  0.2154
17399W        W32530   0.227   7.558  13.138  0.0181  0.0973 -0.0720
17400W        W32531   3.368   8.149  13.387 -0.1210 -0.3056 -0.1651
17401W        W32532   3.960   2.091   0.300 -0.0278 -0.1076  0.4207
17402W        W32533   8.281  10.001   3.780  0.1965  0.0271 -0.1279
17403W        W32534  14.415   9.765  11.684  0.1471  0.0268 -0.0746
17404W        W32535   3.798   9.343  14.756 -0.0635 -0.0777  0.0995
17405W        W32536   3.533  17.377   4.353 -0.2530  0.3169  0.2836
17406W        W32537   1.039   0.093   3.587 -0.0736  0.3816 -0.0127
17407W        W32538   1.078   9.080   5.111 -0.2296 -0.3699  0.0819
17408W        W32539   4.618   1.911   5.223  0.3368 -0.1719 -0.0994
17409W        W32540   5.106   6.653   3.642 -0.0495  0.1467  0.0404
17410W        W32541  12.702   5.054  12.979 -0.1136  0.2292 -0.0533
17411W        W32542   9.623   6.862  10.886  0.1718  0.0511 -0.0335
17412W        W32543  14.435   3.940   2.324  0.0340 -0.1242 -0.3526
17413W        W32544  11.929  13.795  15.336  0.1482 -0.0694 -0.2055
17414W        W32545   1.836  16.450   1.686  0.0263 -0.0967  0.1421
17415W        W32546  14.355   7.246   3.506 -0.1900  0.0891  0.0284
17416W        W32547  13.452  12.871   1.482  0.0170  0.1881  0.2442
17417W        W32548   7.096   0.024  11.298  0.0357  0.3257  0.5373
17418W        W32549   3.402   1.093   3.443  0.0402 -0.0814  0.2031
17419W        W32550  16.605  12.143  15.870  0.0665 -0.2161  0.4233
17420W        W32551  13.812  14.596   3.269 -0.1775 -0.0705 -0.3631
17421W        W32552   2.209  13.278  12.735  0.1478  0.0552  0.0960
17422W        W32553  11.565  10.400   0.823  0.2257 -0.2435  0.0606
17423W        W32554   7.996  14.550  13.843  0.1592 -0.1521  0.0541
17424W        W32555   1.292   5.718   1.927 -0.0527  0.0621 -0.4054
17425W        W32556   3.956   2.545  11.877  0.2262  0.1620  0.1429
17426W        W32557  12.040   0.470   0.610 -0.0049 -0.0419  0.2515
17427W        W32558   3.943  10.526  15.331 -0.1811 -0.0274  0.2588
17428W        W32559  11.787   5.128  15.021  0.0992  0.1093  0.0425
17429W        W32560   4.611   9.823   0.258 -0.2660 -0.0151  0.1373
17430W        W32561  12.538  13.826   4.656  0.0232 -0.0421 -0.2194
17431W        W32562   2.462   8.296   0.069 -0.0713  0.0972 -0.0564
17432W        W32563  13.466  11.253  16.408 -0.1195 -0.1154 -0.1676
17433W        W32564  14.291   3.098   4.582  0.1182 -0.0421  0.4447
17434W        W32565  16.412  12.274  16.285 -0.0953  0.4844  0.2548
17435W        W32566   1.272  10.670   0.139  0.0039 -0.0358 -0.1506
17436W        W32567   4.137  15.491  13.661  0.2353  0.1667  0.0727
17437W        W32568  16.680   1.483   3.612 -0.1093 -0.1228 -0.0192
17438W        W32569   2.592   2.955   5.452  0.0364 -0.1280 -0.2837
17439W        W32570   1.625  11.266  12.771  0.0818  0.1231  0.0209
17440W        W32571  11.547  17.370  14.236  0.1932 -0.1051  0.1661
17441W        W32572   2.986   1.401  14.773  0.2470 -0.1662 -0.2899
17442W        W32573   7.350   8.974   2.356 -0.1501 -0.2085 -0.2861
17443W        W32574  11.923   6.902   0.209 -0.0627 -0.1424  0.1280
17444W        W32575  10.073  13.297  16.038 -0.0670  0.1609 -0.1009
17445W        W32576   1.820  14.402  13.409  0.0070 -0.2067 -0.2868
17446W        W32577   8.652  10.808  11.922  0.1520 -0.2180  0.0974
17447W        W32578  15.295   4.191  12.311  0.3309  0.0660  0.2109
17448W        W32579   1.571   1.890  14.153 -0.0260  0.2983 -0.0254
17449W        W32580  14.386   5.150   1.339  0.1068  0.1965  0.1631
17450W        W32581   2.609   0.376  13.845  0.2952 -0.2995 -0.1457
17451W        W32582   3.541  17.308   0.938  0.1575  0.3287 -0.2127
17452W        W32583  11.096  16.550   1.749 -0.1855 -0.2954  0.0072
17453W        W32584  11.461   3.523  12.477  0.0916  0.1011  0.0888
17454W        W32585   3.940   9.911  16.101 -0.0067 -0.0107 -0.1843
17455W        W32586   6.021   5.145   1.389  0.1364  0.1659  0.3664
17456W        W32587   6.861  10.919   5.486 -0.2268 -0.1303 -0.0110
17457W        W32588   7.421   1.593  13.870 -0.0076 -0.0188  0.3982
17458W        W32589   2.844  12.623   2.547  0.2143  0.1347  0.0317
17459W        W32590   1.054  12.233  13.094 -0.1130 -0.1813  0.0317
17460W        W32591   7.442  16.198  12.280  0.2301  0.3969  0.2079
17461W        W32592   6.282   3.042  13.180 -0.0651  0.2360  0.2344
17462W        W32593   0.264   1.940  16.517 -0.0328  0.4893 -0.0009
17463W        W32594   8.360   7.410   4.656  0.1264 -0.1436 -0.0086
17464W        W32595  17.325   0.238   1.520 -0.0523 -0.1945  0.2958
17465W        W32596  14.011   8.386   3.416 -0.0381  0.0588  0.0598
17466W        W32597   0.201   2.001  11.477  0.0308  0.3485  0.0166
17467W        W32598   3.570  16.483  16.320  0.0709 -0.2779 -0.1964
17468W        W32599   7.579  15.113  16.553 -0.0705  0.2639 -0.1481
17469W        W32600   7.452   6.091  12.555 -0.4226  0.0182  0.0661
17470W        W32601   4.747  13.018  11.797  0.1732  0.0830 -0.2050
17471W        W32602  17.164  11.605  15.293  0.0037 -0.2785  0.0399
17472W        W32603   2.444   0.699  12.308 -0.2033 -0.0582  0.2536
17473W        W32604   6.135  14.107  16.762  0.0259 -0.2446 -0.0335
17474W        W32605  16.185   1.396   3.698  0.0835 -0.2692  0.1568
17475W        W32606   8.798   4.815  13.782 -0.1237  0.1734 -0.1073
17476W        W32607   5.559   9.535  16.857 -0.0253 -0.0157  0.0299
17477W        W32608   3.438  10.283  16.718 -0.2058  0.2647  0.0994
17478W        W32609  12.445   8.288  14.812 -0.0849  0.1205 -0.1073
17479W        W32610   7.915   0.920  13.351 -0.0873  0.1599  0.1440
17480W        W32611   5.547   5.376   5.007 -0.4166 -0.0924 -0.1467
17481W        W32612   6.906   6.886  10.496 -0.1061 -0.0550  0.0860
17482W        W32613  10.981  15.903   2.566  0.0766  0.1715 -0.0399
17483W        W32614   5.972   0.362  14.638  0.0265  0.0566 -0.0673
17484W        W32615   1.351   2.066   5.341  0.1955  0.0481  0.6431
17485W        W32616  13.891   4.784  16.812  0.0732  0.1850  0.0388
17486W        W32617  10.080   6.943   5.432  0.0477 -0.2589 -0.2065
17487W        W32618  14.666  10.630  11.231 -0.1504 -0.1425  0.1290
17488W        W32619  12.759   1.728  16.147  0.1924  0.0286 -0.1620
17489W        W32620   8.642   7.566  12.005 -0.1446  0.1150  0.0529
17490W        W32621   7.417  17.283  13.787 -0.0254 -0.0386  0.2962
17491W        W32622  10.551  10.470   5.263  0.2023  0.1158  0.1208
17492W        W32623   7.841   8.542  13.959  0.0127  0.0147  0.1884
17493W        W32624   3.655  13.410  12.677  0.2306 -0.1238  0.0219
17494W        W32625   3.435  12.188  13.137 -0.2281 -0.0597 -0.0477
17495W        W32626  15.828   0.836   0.630 -0.2060  0.2024 -0.2733
17496W        W32627  14.971   8.516   4.174  0.0276 -0.1208  0.0941
17497W        W32628  11.526  17.675   4.747 -0.4367  0.2402  0.2062
17498W        W32629   8.546  12.630  11.680 -0.3519  0.1420  0.5434
17499W        W32630  12.234   6.508  13.154 -0.2042 -0.1922 -0.2321
17500W        W32631  10.040  13.963  15.050 -0.0546  0.0860  0.3566
17501W        W32632   1.605  12.417   1.337 -0.1192 -0.0368  0.0057
17502W        W32633   5.349  17.232   5.589 -0.0533 -0.1143  0.3318
17503W        W32634   5.737   4.896   4.094 -0.0341  0.1608  0.1962
17504W        W32635   6.814   6.109  16.414 -0.0996  0.0623 -0.1524
17505W        W32636   5.916  16.548   5.748  0.1580 -0.1537 -0.0705
17506W        W32637  17.491   2.159  11.295  0.3114  0.0887  0.0201
17507W        W32638  13.226  12.960   3.293 -0.0734  0.1001  0.0020
17508W        W32639   8.384   6.445   2.025  0.1709  0.0428  0.1044
17509W        W32640   9.221   7.739   2.105  0.0232  0.3808  0.0735
17510W        W32641  11.845   9.990  13.356 -0.1560  0.0548 -0.1773
17511W        W32642   3.977   3.635  12.882  0.0219  0.1262 -0.0142
17512W        W32643   0.141  15.077   4.576 -0.2487  0.0598  0.0646
17513W        W32644  10.156   3.245   1.914 -0.1135  0.1282 -0.1582
17514W        W32645   2.284   0.519  16.103 -0.1965  0.1236 -0.1946
17515W        W32646  17.464   6.996   4.134  0.1640 -0.4597  0.1548
17516W        W32647   7.191   8.585   0.108  0.1149  0.0415 -0.0733
17517W        W32648   1.375   8.568   3.712  0.0403  0.0366  0.0616
17518W        W32649   0.136   4.634   4.640 -0.2165 -0.2166  0.2194
17519W        W32650   4.314   0.348   2.209 -0.0145  0.0699  0.0857
17520W        W32651  14.324   1.389   4.301  0.1152 -0.2215 -0.3299
17521W        W32652  11.605   9.564  14.654  0.2505 -0.0613 -0.1407
17522W        W32653   1.689   7.386   2.044 -0.3309  0.1078 -0.0370
17523W        W32654   5.453   0.919   1.237  0.1065  0.0530  0.3674
17524W        W32655  17.578  16.804   3.807  0.3821 -0.0057  0.2379
17525W        W32656   5.002   0.594  13.068  0.1753  0.0566  0.0767
17526W        W32657   7.898   5.855  13.326 -0.0642  0.1537  0.1835
17527W        W32658  15.065  14.617  13.380  0.0342 -0.2430 -0.2341
17528W        W32659  13.860   8.605   2.562  0.2371  0.1273  0.0169
17529W        W32660  16.087   3.320  13.774  0.0373  0.2378  0.1013
17530W        W32661   7.901  12.915  12.240  0.0633 -0.1130  0.0734
17531W        W32662  17.663  16.874  13.940  0.2147  0.0154 -0.0760
17532W        W32663  16.726  16.989  11.269  0.1882  0.1283 -0.0988
17533W        W32664  14.468  16.982   3.856  0.3281 -0.1439  0.2214
17534W        W32665  13.615  15.887   5.577 -0.3929  0.0300 -0.0156
17535W        W32666  16.129   8.943  10.742  0.3500 -0.1999  0.1841
17536W        W32667  14.717  16.600   2.687 -0.0062  0.0209  0.1996
17537W        W32668  12.566  11.039  13.958 -0.0890 -0.0915 -0.1187
17538W        W32669   3.272  13.014   3.484  0.1650  0.3187  0.2730
17539W        W32670  15.703  12.926  13.204 -0.4253  0.0893 -0.2860
17540W        W32671  15.207  14.056  10.808  0.1860  0.0554  0.0042
17541W        W32672   1.380   8.825  13.911 -0.1030 -0.1076 -0.3238
17542W        W32673   8.728  12.653   0.966 -0.0845 -0.0644 -0.0548
17543W        W32674  13.737   4.537   3.620  0.1517  0.0612  0.1215
17544W        W32675   4.614   2.744  15.548 -0.3348  0.2694  0.0875
17545W        W32676   5.459  11.326  16.099  0.0431 -0.1285 -0.3132
17546W        W32677  16.534  10.062   0.637  0.1961  0.1444  0.3369
17547W        W32678   6.415   4.873   1.140 -0.1653 -0.0780 -0.1651
17548W        W32679  12.672  13.704  13.960  0.0441 -0.0548  0.0159
17549W        W32680  13.783  11.153  16.009 -0.1229  0.1578 -0.0849
17550W        W32681  14.674  15.180  14.455  0.1418  0.1888 -0.1521
17551W        W32682  12.099   0.076   0.215  0.1606 -0.3291  0.0287
17552W        W32683   4.529  16.741   5.599 -0.0141 -0.0426 -0.1646
17553W        W32684  17.701   2.768   0.461 -0.1560 -0.0602  0.1706
17554W        W32685   3.626  10.451   4.715 -0.3418  0.1604  0.1053
17555W        W32686  17.130   3.703   3.838 -0.1539  0.1356 -0.1093
17556W        W32687   6.427  12.978   2.679 -0.1126  0.1226 -0.0131
17557W        W32688  17.337   2.873  11.409 -0.1947  0.0592  0.2357
17558W        W32689  14.346   7.961   3.267  0.0879  0.2542 -0.3171
17559W        W32690  16.634  11.402  12.008  0.0844 -0.0090  0.2524
17560W        W32691   4.317   8.509   1.627 -0.1611 -0.0102  0.0062
17561W        W32692  10.189   8.894   1.454  0.0955  0.2713  0.3571
17562W        W32693  10.368   2.093  15.266  0.0631 -0.1963  0.0220
17563W        W32694   3.105   3.050   0.906 -0.1874  0.1733 -0.1770
17564W        W32695  16.338   4.384  15.962 -0.0822 -0.3425 -0.2390
17565W        W32696   4.685   7.114  14.099 -0.0794  0.1756  0.0485
17566W        W32697  13.781   3.278  15.194  0.3720  0.1754  0.0844
17567W        W32698   1.222   1.862   2.418  0.1276  0.4197 -0.1941
17568W        W32699   3.120   3.795  15.618  0.1644 -0.1815  0.1248
17569W        W32700  15.295   5.523   2.981 -0.2177  0.0793 -0.2186
17570W        W32701   4.932  14.357   2.892 -0.0901  0.0194  0.0236
17571W        W32702  12.613  12.556  11.535  0.3824 -0.2001 -0.0926
17572W        W32703   5.851   6.617   5.016 -0.2536 -0.2357 -0.2032
17573W        W32704   7.094   6.274   4.138  0.0539 -0.0930  0.2253
17574W        W32705   2.962   0.647   4.951 -0.0389 -0.0715 -0.0995
17575W        W32706  15.847  16.648   2.176  0.0899  0.0310 -0.2846
17576W        W32707   5.497  11.027   1.658  0.0760 -0.1074  0.0400
17577W        W32708  12.094   2.191  15.921 -0.3027  0.1774 -0.1316
17578W        W32709   6.618   1.690  13.682  0.0249 -0.0557 -0.2571
17579W        W32710   9.730   7.889   2.187 -0.1736 -0.1584 -0.1561
17580W        W32711   4.762  12.088   0.594  0.2120 -0.0569  0.2117
17581W        W32712  15.138   7.072   2.762 -0.2894 -0.0728  0.1200
17582W        W32713   6.590  14.180   0.737  0.1257  0.1296  0.1756
17583W        W32714  10.810  15.195   1.283 -0.2421 -0.2283  0.1953
17584W        W32715   8.632   7.576   6.115  0.3733 -0.1156  0.4933
17585W        W32716   7.745  15.653  11.733  0.0362 -0.3363  0.2427
17586W        W32717   5.461  16.337   1.083 -0.1061 -0.3432 -0.0368
17587W        W32718   7.433  10.042  16.772  0.0032  0.0127  0.2272
17588W        W32719  16.506   1.957   2.117 -0.0994 -0.1944 -0.2494
17589W        W32720   0.224   6.670  12.482 -0.0002 -0.1104  0.0540
17590W        W32721  17.425   3.644   0.052 -0.1259  0.1993  0.0680
17591W        W32722  12.099  13.355   0.526 -0.0841 -0.1138  0.1524
17592W        W32723   9.797  16.455   4.432 -0.1120  0.1031  0.1963
17593W        W32724   1.296   4.913  12.749 -0.1513 -0.4170  0.1980
17594W        W32725  12.545   5.302   1.271  0.0973  0.1638  0.0808
17595W        W32726   9.456   8.002  16.650 -0.2361 -0.0168 -0.1468
17596W        W32727   1.024  16.413   1.541 -0.0854  0.1978  0.0452
17597W        W32728  11.423   1.711   3.180 -0.1157  0.0993 -0.0471
17598W        W32729  12.331   6.093  12.494 -0.1310  0.2210 -0.0382
17599W        W32730   5.965   6.157   5.432  0.0106  0.2851 -0.1370
17600W        W32731  17.503   3.598  12.583  0.0869  0.1788  0.0657
17601W        W32732   7.493   4.956   5.004  0.0566  0.1131  0.0051
17602W        W32733  11.372  12.991   0.884  0.0362  0.2721  0.2929
17603W        W32734  12.359   5.704   5.473 -0.1178 -0.4995 -0.2543
17604W        W32735   0.215  15.064   0.039 -0.1061 -0.0875  0.1834
17605W        W32736   3.638  17.712   4.832  0.2522  0.2393 -0.0666
17606W        W32737  12.400   8.121   1.523 -0.0217  0.1608 -0.2514
17607W        W32738  10.888   8.224  13.175 -0.0642 -0.0682  0.0029
17608W        W32739  13.478  14.544  12.983 -0.4707  0.1736 -0.2201
17609W        W32740  14.121  13.754  12.593  0.0239 -0.2004  0.1281
17610W        W32741  14.540  10.254  11.570 -0.0352 -0.1666 -0.1323
17611W        W32742  11.168  13.039  16.332 -0.0450  0.0594  0.1995
17612W        W32743   6.899  11.871   5.660  0.0325  0.1623  0.3196
17613W        W32744  17.038  15.010   5.437  0.2350  0.1467  0.1246
17614W        W32745  10.265  16.766  16.200  0.0895 -0.4163 -0.0977
17615W        W32746   0.114  17.673   4.487  0.1499  0.2339  0.2638
17616W        W32747   8.324  12.531   5.038  0.1660 -0.0643  0.0725
17617W        W32748   2.283  16.205   1.811 -0.1904  0.2025 -0.0476
17618W        W32749   9.407  16.605  12.381  0.1074  0.0706  0.0909
17619W        W32750   8.989   4.958   0.315  0.3445  0.1079  0.2837
17620W        W32751  11.818   3.204   2.283  0.1043  0.7220 -0.3431
17621W        W32752   1.407   9.863   5.922 -0.1015 -0.1690 -0.1312
17622W        W32753   4.047  16.542   2.273  0.1735  0.2601  0.1152
17623W        W32754  15.076   9.948  14.505 -0.1719 -0.0088 -0.4860
17624W        W32755   3.115   1.345  12.115  0.0472 -0.2829  0.2424
17625W        W32756  10.682  10.243   0.977 -0.0238  0.4777  0.0700
17626W        W32757   7.037  16.872   5.937  0.0954  0.3740  0.0165
17627W        W32758  10.026   3.756  14.891 -0.1606 -0.0939 -0.1683
17628W        W32759   8.915   9.079  16.588 -0.0591 -0.0432 -0.0415
17629W        W32760   2.429   4.864  12.196 -0.1752 -0.0620 -0.1349
17630W        W32761  16.329  15.933   5.284 -0.0022 -0.2726 -0.0122
17631W        W32762  17.207   1.525   0.290 -0.1004 -0.1729  0.2015
17632W        W32763  12.274   5.842   5.016 -0.1413 -0.0390 -0.2335
17633W        W32764   6.531   3.919   2.550 -0.0309 -0.1006  0.0852
17634W        W32765  11.086  10.491   5.953  0.1900  0.0028 -0.1375
17635W        W32766  14.232   4.312  11.411  0.0253  0.3478 -0.0392
17636W        W32767  13.381   5.876  11.722 -0.2190  0.2943  0.0100
17637W        W32768   4.454  10.628  15.771  0.1251 -0.1535  0.1870
17638W        W32769  16.930   6.814  13.651  0.1943 -0.0687 -0.0126
17639W        W32770   7.981   8.156   5.297  0.0668  0.0255  0.3356
17640W        W32771   9.616  13.776  15.778 -0.0946  0.1192  0.2275
17641W        W32772  14.372  15.426   2.299  0.0759  0.0330 -0.2683
17642W        W32773   2.653  15.874  15.164 -0.1381 -0.2209  0.0136
17643W        W32774   2.219  15.792   1.196  0.3146  0.0989 -0.0612
17644W        W32775   7.034   9.101  15.977  0.0288 -0.0549 -0.0055
17645W        W32776   7.047  16.858  11.926  0.2077 -0.0198 -0.1106
17646W        W32777   0.092   2.345  16.740 -0.1188 -0.2079 -0.1625
17647W        W32778   1.891  12.491   1.994  0.3288 -0.2511  0.0548
17648W        W32779   0.360   5.852  15.451  0.2355  0.0456 -0.2470
17649W        W32780  16.456   4.599  15.401 -0.0455 -0.2998  0.0975
17650W        W32781   0.047   3.943   3.633 -0.0257 -0.2221  0.1062
17651W        W32782  13.603   0.762  13.449 -0.2217 -0.1094 -0.2334
17652W        W32783   2.759  12.831  12.808  0.1883  0.0030  0.0180
17653W        W32784  12.183   7.344  14.681 -0.0925  0.1359 -0.4309
17654W        W32785  10.407   9.998  14.982  0.1214  0.2295  0.1879
17655W        W32786  13.318   6.007   4.174 -0.1484  0.2867 -0.0338
17656W        W32787   0.718   4.958  16.767 -0.1244  0.2010 -0.0215
17657W        W32788   4.223   8.727  14.211 -0.0412 -0.2476 -0.3037
17658W        W32789  14.892  11.292   2.073  0.0671 -0.1258  0.0280
17659W        W32790   1.999   5.352   3.335  0.0600 -0.0683  0.2967
17660W        W32791  11.233   2.923   1.550  0.1441  0.0500  0.4080
17661W        W32792   0.424  14.935   5.233 -0.0562  0.0856  0.0394
17662W        W32793  12.474   2.935  14.525  0.1170 -0.1001  0.0245
17663W        W32794   7.437   1.546   5.323 -0.2667 -0.1203  0.0905
17664W        W32795  16.142  15.702  14.343  0.0386  0.2163 -0.2226
17665W        W32796   4.639   8.695  16.907  0.1338 -0.1217 -0.1644
17666W        W32797  16.080   5.941  14.570  0.0301  0.0092  0.0771
17667W        W32798  17.413  14.768  12.133  0.1813  0.0556  0.1562
17668W        W32799   4.066  16.615  11.569 -0.0771  0.0389  0.0109
17669W        W32800  16.583   6.208   3.427 -0.3358  0.2696  0.0404
17670W        W32801   6.332  14.587  13.450 -0.0141  0.0195  0.0012
17671W        W32802  13.117  11.653  14.436 -0.3546 -0.0987 -0.1762
17672W        W32803   0.094   1.073  16.383 -0.3285  0.0169 -0.3679
17673W        W32804  13.033   3.537   6.156  0.1252  0.2880  0.0113
17674W        W32805   4.186   7.740   6.133 -0.1342 -0.1594  0.3601
17675W        W32806   8.675  13.772  13.466 -0.0017  0.2455  0.0692
17676W        W32807   0.723   0.802   0.179 -0.0019  0.1094  0.2404
17677W        W32808   9.728  16.120   1.128 -0.0459 -0.1763 -0.1791
17678W        W32809   3.159  14.299   0.056 -0.0756  0.1152  0.2260
17679W        W32810   0.829   1.961   4.504  0.0282  0.0742  0.1716
17680W        W32811   9.478   9.251  11.677 -0.0349  0.1720 -0.1561
17681W        W32812  12.623   1.327  15.240 -0.0303 -0.3381 -0.0887
17682W        W32813   9.828   4.519  15.426 -0.0665  0.0260 -0.2184
17683W        W32814   8.539   6.690   0.372 -0.1704  0.0844  0.0664
17684W        W32815   8.179  11.960  15.216  0.1254 -0.2796 -0.0803
17685W        W32816   6.738   7.886   3.527  0.0571  0.1834  0.1907
17686W        W32817   5.065   1.545  14.353 -0.0316  0.0050 -0.1533
17687W        W32818  16.933   9.676  12.696 -0.2188 -0.1835 -0.3030
17688W        W32819   0.582  11.045   1.398  0.0694  0.0989 -0.1568
17689W        W32820  10.086  12.626   1.829 -0.2308  0.1593  0.0481
17690W        W32821  13.931  12.454  16.272  0.1623  0.2075 -0.2563
17691W        W32822  14.305  15.696  11.540  0.1026  0.0169 -0.0789
17692W        W32823  13.151   7.973   1.767  0.2854 -0.5350 -0.0615
17693W        W32824  16.506   9.766   3.924  0.2815 -0.0841 -0.2007
17694W        W32825   9.291   7.943  11.333 -0.0392 -0.0201 -0.2232
17695W        W32826   7.256  14.291   3.558  0.2257 -0.0940 -0.0937
17696W        W32827  14.876   2.917  12.079 -0.1586  0.2033 -0.1413
17697W        W32828  11.135   7.198   3.844 -0.1460  0.0326 -0.1246
17698W        W32829   5.116   9.357  16.699 -0.2499 -0.1089 -0.0009
17699W        W32830   9.492   3.288  16.558  0.0278 -0.0124  0.0378
17700W        W32831  10.667  12.515   6.117  0.1162  0.2354 -0.0472
17701W        W32832   9.389   3.068   3.175 -0.0102  0.0741 -0.0221
17702W        W32833   5.844   7.991   6.230  0.2022 -0.3884 -0.1195
17703W        W32834   3.751  17.618  13.392 -0.3204 -0.0894 -0.0084
17704W        W32835   3.410  15.160   0.182 -0.3169 -0.2379  0.2030
17705W        W32836  12.579   3.096   2.706  0.0261 -0.0752  0.3338
17706W        W32837  16.996  11.343   3.831 -0.0855  0.4525  0.0751
17707W        W32838  13.067   9.403  12.649 -0.2369  0.0762 -0.0893
17708W        W32839   9.058   1.982  14.928 -0.2474 -0.2006 -0.1437
17709W        W32840   9.540  16.751  15.417 -0.0137  0.0548  0.3247
17710W        W32841  13.241   0.129   2.510  0.2237 -0.1112  0.0547
17711W        W32842  17.345  13.878   2.323  0.0777 -0.1594 -0.1005
17712W        W32843  14.028   1.010  11.985 -0.0683 -0.1114 -0.1730
17713W        W32844  17.683   3.799   6.164  0.1775  0.2365 -0.3069
17714W        W32845  12.773  16.909   2.374  0.0542 -0.2673  0.0689
17715W        W32846  15.757   9.396   2.565  0.1038  0.1698  0.1392
17716W        W32847  10.907   8.408   0.899 -0.1198 -0.0987 -0.0009
17717W        W32848   3.301   5.458  14.395  0.3398  0.2932 -0.0633
17718W        W32849  15.686  11.484   1.990 -0.3409  0.1322 -0.2629
17719W        W32850  15.540   2.784   3.114  0.1868  0.0230  0.0670
17720W        W32851   8.539  17.695  14.873 -0.1174  0.0179 -0.1230
17721W        W32852  16.320   2.104   2.898 -0.0464  0.0904  0.2080
17722W        W32853  15.508  10.817  11.416 -0.0513  0.0366 -0.1602
17723W        W32854  14.413   1.489  11.277 -0.0681 -0.0653 -0.0882
17724W        W32855  17.229   7.348  14.507  0.1282 -0.2038  0.6144
17725W        W32856  17.482  14.320   3.558 -0.3081 -0.1555  0.2811
17726W        W32857   2.904  12.211   3.349  0.2789  0.2438  0.1095
17727W        W32858   3.423  17.182   0.100 -0.1751 -0.0608 -0.1802
17728W        W32859   5.259  13.449  14.010 -0.1206  0.1332  0.0040
17729W        W32860  17.265   9.163   0.951 -0.1873 -0.3125  0.1305
17730W        W32861  13.073   5.014  13.343 -0.0583  0.1678  0.0688
17731W        W32862  13.637   9.641   3.905 -0.0552 -0.3050  0.0364
17732W        W32863  14.376  12.042  15.623  0.1366 -0.1046  0.1300
17733W        W32864  12.655   2.172  11.894 -0.1185  0.1366 -0.2611
17734W        W32865  16.034  17.193   4.889  0.0143  0.2414 -0.0864
17735W        W32866  16.150   8.318  16.147 -0.4317 -0.0197  0.1914
17736W        W32867   5.503   8.673   3.894 -0.1153 -0.2809  0.1498
17737W        W32868  17.444   7.618   4.231  0.0436 -0.2749  0.0342
17738W        W32869  14.834  13.230   2.997  0.0379  0.1364  0.1567
17739W        W32870   4.767   9.100   4.391  0.0660 -0.0457  0.0861
17740W        W32871   9.384  10.605   4.963  0.1544 -0.1573  0.0749
17741W        W32872   7.065   2.626   2.801 -0.3511 -0.1095  0.0545
17742W        W32873   0.180  10.932   6.215 -0.0716  0.2653 -0.1361
17743W        W32874  11.915   7.874   0.527  0.4474  0.0904  0.0661
17744W        W32875   4.872   8.785   4.762  0.0268  0.0433  0.1598
17745W        W32876  10.941   7.939   0.592  0.0667  0.2923 -0.1190
17746W        W32877   5.756   7.700  11.049  0.1209 -0.1154 -0.0614
17747W        W32878   1.414   2.854  14.525  0.0613 -0.0935 -0.0027
17748W        W32879  14.355  13.246   1.454  0.3353  0.0776  0.0096
17749W        W32880   1.485  10.502  13.407  0.0860  0.2184 -0.3034
17750W        W32881  11.010   5.925   0.344  0.1849 -0.0443  0.0487
17751W        W32882   2.542   6.544   0.891 -0.0344  0.0795  0.3050
17752W        W32883  10.574   6.578  15.873  0.1830  0.1126 -0.0713
17753W        W32884   8.521  16.223  15.236 -0.0763  0.1118  0.2690
17754W        W32885   9.631   9.966   2.237  0.1885  0.2233 -0.1053
17755W        W32886  16.049  10.731   0.865  0.2604 -0.1027  0.1389
17756W        W32887  11.288   8.784   1.470  0.0531 -0.2447 -0.1390
17757W        W32888  11.758  16.717   3.800 -0.3997  0.1722  0.2451
17758W        W32889  12.428  13.784  12.621  0.0197 -0.1807  0.1677
17759W        W32890  16.825   1.659  13.564  0.2830 -0.1535  0.2372
17760W        W32891   3.449  12.070  14.357  0.0251  0.0462  0.2646
17761W        W32892  13.264  10.033   0.863  0.2861 -0.0099 -0.0032
17762W        W32893  17.212  10.503   4.778 -0.2284  0.2186 -0.0329
17763W        W32894  16.482   5.271   5.603 -0.0007 -0.2428 -0.1940
17764W        W32895  10.768   2.492   0.071  0.0600  0.2093  0.0442
17765W        W32896   2.705  16.784   5.000 -0.1291  0.0042 -0.0307
17766W        W32897  13.494  11.697   4.902  0.0417 -0.2862 -0.1181
17767W        W32898   8.136  16.349   6.323  0.1893 -0.0174 -0.0084
17768W        W32899  13.596   3.052  12.426  0.1715 -0.3300 -0.0462
17769W        W32900  17.467   5.071   2.912  0.0934  0.2357 -0.0561
17770W        W32901  10.331   0.851   4.981  0.0142  0.1231 -0.0553
17771W        W32902  12.831  13.869   0.121  0.1664 -0.0564  0.3383
17772W        W32903   5.901  11.446   2.934 -0.0931  0.2039  0.1908
17773W        W32904   6.536   1.507  15.160 -0.1710 -0.2172  0.0096
17774W        W32905  12.817  14.688   4.495 -0.3628  0.2204 -0.1719
17775W        W32906   2.115  13.373  14.161 -0.0888  0.0600  0.2992
17776W        W32907   6.768  11.191   5.031  0.0243 -0.0687  0.1526
17777W        W32908   4.451   5.738   1.338 -0.1873  0.1208  0.1361
17778W        W32909  10.100   2.601   1.840 -0.0285  0.1550 -0.0073
17779W        W32910  15.683   4.874  14.918  0.4198 -0.0340 -0.1239
17780W        W32911   3.667   3.209  15.825 -0.2382  0.0939  0.2105
17781W        W32912  10.222  12.062  11.689  0.0631 -0.0747 -0.0698
17782W        W32913   8.158   4.518   2.086 -0.1953 -0.0496  0.2644
17783W        W32914   5.879   4.487   4.726 -0.1243 -0.1840 -0.2015
17784W        W32915   8.962   6.389   4.594 -0.2726 -0.2892  0.2435
17785W        W32916   6.990   1.953  12.994  0.0117 -0.2212  0.0878
17786W        W32917   2.020  13.320   0.614 -0.1490  0.0034  0.0276
17787W        W32918   2.297   4.375  11.395  0.3698  0.1116 -0.2130
17788W        W32919   1.975   9.570  16.121  0.2372  0.1080 -0.0586
17789W        W32920   0.550  13.945   6.136  0.1887 -0.2575 -0.0039
17790W        W32921   7.734  11.725   4.132  0.1432  0.0199 -0.1995
17791W        W32922  17.673   6.202   4.951  0.0849  0.0702  0.0864
17792W        W32923  11.478   9.519   3.301 -0.1060  0.0986  0.1007
17793W        W32924   0.539  13.120  16.532  0.2166 -0.3582 -0.1119
17794W        W32925  16.058  11.767   5.304 -0.0713 -0.3196 -0.0518
17795W        W32926   8.212   2.613  16.418 -0.2296  0.1948  0.2004
17796W        W32927  10.974  11.382   3.948  0.0938  0.0904  0.3295
17797W        W32928  12.644   3.965  15.809 -0.3295 -0.0283  0.0843
17798W        W32929   6.091   5.307  13.287  0.0398 -0.0460 -0.2860
17799W        W32930  16.558   3.869   0.870 -0.0682  0.0310  0.1049
17800W        W32931   7.936  10.389   6.220  0.3366 -0.1182 -0.2508
17801W        W32932   0.270   1.585   3.565 -0.0226 -0.0848  0.1660
17802W        W32933  12.489   7.282   0.533 -0.0677  0.0473 -0.0380
17803W        W32934   8.456  10.354  16.881 -0.2149  0.2366  0.1471
17804W        W32935   6.797   8.774   3.980 -0.2562 -0.0409 -0.1894
17805W        W32936   1.862  13.601  16.303 -0.2882  0.0778  0.1238
17806W        W32937  13.304  17.039   4.737 -0.3171  0.0032  0.0937
17807W        W32938  14.003  13.809  16.282 -0.2900  0.0449  0.1583
17808W        W32939   9.940   1.124  13.255  0.1850 -0.1856 -0.0663
17809W        W32940  16.296  11.755  15.968  0.1379 -0.0482  0.0854
17810W        W32941   2.333   8.706  16.657  0.1475 -0.0944 -0.2660
17811W        W32942  10.116   8.620   2.730  0.0277  0.0298 -0.1529
17812W        W32943   4.154   5.099   5.147  0.1886 -0.0769  0.0473
17813W        W32944  17.389   2.028  13.862  0.2788  0.3169 -0.1271
17814W        W32945   9.476  11.694  15.108 -0.2888  0.0812 -0.1328
17815W        W32946  15.739   4.426  14.673  0.2160  0.0701  0.1843
17816W        W32947   9.274  15.356   1.203 -0.0521  0.1591 -0.0770
17817W        W32948  12.244  12.762   1.046  0.2352  0.0098  0.1944
17818W        W32949   7.848   2.299  11.868 -0.2574  0.0728 -0.0367
17819W        W32950   5.131  15.183  12.903 -0.0179  0.0522  0.0215
17820W        W32951  16.133  15.871   2.864 -0.1928 -0.0099 -0.0623
17821W        W32952  10.010  15.227   5.738  0.0242 -0.4623  0.0199
17822W        W32953  16.533  13.435  16.500 -0.0960 -0.1339 -0.2084
17823W        W32954   2.416   3.029  16.286  0.1747 -0.2245  0.0500
17824W        W32955  17.108  11.987  12.965 -0.1172 -0.1256  0.0124
17825W        W32956  11.924  10.331  14.226  0.0401 -0.1397 -0.1959
17826W        W32957   2.528  12.322   3.732 -0.3907  0.0738 -0.2200
17827W        W32958  17.578   2.355   3.436  0.0857  0.0358 -0.1215
17828W        W32959   3.620  15.559  13.640  0.2563  0.1289  0.0442
17829W        W32960  12.870   8.851  13.837 -0.0212  0.1752  0.0625
17830W        W32961   9.224  13.156  14.080 -0.5398  0.2961 -0.1984
17831W        W32962  10.855  16.729  16.375  0.1956 -0.1254  0.2021
17832W        W32963   5.638   8.507  16.666  0.2519  0.0199  0.2703
17833W        W32964  14.236   3.836   4.169  0.1336 -0.1581 -0.2903
17834W        W32965   5.666  10.339   4.052 -0.2446  0.0214  0.1114
17835W        W32966  14.351  17.357   5.335  0.0720 -0.0971  0.2588
17836W        W32967   4.551  15.655  15.602  0.0342  0.0806 -0.0328
17837W        W32968   4.767  10.938  12.908  0.1698  0.2287  0.1516
17838W        W32969  17.034   5.371   2.754 -0.1431 -0.1745  0.1661
17839W        W32970   5.723  10.954  13.848  0.3769  0.1384 -0.2027
17840W        W32971  10.993   7.478  13.962 -0.4576  0.0984 -0.0586
17841W        W32972  13.514   0.248  13.467  0.0558 -0.0221  0.2409
17842W        W32973   4.859   6.582   1.682 -0.4329 -0.2309 -0.1285
17843W        W32974  12.150   0.555  12.889  0.0513  0.0327 -0.0585
17844W        W32975   8.624   3.446   2.983  0.1292 -0.1652  0.0251
17845W        W32976   2.358  16.697   4.468  0.2211 -0.0625  0.1894
17846W        W32977  13.829   0.558   3.053  0.0461 -0.1006 -0.2799
17847W        W32978   9.399   0.645   2.924 -0.2062  0.0326 -0.2348
17848W        W32979   5.626   7.853  12.644  0.0942  0.1532 -0.1299
17849W        W32980   8.607   3.592  14.896  0.4137  0.3931  0.1557
17850W        W32981   6.843  17.442  13.699 -0.1640 -0.0200 -0.0903
17851W        W32982   0.419  12.330  15.068 -0.0556  0.1840  0.0499
17852W        W32983   4.613  11.054  16.619 -0.3286  0.0033 -0.4019
17853W        W32984   3.721   9.028   2.824 -0.4318  0.0224  0.1409
17854W        W32985   2.822  11.923  16.436 -0.2031 -0.3506 -0.2628
17855W        W32986   3.549  11.094  14.223 -0.1250  0.1291  0.0430
17856W        W32987  12.378  10.269  16.484 -0.3395 -0.2676  0.4133
17857W        W32988  12.416  12.094  15.762  0.0421 -0.1580  0.0271
17858W        W32989   9.885   6.336   4.749  0.0508  0.3191 -0.1076
17859W        W32990  14.718   3.007  15.400  0.3545 -0.0135 -0.0483
17860W        W32991   7.000   9.104   1.493 -0.3284  0.1817 -0.4581
17861W        W32992   7.906   5.149   0.429  0.1386  0.2895 -0.0984
17862W        W32993   7.036   8.898  11.534  0.1376 -0.0338 -0.2204
17863W        W32994  16.472  12.611   2.810  0.5450 -0.0158  0.1221
17864W        W32995  10.101   6.344   2.961 -0.0853 -0.3576  0.1989
17865W        W32996   1.864   2.993   3.791 -0.3352 -0.0271 -0.1174
17866W        W32997  11.317   2.490  14.454 -0.2279 -0.0108  0.1444
17867W        W32998  12.468  13.827  14.443 -0.0313  0.0114 -0.1475
17868W        W32999  13.768   0.619  14.963 -0.1158 -0.1722  0.2364
17869W        W33000  10.925   8.670  10.329  0.0781 -0.1535 -0.0590
17870W        W33001  11.501   6.602  15.450 -0.1740  0.0696 -0.1403
17871W        W33002  11.890   9.467  16.903 -0.0082 -0.3468  0.4334
17872W        W33003  17.065   6.246  14.769 -0.0921  0.0584 -0.1785
17873W        W33004   6.703   0.741   5.424  0.1180  0.2079 -0.0282
17874W        W33005   9.551   0.368   1.251  0.2958  0.3178 -0.0779
17875W        W33006  16.453  16.326  12.139  0.0108 -0.1472 -0.0560
17876W        W33007   4.049  13.923   3.302  0.2406  0.1233  0.1533
17877W        W33008   5.268  10.317   2.067 -0.0792  0.1355  0.1787
17878W        W33009   5.907   4.913   0.991  0.2385 -0.3155  0.3498
17879W        W33010   3.539  13.054  12.214 -0.0207 -0.0718 -0.1422
17880W        W33011  15.885  15.791   3.703 -0.0196 -0.1442 -0.1310
17881W        W33012  17.463  11.135  15.411 -0.0270 -0.1633  0.0032
17882W        W33013   4.559   9.176  16.673 -0.2724 -0.3052  0.3103
17883W        W33014   3.567  11.477   3.167  0.3076 -0.0635 -0.0725
17884W        W33015  14.486  10.344  12.075 -0.0207 -0.1350 -0.0112
17885W        W33016   1.899   8.198   0.817 -0.1348 -0.0855  0.0071
17886W        W33017   0.486   6.699   2.088  0.3179 -0.0450  0.2285
17887W        W33018   3.652   6.303  13.497  0.0852  0.0921  0.0945
17888W        W33019  11.434   3.050  13.528 -0.0018  0.0909 -0.1171
17889W        W33020  10.257  16.482   6.741  0.1663  0.0914  0.0325
17890W        W33021   7.034  14.968   5.306 -0.1247  0.1290 -0.1467
17891W        W33022   1.486  10.888  16.549  0.0937 -0.0009  0.1942
17892W        W33023  12.272  17.035   1.214 -0.1384 -0.1452 -0.0584
17893W        W33024   7.957  11.584   6.640 -0.0795 -0.0207  0.0215
17894W        W33025  17.096   1.050   0.099 -0.1276 -0.0830  0.0272
17895W        W33026   4.811   3.656  14.016  0.1153 -0.1221 -0.0965
17896W        W33027  11.805   3.018  11.262 -0.1228 -0.1133  0.2314
17897W        W33028   8.584   1.122   3.904 -0.1047  0.0103 -0.0328
17898W        W33029   3.661   3.314   3.238 -0.2769 -0.0844  0.1813
17899W        W33030  16.180   3.128   1.081  0.1147  0.4152 -0.0619
17900W        W33031  17.377   1.066   2.438 -0.0800 -0.0128 -0.0488
17901W        W33032  16.523  13.004   3.540  0.0159 -0.1525  0.1317
17902W        W33033   6.661   5.059  15.456 -0.0838 -0.0103 -0.3535
17903W        W33034   6.532   6.664  11.958  0.1190  0.2269  0.0174
17904W        W33035   8.380  11.862  14.757  0.3207  0.2639  0.1429
17905W        W33036  12.366  12.446   0.569 -0.1030 -0.2043  0.2461
17906W        W33037   9.567   9.582  16.721 -0.0910 -0.0822  0.1881
17907W        W33038  16.514   2.242  12.226  0.0296 -0.1334 -0.0078
17908W        W33039   6.941   8.687   2.065  0.1204 -0.1665  0.0958
17909W        W33040  14.592   4.137  11.809  0.0727  0.0293  0.1845
17910W        W33041   2.521   7.152   0.013  0.2596 -0.1649  0.3703
17911W        W33042  12.918  11.328  13.482  0.0659  0.3917 -0.1547
17912W        W33043   9.485  13.805  12.725 -0.2032  0.2515 -0.1372
17913W        W33044   6.810   5.932  13.638 -0.0161 -0.0115 -0.0444
17914W        W33045  15.154  14.959  14.335  0.0036 -0.3057 -0.1201
17915W        W33046  14.215  10.160  16.040  0.4077  0.3172 -0.0786
17916W        W33047   8.249   5.766  12.320  0.0105 -0.0749 -0.1721
17917W        W33048  15.630   8.389   2.902 -0.0426  0.0404 -0.1909
17918W        W33049   8.894  16.086   5.943  0.3262  0.1992  0.0255
17919W        W33050   8.026   5.690  15.309 -0.1277  0.0181  0.2105
17920W        W33051   9.558  10.765  13.031 -0.0597 -0.1629  0.2693
17921W        W33052  12.397   5.823  11.525 -0.0444  0.0904 -0.2121
17922W        W33053   1.462  12.579   0.865  0.0974  0.0899 -0.1344
17923W        W33054   9.087  16.822  16.379  0.0028  0.1498  0.1439
17924W        W33055  11.059   1.881   2.839  0.0199  0.1109 -0.1466
17925W        W33056   4.336   6.518   1.629 -0.0459  0.0267  0.1068
17926W        W33057   7.836   6.763   5.171  0.1759  0.0856  0.1114
17927W        W33058   6.186   5.980   4.462 -0.0249 -0.0815  0.3369
17928W        W33059   4.172   3.538   3.516  0.0214  0.1685 -0.1214
17929W        W33060  10.605  16.795   0.934 -0.0045 -0.0274  0.3233
17930W        W33061   2.973   5.459   2.323 -0.0868 -0.4984 -0.1439
17931W        W33062  12.701  17.601   0.283 -0.2420  0.1344 -0.3410
17932W        W33063   5.295  12.000  14.645  0.0343  0.1484  0.1239
17933W        W33064  11.572  16.154  16.017  0.0645 -0.1431 -0.2413
17934W        W33065  13.128  10.723  14.633 -0.1517 -0.0365 -0.3028
17935W        W33066   2.774  16.729  12.208 -0.2172 -0.0864  0.0737
17936W        W33067   9.556  14.485  13.949 -0.0511  0.1205  0.0493
17937W        W33068   7.761  15.990   2.659 -0.0831 -0.1046 -0.0257
17938W        W33069   0.627  14.272   3.491 -0.0519  0.0735 -0.0824
17939W        W33070   9.015  14.921   2.101  0.0633 -0.0852  0.2394
17940W        W33071   1.609  13.486  13.322 -0.0496  0.0510 -0.0986
17941W        W33072   0.533  17.284  16.814 -0.2970  0.0052 -0.3490
17942W        W33073  14.574   6.983   1.998  0.3005 -0.0133  0.0891
17943W        W33074  15.304  10.316   3.291 -0.0412 -0.1739  0.0559
17944W        W33075   4.776  16.624  16.937 -0.2452  0.3321 -0.1868
17945W        W33076   5.237  17.465  14.452 -0.0466 -0.1936 -0.1134
17946W        W33077   0.281   6.646  14.217 -0.2664  0.1607  0.2231
17947W        W33078  17.165   2.219   4.584  0.5112 -0.2489  0.3975
17948W        W33079   5.487   1.070  12.722 -0.0565  0.1183  0.0977
17949W        W33080  15.856   4.028  14.307 -0.1393  0.2402 -0.0081
17950W        W33081   0.634   7.117  15.531  0.0943  0.0003 -0.0193
17951W        W33082   1.326  14.440  11.283  0.1978  0.0305 -0.1689
17952W        W33083  11.889  16.599  14.717 -0.2621  0.0596  0.1776
17953W        W33084   2.660   5.240   5.893 -0.1134  0.1690 -0.1066
17954W        W33085   1.267  17.518   0.456  0.0832 -0.2986 -0.2238
17955W        W33086   9.191   0.192   3.040  0.0732  0.2936  0.0183
17956W        W33087   1.577   7.444  15.738 -0.1384 -0.1995  0.0391
17957W        W33088   6.050   2.175  16.021 -0.3387  0.0073  0.3529
17958W        W33089  17.379   5.945  16.179 -0.2310  0.3161 -0.1718
17959W        W33090  14.622   6.655  13.306 -0.1055 -0.1285 -0.1137
17960W        W33091   4.911   2.157  12.933  0.0084  0.1431  0.2819
17961W        W33092   2.164  11.635   5.554 -0.1862  0.0118 -0.1257
17962W        W33093  10.706   6.547  16.780 -0.1295 -0.2723 -0.1566
17963W        W33094  15.957   4.692   0.717 -0.1869  0.1752 -0.2239
17964W        W33095  16.974   6.760   2.318 -0.0290  0.0025  0.0636
17965W        W33096  10.437   0.918  12.073 -0.3769 -0.1868  0.3020
17966W        W33097  11.912  12.244  13.692  0.1485 -0.1280  0.4813
17967W        W33098  12.501   6.565  12.605  0.0383  0.0872 -0.2307
17968W        W33099   9.010   8.483   0.316 -0.3172  0.0441  0.3449
17969W        W33100   9.310   5.108   0.638 -0.0478  0.0558  0.2772
17970W        W33101   7.281   1.612  13.294 -0.1806 -0.0990  0.0327
17971W        W33102   0.934   1.936  15.467  0.3536 -0.2884 -0.2350
17972W        W33103   7.304  13.602  12.251 -0.1419  0.0195 -0.1602
17973W        W33104   3.482   0.905   0.397  0.0609 -0.0005  0.1881
17974W        W33105   8.425  16.476  15.665  0.0327 -0.0190 -0.1974
17975W        W33106   6.385   2.290   4.170  0.1400  0.0180  0.3148
17976W        W33107  10.574  11.281   5.371  0.2084 -0.0254 -0.0377
17977W        W33108   2.917   4.749  13.844 -0.0141  0.1128 -0.0158
17978W        W33109   3.404  11.344  12.543 -0.2513 -0.0552 -0.1964
17979W        W33110  12.942   0.532  15.561  0.2737 -0.1186  0.0891
17980W        W33111   8.925   5.770   1.871 -0.1847  0.1816 -0.4036
17981W        W33112   0.952  12.873  10.711 -0.0438 -0.0904 -0.2560
17982W        W33113  13.161   2.165  11.759 -0.0661  0.1611 -0.0334
17983W        W33114   4.594   0.916  13.191  0.0493  0.0868  0.2264
17984W        W33115   6.401  16.295   4.516 -0.1252  0.2033 -0.3491
17985W        W33116   0.572   2.499   6.253  0.1406  0.3086 -0.0909
17986W        W33117   9.713   6.804   0.749 -0.1110  0.0783  0.0456
17987W        W33118  13.763   2.703  13.960  0.0362 -0.1586 -0.2398
17988W        W33119   7.724   5.640   2.097 -0.1452  0.0022  0.0157
17989W        W33120   1.310   3.738  11.453 -0.2026  0.0790 -0.1950
17990W        W33121   8.241   4.266   0.354  0.0729  0.3264 -0.1768
17991W        W33122  12.058   9.501   5.241 -0.0926 -0.1587  0.0426
17992W        W33123   6.048   4.120  13.517 -0.0066  0.0758  0.1419
17993W        W33124  10.218   7.116  16.404  0.3052 -0.0272 -0.1576
17994W        W33125  12.844  12.819  13.596 -0.1365 -0.0444 -0.0363
17995W        W33126  14.313   0.817   2.226  0.0698  0.0789  0.0368
17996W        W33127  13.491  10.697  15.871 -0.1946 -0.1457  0.1196
17997W        W33128  16.802   5.946  13.655  0.2662 -0.0013  0.0119
17998W        W33129   6.665   1.036   2.081 -0.3451 -0.3761  0.1313
17999W        W33130   9.325   7.459   4.813 -0.0816 -0.0975 -0.3109
18000W        W33131   3.560  13.636  14.377 -0.2446 -0.0262  0.0792
18001W        W33132   8.256  14.997   0.568 -0.0462 -0.0127 -0.3010
18002W        W33133  15.193   2.388   0.806  0.1377 -0.2055  0.2029
18003W        W33134   5.851  14.967  11.831  0.1293 -0.1836 -0.2220
18004W        W33135   9.709   4.697  11.592 -0.1488 -0.0026 -0.0664
18005W        W33136   4.863  11.108   1.071  0.2274  0.0866  0.1918
18006W        W33137  14.828   5.289   5.038  0.0577  0.0422 -0.2504
18007W        W33138   4.277   5.454   0.529 -0.2799  0.2325 -0.1027
18008W        W33139   2.376   7.327  13.301  0.1018  0.0470 -0.1742
18009W        W33140  14.839  13.855   3.657  0.0092 -0.0131 -0.0761
18010W        W33141   0.086  12.651   2.230  0.1550 -0.1118 -0.0248
18011W        W33142   3.964   8.034  14.996  0.1264  0.0484 -0.2256
18012W        W33143   9.019   4.185  14.417  0.3934 -0.1797  0.1483
18013W        W33144   9.341   8.774  12.261 -0.0954 -0.0467 -0.1798
18014W        W33145  16.656  13.826   3.013 -0.0331 -0.1520 -0.1376
18015W        W33146   2.660   2.599  14.610 -0.1287  0.2401  0.1638
18016W        W33147   1.816   2.422  12.257 -0.0153  0.0215  0.1200
18017W        W33148  17.203  12.812  14.113 -0.1764  0.2679  0.0656
18018W        W33149  11.435  15.178  11.106  0.0183  0.0530  0.1639
18019W        W33150  17.413   0.005   5.970 -0.1684 -0.0671  0.1825
18020W        W33151   9.603   8.072  12.289 -0.0487 -0.2017  0.4285
18021W        W33152  14.657  10.604   0.807  0.0618 -0.1859 -0.0864
18022W        W33153   8.406   1.389   2.626  0.1489 -0.3437 -0.1497
18023W        W33154  16.895   8.725   1.748 -0.0044  0.0751  0.0144
18024W        W33155  16.334   4.284  12.235 -0.3940 -0.3263  0.1291
18025W        W33156  13.613  13.695   0.555 -0.0479 -0.1013 -0.1907
18026W        W33157  12.946   8.428   3.471 -0.1411  0.2755 -0.1562
18027W        W33158   3.236   9.211   2.153  0.0557  0.1105  0.1583
18028W        W33159   7.324   4.285   0.503  0.0040 -0.0021  0.1176
18029W        W33160   9.258   8.697   3.683  0.1312  0.1269  0.1258
18030W        W33161   1.288  14.590  13.934 -0.2214  0.2823  0.0412
18031W        W33162   8.868   9.859  16.243  0.2379 -0.1236  0.2532
18032W        W33163   4.983   3.164  14.014  0.0261  0.0610  0.0856
18033W        W33164  12.421  10.632   0.884 -0.2058 -0.0461  0.1685
18034W        W33165  15.087  17.145  14.226 -0.1205  0.3116  0.0579
18035W        W33166   0.531   8.810  14.587  0.0332  0.0933 -0.0600
18036W        W33167   2.343   0.547   4.404  0.3888  0.2888  0.1125
18037W        W33168   9.324  15.580   5.096  0.0424 -0.1241  0.1295
18038W        W33169  10.465   7.951   4.424  0.1300 -0.0259 -0.3322
18039W        W33170   6.207   4.758   4.344  0.2508 -0.1207 -0.0691
18040W        W33171  15.511  10.661   3.015  0.1052 -0.0128 -0.2036
18041W        W33172   1.462  14.934  13.521 -0.1516  0.2591 -0.3956
18042W        W33173  14.819   8.682  10.710  0.1427 -0.3469  0.0402
18043W        W33174   9.527  16.769  16.704  0.1607 -0.2571  0.3125
18044W        W33175  10.224   4.050  12.539 -0.0476 -0.0177 -0.4321
18045W        W33176  11.703   6.329  13.699 -0.0134  0.2714  0.2920
18046W        W33177   5.164   0.316   5.690 -0.1844  0.2102 -0.2442
18047W        W33178   2.273   5.620  12.583 -0.2404 -0.0763  0.0096
18048W        W33179  15.961  11.890   2.293 -0.0211 -0.0539  0.0682
18049W        W33180   7.994   4.791   3.259  0.2094 -0.2684 -0.1270
18050W        W33181  12.980  16.218   0.140 -0.1427 -0.2283 -0.1188
18051W        W33182   8.543   9.981   4.219 -0.2376  0.0640 -0.0277
18052W        W33183   6.134  15.425   4.547 -0.1005 -0.1163 -0.0984
18053W        W33184   3.057   4.065  10.215 -0.2378  0.0415  0.1172
18054W        W33185   7.430   0.412   3.914  0.1784  0.2576  0.0835
18055W        W33186   4.278  16.559   2.903  0.0417 -0.1251 -0.0069
18056W        W33187  13.527  17.507   4.890 -0.1045 -0.0226 -0.0242
18057W        W33188   4.830   5.896  13.117  0.0546 -0.1009  0.1710
18058W        W33189   6.754  10.185  14.198  0.2238  0.0997  0.0030
18059W        W33190   3.900  14.986   2.059  0.1480  0.2295  0.2499
18060W        W33191  10.364  11.528  11.828  0.0089 -0.0064  0.0529
18061W        W33192  11.562  12.139   6.088 -0.0503  0.1387 -0.2487
18062W        W33193   3.287   8.115  15.680  0.3093  0.0362 -0.3530
18063W        W33194   2.758   0.762  11.488  0.3006 -0.0648  0.0376
18064W        W33195  11.832   6.057   0.502  0.1774 -0.1374  0.0205
18065W        W33196   8.303   2.150  12.705 -0.1752  0.1852  0.0452
18066W        W33197   0.970   9.056  11.373 -0.0669 -0.0174  0.2221
18067W        W33198  10.635  17.292   1.227 -0.0584 -0.0794  0.1707
18068W        W33199   1.752   5.683  13.734  0.0717  0.1297 -0.0396
18069W        W33200   2.847   1.764  16.490  0.3847 -0.0604 -0.0983
18070W        W33201   7.458   1.118   1.112 -0.1159 -0.2675 -0.1753
18071W        W33202  16.413  14.132   2.270 -0.1559  0.0441  0.0223
18072W        W33203   9.571   2.754  15.281 -0.0034  0.0397  0.1089
18073W        W33204   0.024  15.574  16.689  0.0911 -0.1463 -0.2022
18074W        W33205  13.473   9.179  11.116  0.1547  0.3333 -0.0311
18075W        W33206   3.078   2.610   2.288  0.0313 -0.0293 -0.0045
18076W        W33207   3.349  10.266   3.144  0.0095 -0.2905  0.1502
18077W        W33208  10.757   4.145  15.470  0.1737  0.1721  0.1477
18078W        W33209   6.114   1.333   4.587 -0.0738  0.0301 -0.1178
18079W        W33210   6.126  11.291   1.481 -0.1185 -0.0396 -0.1100
18080W        W33211  14.887  10.076  13.322 -0.0311 -0.0916 -0.0102
18081W        W33212   6.900  14.054  16.031 -0.1414 -0.0798  0.0044
18082W        W33213   4.824   3.547  15.501  0.1266 -0.0971 -0.0582
18083W        W33214   4.609   0.495   0.925  0.0593  0.2516  0.1484
18084W        W33215  13.257  17.493   0.676 -0.1476 -0.1043  0.2304
18085W        W33216   9.643  14.837   5.079 -0.1686  0.1179 -0.2522
18086W        W33217  11.286   4.236   1.845 -0.0056  0.1453 -0.0696
18087W        W33218   5.175   9.643  13.950  0.0283  0.1824 -0.2103
18088W        W33219   2.492  15.435   3.867 -0.1817 -0.1046 -0.1598
18089W        W33220  14.028   1.323   5.432 -0.1399 -0.2207 -0.0754
18090W        W33221  16.136   6.549   6.386 -0.0910 -0.0281  0.1406
18091W        W33222  15.871   8.541   5.539 -0.1162 -0.0930 -0.1280
18092W        W33223   8.908  11.219   2.206  0.3628  0.1621  0.0048
18093W        W33224  14.617  17.155   2.532  0.1642  0.3061 -0.0494
18094W        W33225  14.300  17.115   1.119 -0.1113 -0.0553 -0.0116
18095W        W33226  12.371  13.610  13.112  0.0335 -0.0783  0.0871
18096W        W33227  14.258  11.925   1.136 -0.1775 -0.0533 -0.1107
18097W        W33228  16.320  15.962   4.805  0.1773 -0.1107 -0.1092
18098W        W33229   7.747  17.349  12.303 -0.1682 -0.0062  0.3236
18099W        W33230   3.465   2.912   0.159  0.1712 -0.1267  0.2843
18100W        W33231   5.113   7.288  14.428 -0.2467  0.2320  0.1977
18101W        W33232  16.238   0.241   2.259  0.0846 -0.0288  0.2649
18102W        W33233  11.267   5.509  13.885 -0.2662  0.0021 -0.0567
18103W        W33234  11.991  11.706  14.251 -0.0543  0.0468  0.3978
18104W        W33235  15.003   4.644   1.231 -0.0837 -0.0213 -0.2063
18105W        W33236  16.051   0.256  16.870  0.1117 -0.0207  0.1498
18106W        W33237  16.430  10.078   2.229  0.0434  0.2211 -0.1373
18107W        W33238   1.119  15.131   5.962  0.0222 -0.2037  0.0348
18108W        W33239  13.893  13.397   3.863 -0.1948 -0.0426  0.2031
18109W        W33240  16.381  12.918  13.173  0.0730 -0.0911 -0.0560
18110W        W33241   6.821   7.540   5.719 -0.1271  0.0454  0.0911
18111W        W33242  12.074   7.856  13.787 -0.0384  0.0321  0.0478
18112W        W33243  13.345   1.886  16.872  0.2038 -0.2222  0.1855
18113W        W33244   3.635  13.779   3.641 -0.1173  0.0939 -0.1826
18114W        W33245   0.880  13.312   4.150  0.1815  0.0697  0.2271
18115W        W33246   2.194  15.861   0.346  0.3270  0.0965  0.1936
18116W        W33247   6.251   6.147  12.170  0.1392  0.3572  0.2103
18117W        W33248   4.856   3.112  15.322  0.1087 -0.2023  0.2261
18118W        W33249   5.069   9.857  15.138 -0.0920 -0.1060 -0.3422
18119W        W33250   5.509   2.422  15.789 -0.2651 -0.0090 -0.1099
18120W        W33251   3.082   3.129   2.330 -0.0514  0.2803  0.3603
18121W        W33252  13.303   0.443  12.376  0.0895 -0.1051 -0.0707
18122W        W33253  11.904   7.083   2.187  0.1661  0.0444  0.2541
18123W        W33254   4.108   4.774   3.735  0.0430 -0.3199  0.0024
18124W        W33255   9.982  13.863   4.146 -0.2344  0.3081 -0.0293
18125W        W33256   9.010   0.393  16.920 -0.0720  0.0272  0.2286
18126W        W33257  10.615   9.242  14.304  0.0628 -0.1941 -0.0866
18127W        W33258   2.519  11.090  12.805  0.1900 -0.0255 -0.0137
18128W        W33259   3.902  14.585  13.569  0.0818 -0.1264 -0.0464
18129W        W33260  11.978   3.589  12.389  0.2117 -0.0535 -0.2225
18130W        W33261  13.320   0.977   1.192 -0.0568  0.3229 -0.2531
18131W        W33262  14.688   4.470  15.680  0.1074 -0.1339 -0.0137
18132W        W33263  13.752  13.059   6.013 -0.1553 -0.3099 -0.0033
18133W        W33264  13.588   3.520   4.714  0.1277  0.0679 -0.3592
18134W        W33265  11.488   6.981   3.559 -0.0380  0.0429  0.0580
18135W        W33266   7.282   2.737  12.798 -0.0008  0.1319 -0.1512
18136W        W33267   8.672   0.080   2.599 -0.0799  0.1019 -0.1904
18137W        W33268  12.176   0.031   4.630  0.3052 -0.1126 -0.2070
18138W        W33269   0.661  14.115  16.593  0.3495 -0.2125  0.2554
18139W        W33270   6.828   5.677  15.513 -0.0964  0.2805  0.2032
18140W        W33271   5.503  17.321   2.154 -0.3431  0.1589  0.1630
18141W        W33272  13.226  11.812   6.441 -0.0535  0.1376  0.0903
18142W        W33273  13.717   8.391  13.657  0.0943 -0.3674 -0.1653
18143W        W33274  12.278  16.569   3.630 -0.0930 -0.1031 -0.2555
18144W        W33275  10.473   8.115   0.649 -0.0019 -0.0246  0.0949
18145W        W33276   1.153   3.393  16.901  0.1230 -0.1446 -0.1845
18146W        W33277  10.938   5.396   5.669  0.1191  0.4958 -0.3956
18147W        W33278   2.659  11.919   1.689  0.1810 -0.1479 -0.0105
18148W        W33279   3.805  11.692  14.365  0.1127  0.1835 -0.0661
18149W        W33280   3.228  16.828  16.680 -0.0536 -0.2639 -0.1022
18150W        W33281   5.255   2.712  16.919  0.1262 -0.0921 -0.0459
18151W        W33282  13.214  10.082   2.715  0.1424 -0.2116 -0.1200
18152W        W33283   2.483   7.539   2.731 -0.0303 -0.0198  0.3752
18153W        W33284   3.263  17.237   3.174  0.1561  0.2489 -0.0107
18154W        W33285  17.149   5.767  14.950  0.0003 -0.0521  0.0403
18155W        W33286   2.006  14.645   4.306 -0.2709 -0.0640 -0.0986
18156W        W33287  10.398   9.354   4.849 -0.0292  0.1473 -0.2869
18157W        W33288   9.562   2.255   3.158  0.1747 -0.2236 -0.0977
18158W        W33289   6.269   9.529  13.563 -0.0969 -0.0705 -0.0052
18159W        W33290  15.437   3.783   4.594  0.1442 -0.0496 -0.1478
18160W        W33291   4.185   8.007   5.704 -0.0959 -0.1740  0.0241
18161W        W33292   9.914   5.848  13.700 -0.2323  0.0370 -0.0913
18162W        W33293   3.729   6.896   1.059 -0.0650 -0.0541  0.1901
18163W        W33294   9.427  15.493   6.208  0.2359  0.0166  0.2245
18164W        W33295  11.527   1.923   2.207 -0.0917  0.2365  0.0612
18165W        W33296  11.491   9.564  14.127 -0.2786 -0.5232 -0.0945
18166W        W33297  12.657  14.596  15.818  0.2327  0.2091 -0.1057
18167W        W33298  11.054  12.298  12.611  0.0121 -0.0790 -0.0808
18168W        W33299  12.390   6.517  15.161 -0.0519  0.0796  0.3105
18169W        W33300  14.455   6.499  14.811  0.2079  0.0955  0.1250
18170W        W33301  14.234   6.968  14.853  0.2273  0.3339 -0.3397
18171W        W33302   3.233  15.986   6.384  0.0194  0.0080  0.3743
18172W        W33303   0.973  14.364   4.776 -0.1147  0.1404  0.1198
18173W        W33304  11.426   7.348   4.584  0.1038  0.1482  0.1585
18174W        W33305   8.435   5.336  14.585 -0.0965  0.2439 -0.0415
18175W        W33306   4.423  14.116   3.580  0.0086  0.1249  0.0719
18176W        W33307   9.283  14.017   5.086 -0.1722  0.2852 -0.2122
18177W        W33308   6.054   7.229   3.882 -0.2729 -0.1090 -0.0091
18178W        W33309   2.640   2.555   1.562  0.1203 -0.0840  0.1151
18179W        W33310   7.724   3.745   3.209  0.0948  0.1746 -0.0441
18180W        W33311  15.461  11.342  15.805  0.0299  0.1316 -0.4280
18181W        W33312  11.793  14.781  10.712 -0.2145  0.1907 -0.1166
18182W        W33313   5.742  14.109   3.247 -0.2105 -0.2338  0.0329
18183W        W33314   3.203   0.035   4.174  0.2654 -0.2888 -0.2086
18184W        W33315   2.947  16.376   0.094 -0.0785  0.0746 -0.1909
18185W        W33316   4.400   4.209  11.014  0.0807  0.0811 -0.0649
18186W        W33317   3.736  16.714   1.262  0.1542 -0.0456 -0.1158
18187W        W33318   6.467  11.992   4.362 -0.0340  0.0848 -0.0639
18188W        W33319  13.741   9.568   2.775 -0.0234 -0.4278  0.0858
18189W        W33320   3.447  14.769  16.210 -0.3929 -0.3292 -0.2452
18190W        W33321  13.990   9.751   1.513 -0.1099  0.1892  0.0252
18191W        W33322   5.579   9.395   5.286 -0.4942  0.2365  0.0622
18192W        W33323  10.775   0.768   3.642 -0.0651  0.0072  0.0540
18193W        W33324   1.168   5.415   5.530  0.0082  0.1109 -0.1463
18194W        W33325   6.912  16.072   4.494 -0.0438  0.4241 -0.1502
18195W        W33326   4.892   6.270  11.586 -0.0133  0.1933 -0.0648
18196W        W33327   8.279   4.840  11.078 -0.0440 -0.1814  0.0603
18197W        W33328   7.340   5.780   3.489  0.2032  0.1305 -0.0223
18198W        W33329   2.878   8.164  16.126  0.1671  0.2216  0.0270
18199W        W33330   8.509   9.743   3.412  0.2397 -0.2279  0.0436
18200W        W33331   0.395  16.000  15.449  0.0517 -0.0296 -0.0232
18201W        W33332  10.721  13.854   3.228 -0.3398  0.0132 -0.2285
18202W        W33333   9.392  11.341   0.220 -0.4793  0.2057 -0.0164
18203W        W33334   4.066   2.094   4.992 -0.3476  0.0595  0.0904
18204W        W33335   0.703  15.663  12.457 -0.0789  0.3444 -0.1706
18205W        W33336   8.367   9.526  13.174  0.0042  0.0618 -0.1768
18206W        W33337  12.173   1.547   5.245  0.1280  0.0747  0.1457
18207W        W33338  16.719  16.552   5.466 -0.1317 -0.0580  0.2717
18208W        W33339   8.465  11.454  16.185  0.0041 -0.0654  0.2742
18209W        W33340   3.802   8.531  14.197 -0.3640  0.0341 -0.0503
18210W        W33341  11.564   3.531  15.151  0.0246  0.2021 -0.4933
18211W        W33342   8.480   8.169   3.366 -0.2584  0.0472  0.0219
18212W        W33343   9.285   2.295   6.285 -0.1858  0.1760  0.3021
18213W        W33344   3.414  10.522   2.260  0.3385  0.1833 -0.1211
18214W        W33345   4.085   2.160  16.397  0.0029 -0.2702 -0.2517
18215W        W33346  12.087  14.061  13.115 -0.2269  0.1812 -0.3047
18216W        W33347  16.086   4.904  12.972  0.0054 -0.4088 -0.2105
18217W        W33348   3.085  12.546   3.016 -0.1891  0.1626 -0.2024
18218W        W33349   1.613   8.749   2.748 -0.1474 -0.2184  0.2344
18219W        W33350   9.212  11.859  12.040 -0.0384  0.2217 -0.2654
18220W        W33351   8.745  17.526   1.741  0.2707  0.3954  0.0363
18221W        W33352   2.505  17.131  14.366  0.0556  0.0669  0.1878
18222W        W33353   1.794   9.616  13.471 -0.0998 -0.0622 -0.0329
18223W        W33354  11.176  14.922  11.457 -0.1595 -0.0947 -0.2991
18224W        W33355   1.700   6.078  14.528  0.3148 -0.1496 -0.1456
18225W        W33356   0.548   5.191  11.007 -0.1172  0.0986  0.2312
18226W        W33357  14.215  13.271   4.892 -0.0038  0.2853  0.0166
18227W        W33358  10.526  15.037   2.622  0.0873  0.2737 -0.1116
18228W        W33359   8.682   6.296  15.648 -0.4404 -0.1727 -0.1061
18229W        W33360  10.725   6.407  13.256 -0.3269  0.1816 -0.0492
18230W        W33361  15.598   4.125  11.571 -0.0944 -0.0988 -0.0110
18231W        W33362  15.572  17.138   2.513  0.0204 -0.2464  0.0611
18232W        W33363   5.122   4.483   0.563  0.1650 -0.4533  0.1316
18233W        W33364  15.556   6.603  13.691 -0.0152 -0.2967  0.2580
18234W        W33365   2.633   4.376  12.446 -0.0906 -0.1208 -0.0148
18235W        W33366  13.065   4.761   2.124  0.0941  0.1216  0.0007
18236W        W33367   8.201   7.511   0.179  0.1101 -0.1357 -0.0192
18237W        W33368  14.091  15.975   3.757 -0.1473 -0.2665  0.2423
18238W        W33369  15.854   8.175  10.787  0.1374 -0.1638  0.1470
18239W        W33370   9.577   6.974   1.327  0.4048 -0.0729  0.0873
18240W        W33371   5.778   2.367   2.160  0.0108  0.1496 -0.3119
18241W        W33372  16.586   0.201  12.774  0.2237 -0.1983  0.0208
18242W        W33373   1.752  12.997  13.437 -0.1340  0.0665  0.2553
18243W        W33374   9.996  13.642  12.819  0.2318  0.0371  0.0564
18244W        W33375   5.284   9.687   3.343 -0.3678  0.1336 -0.0384
18245W        W33376   5.880   2.087   0.188  0.1738  0.0897  0.1968
18246W        W33377   2.558  13.605   2.547  0.1059  0.1366 -0.0111
18247W        W33378  17.086  12.948  11.818 -0.0088 -0.1525  0.0992
18248W        W33379   5.799   6.983  13.174  0.0640 -0.0722  0.0926
18249W        W33380   6.984   6.110  15.743  0.2141 -0.1232 -0.2916
18250W        W33381   3.967   3.926   0.093 -0.1408 -0.1535  0.3355
18251W        W33382   3.474   4.599  11.018 -0.1517 -0.0938  0.3115
18252W        W33383   5.233   6.932   2.218  0.0274  0.0442  0.0360
18253W        W33384  17.009   3.151   0.472  0.0877 -0.0250  0.2327
18254W        W33385   2.285   9.811  14.806 -0.1907 -0.2937 -0.0849
18255W        W33386   6.684   0.152  11.595  0.0202  0.1815 -0.3293
18256W        W33387   5.696   2.029  13.717  0.0921 -0.0718 -0.2525
18257W        W33388   0.125   9.770   0.628 -0.0613 -0.0166 -0.1856
18258W        W33389  12.300  15.926  15.740 -0.0230 -0.0430 -0.1564
18259W        W33390   0.700  12.995   4.495  0.1705  0.2229  0.0509
18260W        W33391   3.214  15.426  13.204  0.2105  0.3232 -0.0684
18261W        W33392   4.476   6.142   2.620  0.0270 -0.2258 -0.0034
18262W        W33393  12.770  11.930  16.320  0.4072 -0.1510 -0.0501
18263W        W33394   9.555  12.844  12.392  0.0142 -0.0376  0.1336
18264W        W33395  10.012  14.867   0.329 -0.2360  0.0541 -0.2670
18265W        W33396  17.255  13.796  13.105 -0.0200 -0.0112 -0.0341
18266W        W33397  10.935  13.271   0.955  0.0360  0.0376  0.0526
18267W        W33398   0.977  10.210  15.392 -0.1553  0.0549 -0.1152
18268W        W33399   8.257  16.910  12.983  0.0933 -0.0320  0.0258
18269W        W33400   8.244   2.883  13.445  0.0426 -0.0738 -0.1233
18270W        W33401  13.712  13.478   5.013 -0.0621 -0.3275  0.2039
18271W        W33402  15.392  12.505  14.739 -0.0455 -0.0278  0.1446
18272W        W33403  11.441  10.835  11.108 -0.0359  0.1095 -0.3253
18273W        W33404   1.882  11.001  13.452  0.1610  0.0788 -0.1203
18274W        W33405  15.644  13.623  12.026  0.1949  0.0551 -0.1155
18275W        W33406   5.204  16.492   2.148  0.1199 -0.0408 -0.1053
18276W        W33407   3.687  13.025   2.101 -0.2638 -0.1186  0.2585
18277W        W33408   9.377  11.056  15.884  0.0582  0.0077 -0.0426
18278W        W33409  11.770   4.288  14.851 -0.2978  0.0211 -0.2090
18279W        W33410   6.106  14.294  12.600  0.0662 -0.2038  0.2024
18280W        W33411  15.082  15.500  14.324  0.3091  0.0035  0.2061
18281W        W33412   6.110  10.702   3.894  0.0186 -0.0706  0.4449
18282W        W33413  12.716  12.763  12.730  0.1886 -0.0730 -0.2066
18283W        W33414  14.865  12.956  15.882 -0.1102 -0.1725  0.0639
18284W        W33415  14.150  10.947   0.131 -0.0470 -0.0565  0.0079
18285W        W33416   5.971  14.655   2.163  0.0684 -0.1945  0.3668
18286W        W33417   3.580  10.557  12.130 -0.1239  0.0247 -0.1253
18287W        W33418   6.892   5.094  14.530 -0.1783  0.3119 -0.0064
18288W        W33419   9.471  12.486  15.945 -0.1861  0.2170 -0.2026
18289W        W33420   1.266  10.256   2.504  0.0956  0.0330 -0.4862
18290W        W33421   0.750   1.303  16.422 -0.0698  0.0170 -0.1085
18291W        W33422  14.749  13.797  14.641 -0.1261  0.1020 -0.0580
18292W        W33423  11.737  10.906  14.921  0.2546  0.1048  0.1575
18293W        W33424   0.618   0.398  16.591  0.1269 -0.2434  0.0489
18294W        W33425   4.028   5.778  14.233  0.0851 -0.0803 -0.1351
18295W        W33426  10.756  12.273   1.967  0.2916 -0.0099 -0.0687
18296W        W33427  12.293  14.180   3.339  0.2032 -0.0114 -0.1634
18297W        W33428   9.045  16.965  13.816 -0.0743 -0.0682  0.0784
18298W        W33429  17.592   3.105  16.603 -0.0382  0.2357  0.1939
18299W        W33430   0.530  16.504  15.376 -0.0216 -0.0470 -0.0566
18300W        W33431   6.150  16.297  13.353 -0.2065 -0.3242  0.3194
18301W        W33432   0.197  14.199   5.866  0.2690 -0.0433  0.0420
18302W        W33433  12.746   2.711  12.481 -0.1249  0.3817 -0.3950
18303W        W33434  10.042  15.514   1.911  0.0919  0.3165 -0.3633
18304W        W33435   2.505   6.327   5.830 -0.0749 -0.2510  0.2131
18305W        W33436  12.009   1.642   6.228 -0.0879 -0.0484  0.1708
18306W        W33437  17.500  15.195   6.576  0.1602 -0.0833 -0.1594
18307W        W33438   2.483   1.945   0.034 -0.1857  0.0169  0.1450
18308W        W33439   4.093  10.690   4.052  0.0869 -0.0874 -0.0812
18309W        W33440   8.433  14.989  13.743 -0.0934 -0.0712 -0.0162
18310W        W33441   7.161  13.882  11.850  0.0092 -0.0056  0.0676
18311W        W33442  14.022  10.598   0.479  0.2321  0.1375 -0.1728
18312W        W33443  15.201   7.784   0.689  0.0632  0.1075  0.0397
18313W        W33444   7.473  11.667  13.612 -0.0302  0.4619 -0.0811
18314W        W33445   5.489  16.202   3.306 -0.0407 -0.2469  0.0569
18315W        W33446  16.852   2.739   2.470  0.0334  0.1969 -0.1365
18316W        W33447  10.738   1.293   0.862  0.1256  0.1260  0.0174
18317W        W33448   8.292   9.072   1.330 -0.1509 -0.0936  0.0022
18318W        W33449   1.313   3.122  14.094 -0.1221 -0.6355  0.1009
18319W        W33450   0.686  16.478   4.018  0.3879 -0.2207 -0.2265
18320W        W33451  10.216   2.450  13.520  0.2371  0.2568  0.0505
18321W        W33452   6.137  15.811  13.685 -0.1520  0.3256 -0.0952
18322W        W33453   8.668   3.609   4.246 -0.0687 -0.0712  0.1276
18323W        W33454   2.173   8.318   5.450  0.1390  0.0986 -0.1104
18324W        W33455   2.543  12.432   1.552 -0.3322  0.0156 -0.1441
18325W        W33456  11.257   3.191   3.920  0.0949 -0.0016  0.1176
18326W        W33457  13.246  12.535   4.790  0.2999 -0.0608 -0.1821
18327W        W33458  10.220   3.428  13.743  0.2292 -0.1784  0.2880
18328W        W33459  12.322   4.290   0.931  0.1639  0.0209 -0.3324
18329W        W33460  17.214   2.715  15.396  0.0733  0.1723  0.0440
18330W        W33461  10.767  10.690   3.599  0.0453  0.0387 -0.1196
18331W        W33462   3.024   8.233   2.564  0.0277  0.1221  0.3238
18332W        W33463   0.056   3.466  16.250  0.2662 -0.1525 -0.1949
18333W        W33464   7.592  13.840  13.465 -0.1106  0.2448  0.0789
18334W        W33465  11.861   3.020   3.265 -0.1411  0.1425 -0.0234
18335W        W33466  11.953   4.567  15.856  0.1693 -0.0572 -0.1758
18336W        W33467   5.727   1.330  14.529 -0.0607  0.0694 -0.0063
18337W        W33468   5.942  15.313   1.774  0.0699 -0.0704 -0.2157
18338W        W33469   8.080  15.616  13.127  0.1197 -0.1133  0.1837
18339W        W33470  11.160   7.269  16.850 -0.0149  0.3447 -0.1129
18340W        W33471  10.651   7.900   5.745 -0.2335 -0.5516  0.4014
18341W        W33472  15.005   5.902   6.227 -0.2384  0.0951  0.0285
18342W        W33473  17.376  13.036   6.004  0.1562 -0.0846 -0.1632
18343W        W33474  17.187   3.522   4.299  0.1698  0.0919 -0.2564
18344W        W33475   0.429  11.651   0.421  0.1050 -0.1045 -0.3704
18345W        W33476  15.697  15.366  13.168  0.0826  0.1346 -0.2567
18346W        W33477  17.372   2.221   3.859  0.0850  0.0642 -0.3288
18347W        W33478  12.280  14.590  12.429  0.1539 -0.0065 -0.1325
18348W        W33479  11.099  17.486  15.139  0.1638 -0.1409  0.0676
18349W        W33480  11.093   4.192   3.433  0.1948  0.1657 -0.0335
18350W        W33481  11.537   3.639   1.132  0.2942 -0.0562 -0.2439
18351W        W33482  14.656  17.560   0.600 -0.0648 -0.0611 -0.2488
18352W        W33483  16.168  10.775   4.074 -0.0436  0.0865 -0.0378
18353W        W33484  15.100  12.045  12.310 -0.1486 -0.1162 -0.0335
18354W        W33485  10.872   1.755  12.036 -0.0394 -0.2604 -0.0056
18355W        W33486   0.912   3.151   3.805  0.0320 -0.1698  0.0093
18356W        W33487  16.754   2.218   3.018 -0.1339 -0.1682 -0.0858
18357W        W33488  12.436   5.314   5.098 -0.1028  0.1819  0.1101
18358W        W33489   8.664  14.919  13.278 -0.0972  0.0273  0.3837
18359W        W33490   2.922   2.254   0.873  0.0828  0.1569 -0.0165
18360W        W33491   7.516   9.978   3.480  0.0146 -0.1762  0.0043
18361W        W33492   0.035   4.954   2.220 -0.4089  0.1555 -0.2453
18362W        W33493   8.018   6.091   5.837  0.1029 -0.1818  0.0086
18363W        W33494  14.517   1.744   2.905  0.0416 -0.0521 -0.3594
18364W        W33495  16.485  11.219   3.954 -0.0194 -0.2833 -0.1212
18365W        W33496  15.667   1.601   3.902  0.1704 -0.0097  0.2520
18366W        W33497  10.871   0.418  12.233 -0.0850  0.0120 -0.1803
18367W        W33498   0.571   2.362   5.518 -0.0747  0.0850  0.0267
18368W        W33499   4.106   4.843  14.046 -0.3054 -0.2081  0.2188
18369W        W33500   2.054   5.618   0.146  0.3717 -0.1830 -0.0320
18370W        W33501  12.167  11.147   3.172  0.0409  0.0570  0.1416
18371W        W33502  14.623  12.317  15.287 -0.1922 -0.1885 -0.2587
18372W        W33503   3.366   7.898   1.665 -0.2029 -0.4214 -0.1558
18373W        W33504   9.082   3.155  13.512  0.0631  0.0729 -0.0019
18374W        W33505  14.054   7.977   4.691  0.2188 -0.2061 -0.0054
18375W        W33506   2.870  11.073  13.451  0.0193 -0.1206 -0.2652
18376W        W33507  10.060  17.467  11.594  0.2541 -0.3346  0.0973
18377W        W33508   5.889   3.038   3.165  0.1757  0.1840  0.0026
18378W        W33509   1.910  17.338   3.175  0.1789 -0.1222 -0.0173
18379W        W33510   8.034   7.399   4.068 -0.3795  0.1209 -0.0242
18380W        W33511   6.334   2.615  13.370 -0.1021  0.2253  0.0245
18381W        W33512   0.407   7.720   0.562 -0.0317 -0.1962 -0.0510
18382W        W33513   5.796  17.012   5.973 -0.0178 -0.0549  0.0998
18383W        W33514  15.086   8.216  12.639 -0.1400  0.1793 -0.4723
18384W        W33515  13.038   3.467   3.975 -0.0687 -0.0461  0.1273
18385W        W33516   7.634   3.410  14.553 -0.1022  0.0110 -0.3413
18386W        W33517   5.319  12.229   3.478 -0.0990 -0.0222 -0.0092
18387W        W33518  13.241   9.734   4.757 -0.0891 -0.1978 -0.3484
18388W        W33519   7.675   6.062  15.416 -0.0361  0.1116  0.1445
18389W        W33520   0.335   6.821   5.444  0.0134  0.1122  0.3576
18390W        W33521   0.177   2.182  13.757 -0.1192  0.1266 -0.1343
18391W        W33522  12.186  12.824  16.241 -0.0774 -0.0110 -0.0512
18392W        W33523  12.838   1.224  16.235 -0.3502  0.2573 -0.2673
18393W        W33524   8.211   0.822   2.310  0.0824  0.1609  0.0082
18394W        W33525   9.821  15.984  16.607 -0.1653  0.1945  0.0879
18395W        W33526   9.214   7.628   1.024 -0.2513  0.1122  0.0272
18396W        W33527  12.667   6.083   5.245  0.0971 -0.0554  0.0730
18397W        W33528   0.590   5.701   3.947 -0.0538 -0.1362 -0.1339
18398W        W33529   0.451   0.010   5.018 -0.0997 -0.1314  0.4845
18399W        W33530  17.169   6.691   2.873 -0.0324 -0.2054 -0.3904
18400W        W33531   7.664   2.314   1.410  0.1347 -0.1752  0.4503
18401W        W33532   3.080   0.037  11.688  0.1238 -0.0749  0.2967
18402W        W33533   3.648   6.301  15.199 -0.2464 -0.2545 -0.0293
18403W        W33534   7.060  17.096   0.759  0.0993 -0.0795 -0.3003
18404W        W33535   7.356   9.474  13.929 -0.1175  0.0001  0.1679
18405W        W33536  12.786  16.421   3.518  0.3545  0.3446  0.1007
18406W        W33537   5.072  16.633  15.752  0.1510  0.3282 -0.2035
18407W        W33538   9.631  11.237  14.838  0.0237 -0.0467  0.2920
18408W        W33539  12.978  13.592  14.393 -0.1869 -0.1613  0.0319
18409W        W33540  14.503   8.466  14.585 -0.0913  0.1322  0.0277
18410W        W33541  10.358  12.447  13.422  0.2442  0.1683  0.0574
18411W        W33542   7.799   1.091   0.750  0.1691 -0.0377  0.0303
18412W        W33543  17.103   1.276  12.894  0.0601  0.0149 -0.0288
18413W        W33544   5.918  13.797   1.307  0.0743  0.0626 -0.0166
18414W        W33545   6.694   2.333  15.440 -0.0436 -0.2410  0.0374
18415W        W33546   5.330  16.639   0.093  0.1824 -0.1058  0.2074
18416W        W33547  14.049  14.574   4.312 -0.0640 -0.2527  0.3954
18417W        W33548  14.156  15.297   1.867 -0.1996 -0.1495 -0.1526
18418W        W33549   8.619   4.563  11.369 -0.2789  0.0264  0.1444
18419W        W33550  12.311   4.148  14.901  0.1237  0.0839  0.0889
18420W        W33551  11.789   9.536  12.757  0.0832 -0.0212 -0.1509
18421W        W33552  12.655   0.754   5.921 -0.1486 -0.1392 -0.0238
18422W        W33553  15.457  17.082  15.080  0.3275  0.1145  0.2389
18423W        W33554   5.139   0.710   4.196 -0.1353 -0.1317 -0.0156
18424W        W33555   8.201   0.181   0.673  0.0574  0.0031  0.2407
18425W        W33556  16.887   3.068  12.784  0.1319  0.1556 -0.1905
18426W        W33557  10.199  11.412   3.986 -0.1585 -0.0702  0.0301
18427W        W33558  16.264  17.366   2.449 -0.0318 -0.0142 -0.1320
18428W        W33559  10.556  10.466   4.093 -0.4244  0.1904  0.2172
18429W        W33560  16.140   0.919  12.092  0.1819  0.2584  0.1949
18430W        W33561  16.071   7.249  14.984  0.0842  0.1932  0.1215
18431W        W33562   5.895  16.973   3.717 -0.2915  0.0910 -0.0324
18432W        W33563   0.049  15.356   2.084  0.1715 -0.0257  0.0991
18433W        W33564   2.394   6.578  13.404  0.0846  0.2136  0.1777
18434W        W33565   3.501  11.725  12.986 -0.0348 -0.0677  0.0878
18435W        W33566  10.086   2.012  15.838  0.4266 -0.2763 -0.0606
18436W        W33567   3.261   7.426   3.337 -0.0464 -0.0952 -0.2016
18437W        W33568  11.763  13.583   3.808 -0.0380 -0.0385  0.1119
18438W        W33569  14.879  10.172   1.926  0.1162  0.3722 -0.3282
18439W        W33570   4.679   3.334  11.625  0.0980  0.0248 -0.3710
18440W        W33571   6.170  14.273   3.024 -0.2191 -0.0433  0.2356
18441W        W33572   1.634   6.085  13.248  0.0871 -0.0638 -0.1074
18442W        W33573  14.727   0.189   3.009 -0.2971 -0.0749  0.0764
18443W        W33574  10.858  11.000  12.178 -0.0805  0.1055 -0.2331
18444W        W33575   1.825   0.134   5.639 -0.4428  0.0121  0.0792
18445W        W33576   9.701   1.541  12.571  0.1018  0.1646  0.0784
18446W        W33577   8.462   5.597  11.504  0.2210 -0.0103  0.3532
18447W        W33578   3.929  13.055  13.613  0.2691  0.0207 -0.1506
18448W        W33579  15.936  10.768   0.231  0.1038  0.3162  0.1054
18449W        W33580  11.116   4.661   0.229 -0.1274  0.2398 -0.2038
18450W        W33581  17.241   3.491  12.160  0.0013  0.0202  0.1192
18451W        W33582   9.428   8.647  13.664 -0.0903 -0.1675  0.1364
18452W        W33583   6.151   4.642  10.362  0.2041 -0.1138 -0.2528
18453W        W33584   7.626  11.942  11.414  0.1968 -0.1290  0.1008
18454W        W33585  12.848  17.182  12.321  0.2173  0.1669 -0.0505
18455W        W33586   2.974   7.844  13.490  0.1892 -0.2050  0.1881
18456W        W33587  16.840  17.184   1.754  0.0028  0.0019 -0.0403
18457W        W33588   5.579  17.098  16.354  0.1974  0.2995  0.0852
18458W        W33589   3.656   8.891   3.882 -0.0550 -0.1109  0.0401
18459W        W33590  10.090   6.290  11.553  0.1740  0.0322  0.1389
18460W        W33591   4.264   5.996  15.713 -0.0018 -0.1969 -0.1922
18461W        W33592   5.284   3.132  16.139 -0.1997 -0.2118 -0.0677
18462W        W33593   9.383   0.682  16.689 -0.3255 -0.0560  0.0082
18463W        W33594  14.013   7.954  13.753  0.2359 -0.1222 -0.1076
18464W        W33595  17.038  14.688  11.775 -0.1943 -0.3564 -0.0449
18465W        W33596  10.666   6.369  11.504 -0.2272  0.1647 -0.1693
18466W        W33597   5.435  15.168  14.763  0.1607  0.1104 -0.0654
18467W        W33598   2.353   6.065   4.141  0.1740  0.3542 -0.0536
18468W        W33599   6.388   7.526   3.648 -0.1199  0.1734 -0.0261
18469W        W33600   1.769   8.220   3.605  0.0164 -0.2053 -0.1307
18470W        W33601  14.784  14.000   1.216  0.1379  0.1657 -0.0999
18471W        W33602  13.181   2.755  11.186  0.1033  0.0154  0.0832
18472W        W33603   6.503   6.681  11.365 -0.0931  0.0044  0.1491
18473W        W33604  16.916   2.384   4.075  0.0360  0.0311  0.1920
18474W        W33605   6.365  16.140  15.416  0.1521 -0.1432  0.2010
18475W        W33606   1.896  12.936   4.504 -0.3020 -0.2781 -0.0144
18476W        W33607  16.345   4.483  13.160  0.2654 -0.5295 -0.0574
18477W        W33608   8.670   5.917  11.888  0.0006  0.0067 -0.0109
18478W        W33609  15.652  13.447  15.807 -0.2684  0.0639 -0.2900
18479W        W33610  16.781   2.813  11.484  0.0154  0.0724 -0.2128
18480W        W33611   6.151   6.203   0.619  0.1615  0.0180  0.2511
18481W        W33612   0.477   8.507  13.343 -0.0757 -0.0232  0.1392
18482W        W33613  13.228   1.040   4.918 -0.2021 -0.3447  0.0169
18483W        W33614  12.182   3.994  16.108 -0.1554 -0.1295 -0.0412
18484W        W33615   1.953   7.338   1.040 -0.2909 -0.3820  0.2541
18485W        W33616   4.533  16.015   1.397 -0.1070 -0.2244 -0.0620
18486W        W33617   3.275   5.367  11.759  0.2607 -0.1583  0.0299
18487W        W33618   6.545  13.826   6.585 -0.0915  0.1565 -0.1218
18488W        W33619   9.765  15.622  16.235 -0.2290 -0.0486  0.4242
18489W        W33620   6.528  17.657   1.243  0.0260 -0.0201  0.0956
18490W        W33621  13.188  13.370   5.314 -0.0519 -0.1699 -0.2623
18491W        W33622  13.517  14.357   0.452 -0.1264  0.0757  0.0846
18492W        W33623  16.446   3.492   2.383  0.0801 -0.1186 -0.1817
18493W        W33624  17.248  10.748   3.182 -0.0980 -0.0061  0.1461
18494W        W33625   8.126  16.832  15.410 -0.0846  0.1750 -0.0760
18495W        W33626  13.487   1.630   2.959  0.2944 -0.1203  0.0197
18496W        W33627  16.810   3.430  10.300 -0.1347 -0.1466 -0.0715
18497W        W33628   6.787   8.188  13.298  0.0517  0.0499  0.3289
18498W        W33629   8.843   9.185  15.649 -0.0597  0.2431  0.1502
18499W        W33630   6.302  13.130  15.714  0.1687 -0.2946  0.0360
18500W        W33631   0.366   8.025   5.311 -0.2725 -0.2241 -0.0016
18501W        W33632  13.407  14.879  12.206 -0.0609  0.0020  0.2766
18502W        W33633  10.967   2.175  10.860 -0.2318  0.1642 -0.1095
18503W        W33634   5.884  12.792  14.214 -0.0954 -0.2336  0.3804
18504W        W33635   3.595   6.186  11.284  0.2847  0.0424  0.0619
18505W        W33636   1.042   6.181   4.673 -0.0555 -0.0786  0.3103
18506W        W33637  12.507   1.971  15.238 -0.3403  0.0801  0.0296
18507W        W33638  16.135   9.238  14.397 -0.2236 -0.1247  0.1687
18508W        W33639   0.380   8.186  16.777 -0.0518 -0.0127 -0.0296
18509W        W33640  11.542  15.162   0.723 -0.2197  0.0647 -0.4699
18510W        W33641   5.761  13.970  14.694 -0.0872  0.1747 -0.3348
18511W        W33642   7.387  13.052  14.943  0.1044 -0.2006 -0.0533
18512W        W33643  15.480   5.731  11.560  0.1269  0.1006 -0.0653
18513W        W33644   5.252  13.011   0.762 -0.1378  0.0807 -0.1507
18514W        W33645  15.391   1.412  15.004 -0.0436 -0.3995  0.0007
18515W        W33646   8.997  13.347   1.020  0.0051  0.1957  0.2091
18516W        W33647   2.658   8.463   4.380  0.0051  0.5781  0.1447
18517W        W33648  15.165  15.269  14.786 -0.3543  0.0446  0.1823
18518W        W33649  11.338   8.316   0.597  0.2108 -0.0094  0.2215
18519W        W33650   8.041   9.548  16.339  0.1339  0.2483  0.0242
18520W        W33651  11.329  14.971  16.825 -0.2050  0.0407 -0.1849
18521W        W33652  14.024  14.547  14.919  0.0350  0.1364 -0.1045
18522W        W33653   1.522  11.197   5.968  0.1813  0.1502 -0.1447
18523W        W33654  15.431  17.398  16.493  0.4212 -0.1384  0.1300
18524W        W33655   6.812  12.539  14.083  0.0342 -0.1785  0.0226
18525W        W33656   9.231  13.555   0.537  0.2827  0.0640 -0.0948
18526W        W33657   7.703   7.802   5.868 -0.0064  0.0456 -0.0439
18527W        W33658   7.790   2.664   3.025  0.3167 -0.0524 -0.2987
18528W        W33659   4.000   0.396  14.120  0.1948  0.0104 -0.2503
18529W        W33660   8.154   6.175  15.446  0.1969  0.4966  0.1392
18530W        W33661   0.236   8.535   4.565  0.1393  0.1412  0.0216
18531W        W33662  10.663   5.618   0.467 -0.0988 -0.1311 -0.0512
18532W        W33663   6.768   2.064   5.690 -0.2301 -0.1695  0.0548
18533W        W33664   0.846   6.910   4.275  0.0834 -0.3714  0.1022
18534W        W33665  12.120  13.175   1.419  0.2804 -0.0355  0.2252
18535W        W33666   6.996   3.088   2.075 -0.0676  0.2169 -0.1417
18536W        W33667  12.118  10.200   3.654  0.0171  0.0449  0.2167
18537W        W33668   6.842   2.557   4.845  0.2418  0.1856 -0.3335
18538W        W33669   6.188   8.283   5.904 -0.1187 -0.0659 -0.0103
18539W        W33670   6.750   0.134   0.433 -0.0259 -0.1316 -0.0332
18540W        W33671  10.407  11.937  13.381  0.1085  0.1274  0.0025
18541W        W33672   7.930  10.150   0.053  0.1099 -0.2208 -0.1152
18542W        W33673   5.499   3.747   2.959  0.0440  0.0527  0.0152
18543W        W33674  16.656  10.353  12.008 -0.2996 -0.0806 -0.1085
18544W        W33675   2.919  15.660   0.148 -0.0151 -0.0874 -0.4932
18545W        W33676  17.528   1.021   5.166  0.1114 -0.0500 -0.0873
18546W        W33677   2.422  14.422   4.930 -0.1066 -0.1419  0.2165
18547W        W33678   2.895   3.413   1.705 -0.1361 -0.3061  0.1033
18548W        W33679   4.224   6.349   5.269  0.0139  0.0032 -0.1854
18549W        W33680  14.967  11.135   5.612 -0.0319  0.2955  0.0409
18550W        W33681  16.524   6.664   0.738  0.0299 -0.0594 -0.0513
18551W        W33682  15.384   0.552   2.215  0.1163 -0.2052 -0.0179
18552W        W33683   6.829  15.414   0.217 -0.0966 -0.0525  0.0746
18553W        W33684  12.117  15.718   4.928  0.1072  0.0215  0.0084
18554W        W33685  10.942   0.113  14.731  0.2257  0.1144  0.0256
18555W        W33686   8.256  12.544  14.978 -0.2037 -0.2552  0.0906
18556W        W33687   9.003  13.519   1.581  0.1517 -0.1562  0.0005
18557W        W33688  15.616  14.356   3.261  0.0389 -0.0692 -0.1087
18558W        W33689   7.180   7.455  15.423  0.0898 -0.2044 -0.0384
18559W        W33690  12.275   6.721   2.088  0.2123  0.1504  0.2026
18560W        W33691   3.463  11.859  14.796  0.0898 -0.1822 -0.0507
18561W        W33692  11.687   4.140   0.410  0.4280  0.2764 -0.0919
18562W        W33693   4.790  11.778  13.200  0.0022 -0.2091 -0.1003
18563W        W33694  16.760   7.676   2.490  0.2198  0.4802  0.0172
18564W        W33695   1.710   4.108   1.824 -0.0485  0.1727  0.4597
18565W        W33696  17.300  11.551  12.324 -0.0443  0.0713  0.3350
18566W        W33697   9.611  12.695   1.820 -0.1077  0.1924  0.0766
18567W        W33698   9.462  10.169  11.289 -0.0075  0.2137  0.1310
18568W        W33699   9.036   5.301   3.902  0.2809  0.2796  0.2609
18569W        W33700  10.567   0.430  13.222  0.1637  0.1573 -0.2139
18570W        W33701  16.165   8.630   6.053  0.0633  0.2048  0.1342
18571W        W33702   4.864   5.028   0.611  0.2118 -0.1668  0.2457
18572W        W33703  16.645  16.637   4.059 -0.0099 -0.3795 -0.2346
18573W        W33704   8.695   0.741  16.041 -0.3148 -0.1899  0.0739
18574W        W33705  12.894   2.737   2.743 -0.3079 -0.2444  0.2429
18575W        W33706   1.057   6.461   4.215  0.0819  0.1316  0.0472
18576W        W33707   7.374  12.581   5.524  0.4031 -0.1452 -0.3782
18577W        W33708   6.969   8.727   4.456  0.0720 -0.1766 -0.0897
18578W        W33709  12.723   0.281   1.680 -0.0196  0.1087  0.0025
18579W        W33710  12.739  15.409   0.259  0.0839  0.1190 -0.0138
18580W        W33711  15.514   7.562  12.880 -0.4995  0.0664  0.1155
18581W        W33712   7.289   4.442   6.352 -0.2130 -0.0695 -0.0803
18582W        W33713  14.072  10.385   2.776  0.0383 -0.0763 -0.1485
18583W        W33714  12.246   1.100  12.885 -0.2724 -0.0367 -0.1416
18584W        W33715  16.282  16.326   4.398  0.3727  0.0645 -0.1772
18585W        W33716   8.181  11.105   4.032 -0.1776 -0.0462 -0.1646
18586W        W33717   9.344   9.183  13.664  0.0354 -0.0302  0.0344
18587W        W33718  16.091   5.808   4.773  0.2497  0.3628 -0.2137
18588W        W33719  16.844  10.913  11.883  0.3222 -0.1376  0.2670
18589W        W33720  16.589  17.375  13.803 -0.2848  0.2281 -0.2546
18590W        W33721  11.175  16.081   4.933  0.1690 -0.0052  0.0482
18591W        W33722   5.439   5.882  14.921 -0.0392  0.1870 -0.2517
18592W        W33723   0.078  14.067   2.228  0.0246  0.1717  0.3216
18593W        W33724   4.349   0.002  13.519  0.0115  0.1563  0.1353
18594W        W33725   0.943  13.825   4.789 -0.0130 -0.2783 -0.2931
18595W        W33726   6.844   4.751   5.624 -0.0499 -0.1683 -0.5936
18596W        W33727  17.289   9.241   4.097 -0.1954  0.0604  0.0771
18597W        W33728  12.889   5.525  13.145 -0.0566 -0.2534  0.0018
18598W        W33729  11.954   6.838   1.729  0.1350  0.1298  0.1500
18599W        W33730   7.722  15.606  12.738  0.1458 -0.1452 -0.0192
18600W        W33731   1.727   1.690   6.011 -0.1020  0.0662 -0.1252
18601W        W33732   6.725   4.286   1.283 -0.0668 -0.0641 -0.1387
18602W        W33733  15.866   9.805  12.435 -0.2713  0.3097 -0.2118
18603W        W33734   3.481   3.679   0.881  0.3684  0.0387 -0.2536
18604W        W33735   6.054  16.119  16.573 -0.3735  0.0442  0.1979
18605W        W33736  12.354   2.018   5.305  0.1305  0.1681 -0.1332
18606W        W33737  12.591   5.753  12.231  0.0626 -0.0281  0.3288
18607W        W33738   4.403  15.010   5.412 -0.1307  0.1482  0.0818
18608W        W33739  15.976   0.875  10.746 -0.3673 -0.0482 -0.1016
18609W        W33740  12.620   2.112   3.518  0.1114 -0.4500 -0.2530
18610W        W33741   4.800   7.464   3.760  0.0100  0.0400  0.0288
18611W        W33742  15.894   3.758  13.509  0.1205 -0.1302 -0.1115
18612W        W33743  13.042   4.522  13.324  0.1999  0.3244 -0.1284
18613W        W33744  10.794   3.905  12.802  0.3107 -0.0387  0.1250
18614W        W33745   6.897  14.617   6.134 -0.1391 -0.2343  0.1218
18615W        W33746  16.017  13.875   5.539  0.2008 -0.1161 -0.2589
18616W        W33747  14.186   0.931   3.183 -0.1028 -0.0643 -0.2159
18617W        W33748   2.963   4.822  12.249  0.1681  0.0377  0.2756
18618W        W33749   2.274   5.748   1.381 -0.0867 -0.0770 -0.0917
18619W        W33750  14.895   1.318  15.800 -0.0161 -0.0147  0.2768
18620W        W33751  16.842  12.271   2.436 -0.0384 -0.2228 -0.1872
18621W        W33752   0.039   6.230  11.728  0.2217 -0.0111 -0.1511
18622W        W33753   2.097   0.538  15.595 -0.1610  0.0168 -0.3753
18623W        W33754  15.048   1.537  13.208 -0.0972  0.1625  0.0369
18624W        W33755  15.021   7.253  11.649  0.0325  0.1034  0.2684
18625W        W33756   9.898   4.441   2.575 -0.0623 -0.0607  0.3417
18626W        W33757  13.452  14.239   5.182  0.2144 -0.4697 -0.1922
18627W        W33758  10.681   4.454  14.387  0.2489 -0.0199 -0.1920
18628W        W33759  13.978  16.321  14.793 -0.1283 -0.1204  0.2729
18629W        W33760  11.803  14.091   1.527  0.0661  0.0529  0.2145
18630W        W33761   0.902  13.869   0.185  0.1075  0.1226  0.1433
18631W        W33762  10.685   1.376   1.387 -0.1246  0.1248 -0.0120
18632W        W33763  13.819  11.922  16.396 -0.0888 -0.0006 -0.1681
18633W        W33764   9.019   1.793   3.694 -0.0157 -0.2037  0.2353
18634W        W33765  13.000  16.841   4.287 -0.1564 -0.0095  0.4614
18635W        W33766   8.973   6.804   4.209 -0.2996 -0.0452 -0.3369
18636W        W33767   0.451  13.997   0.089 -0.1644  0.1907  0.3346
18637W        W33768   6.939   5.939   1.836  0.2184 -0.0814 -0.1470
18638W        W33769   5.337  12.959  13.764 -0.1942  0.1340  0.3691
18639W        W33770  14.209   1.190   1.717 -0.0825 -0.0774  0.2026
18640W        W33771   8.769  14.260  15.625  0.1416  0.1941  0.2147
18641W        W33772   8.024  13.034   0.548 -0.0714 -0.0541 -0.3244
18642W        W33773  13.269  11.430  11.337 -0.1335  0.0061 -0.2588
18643W        W33774  13.543   8.424   3.519  0.1259  0.1019 -0.1398
18644W        W33775  15.365  14.073  16.207  0.1463  0.2158 -0.1661
18645W        W33776   0.279   0.923   5.467 -0.1472 -0.0563  0.1092
18646W        W33777   2.412   5.254   0.469  0.3344  0.1618 -0.0888
18647W        W33778   6.427  10.994  14.953 -0.4262  0.3416 -0.0476
18648W        W33779   5.749   3.613  12.998 -0.0063 -0.3029  0.2033
18649W        W33780   4.553   7.240   4.670 -0.3772 -0.0332 -0.0014
18650W        W33781   4.090   7.067  14.729 -0.0484  0.0731  0.0691
18651W        W33782  13.469   4.816   6.556  0.0956  0.0109 -0.0189
18652W        W33783   2.864  12.392  15.969 -0.0058  0.1556 -0.0966
18653W        W33784   1.273  11.173   0.907  0.0509 -0.1401  0.1651
18654W        W33785  12.535   8.720  14.465  0.0756  0.3696  0.0324
18655W        W33786  13.682  15.505   0.667  0.0074  0.1691 -0.0124
18656W        W33787   8.337  10.503  13.152 -0.0588 -0.0023  0.1463
18657W        W33788   5.995   2.147  14.121 -0.0949  0.0122 -0.1981
18658W        W33789   4.190  17.419   0.120  0.0411  0.0293 -0.0559
18659W        W33790  11.520  12.536   2.649 -0.1734 -0.0745 -0.0729
18660W        W33791  16.819  16.212  15.287 -0.3079  0.0217 -0.0200
18661W        W33792   5.625   4.319   2.724  0.2491 -0.0842 -0.0315
18662W        W33793   4.334   3.843   2.632  0.2255  0.1273 -0.0406
18663W        W33794  16.115   5.372  12.758  0.2034  0.2150 -0.1318
18664W        W33795  13.569  12.256  15.964  0.2813 -0.2675 -0.2699
18665W        W33796  17.247   4.962   1.374 -0.0911 -0.1744  0.0595
18666W        W33797   0.529   7.669   2.980 -0.2116 -0.1107  0.1313
18667W        W33798  11.191   5.133  12.891  0.1535 -0.1065  0.3244
18668W        W33799  16.014  17.653   0.323 -0.0478  0.1936 -0.0419
18669W        W33800  16.453  16.309  15.684  0.1256  0.0551 -0.2536
18670W        W33801   7.859   4.562  14.050 -0.1811 -0.0368  0.0304
18671W        W33802   1.343   7.165  15.397  0.1158  0.2745  0.1959
18672W        W33803  12.972   5.390  14.624 -0.0567 -0.1901  0.1046
18673W        W33804   6.443  15.598  16.812 -0.1849 -0.0220 -0.0422
18674W        W33805   6.603  10.154   1.956  0.1420 -0.0521 -0.3824
18675W        W33806   2.765  15.299  13.815 -0.2550  0.1644  0.0064
18676W        W33807  13.816   1.985  14.726 -0.0261  0.0695  0.1862
18677W        W33808   8.410   2.316   5.007  0.1847 -0.0951  0.1050
18678W        W33809   6.319  12.570   3.236 -0.2264 -0.1419  0.2706
18679W        W33810   4.892   4.542  15.585 -0.2354 -0.0878 -0.1228
18680W        W33811   9.778   9.483   2.208 -0.0489  0.2745 -0.4927
18681W        W33812  15.392   1.323  15.624 -0.3293 -0.1186  0.2762
18682W        W33813   7.308   3.950   1.812 -0.0009 -0.0111 -0.0123
18683W        W33814  14.128   4.756  16.199 -0.0596  0.1928  0.1543
18684W        W33815   0.600  14.432   3.011  0.1494  0.1544  0.3631
18685W        W33816   4.843   8.882  14.235  0.3047 -0.1139 -0.2083
18686W        W33817  12.241   7.221  15.842 -0.1388 -0.0230 -0.0042
18687W        W33818   0.329  13.453  13.171 -0.0566  0.0234  0.0610
18688W        W33819  17.094   8.838   3.473  0.0185  0.3884 -0.0929
18689W        W33820   0.704   3.504   0.285  0.1885  0.2271  0.4180
18690W        W33821   3.549  10.919   2.008 -0.2031  0.1973 -0.2889
18691W        W33822  12.469   1.646  11.841 -0.0423 -0.0106  0.1037
18692W        W33823   0.230  14.385   2.697 -0.1165 -0.0285 -0.2048
18693W        W33824   9.566  13.327  12.775  0.1154 -0.1058 -0.0589
18694W        W33825   3.541   7.875   0.924 -0.0738 -0.1205  0.1377
18695W        W33826  11.754   2.277   3.666 -0.1020  0.0847 -0.1231
18696W        W33827   3.135   2.746  13.586 -0.0781  0.1818  0.1732
18697W        W33828  13.472   6.093   2.677 -0.1222  0.0568 -0.0295
18698W        W33829  10.597  11.089   2.549  0.1465  0.0417  0.1695
18699W        W33830   9.844  12.264   4.994 -0.1395 -0.0966 -0.0178
18700W        W33831   8.691   4.403   1.383 -0.0744  0.2200  0.0595
18701W        W33832   6.720   4.743  15.037 -0.0637  0.0296 -0.1909
18702W        W33833   8.598   6.261  11.486  0.2345  0.0027 -0.0795
18703W        W33834   6.537   7.205  13.552  0.1051 -0.0116 -0.1079
18704W        W33835  13.584   1.487  11.100 -0.1422  0.1387 -0.1658
18705W        W33836   0.924  15.098  13.301  0.0337  0.2515  0.0289
18706W        W33837  12.881  13.393  15.823 -0.0745  0.1454  0.2091
18707W        W33838  15.997   0.579  12.532 -0.0643 -0.0056  0.0081
18708W        W33839  11.304  14.560   4.746 -0.2327  0.2150  0.2866
18709W        W33840  11.114   3.021   4.724  0.3493 -0.2010 -0.0065
18710W        W33841  13.614   0.085   5.661 -0.0339 -0.1145  0.1192
18711W        W33842   3.631  17.714   3.987 -0.2126 -0.2988 -0.1231
18712W        W33843   5.016   1.641   2.301  0.0793  0.1322  0.3886
18713W        W33844  11.166   3.898   5.678  0.1490  0.1471  0.2681
18714W        W33845   2.284   6.053  16.866  0.1503 -0.2195 -0.0766
18715W        W33846   7.295   5.832   5.223  0.0134  0.1787  0.1364
18716W        W33847  17.026   4.979  16.345 -0.1637  0.0858 -0.0049
18717W        W33848  16.370  13.918  16.663  0.0014 -0.1537  0.0682
18718W        W33849   7.289   8.585   5.695 -0.0243 -0.3232  0.2083
18719W        W33850   7.764   2.438   2.278 -0.0722  0.0578  0.0395
18720W        W33851  13.301   5.041  14.676  0.0153 -0.2960 -0.3222
18721W        W33852   7.630   5.233   1.765 -0.0855 -0.0272 -0.1348
18722W        W33853  16.363  15.572  16.400  0.1530 -0.0923 -0.0758
18723W        W33854   4.980  12.018  15.062 -0.0074 -0.2590 -0.2016
18724W        W33855   7.335  16.698   6.798 -0.0403  0.0198  0.2259
18725W        W33856   5.402  13.901  16.065 -0.1529 -0.0089 -0.2576
18726W        W33857  17.268   1.447  15.659 -0.2240 -0.1138 -0.2847
18727W        W33858   1.210  11.188  14.365  0.0704 -0.1854  0.3318
18728W        W33859  16.885   4.641   4.858  0.1639  0.1281  0.1794
18729W        W33860   5.433  10.630   6.034 -0.1587  0.1115 -0.1482
18730W        W33861  11.762   0.292   4.454  0.0882  0.4093 -0.2145
18731W        W33862  11.699   7.936  12.768  0.1158 -0.1356  0.0030
18732W        W33863   0.075   1.011   4.333  0.4498  0.2410 -0.3026
18733W        W33864  12.313  10.260  11.865 -0.0342  0.2657  0.3530
18734W        W33865   4.502   5.693  16.561  0.1270 -0.1809  0.1477
18735W        W33866   1.515   7.198  11.733  0.1616  0.5519  0.1406
18736W        W33867  11.905   8.993   4.319 -0.2935 -0.0644 -0.1004
18737W        W33868   3.522  16.817   3.138 -0.2053 -0.1745  0.0997
18738W        W33869   4.853   7.832  16.910  0.1409  0.1182 -0.0541
18739W        W33870  14.689   6.295   4.803  0.2011 -0.1746 -0.0813
18740W        W33871   3.764  12.234   2.394 -0.0932 -0.1680  0.0737
18741W        W33872   3.186   1.880  16.108  0.3589  0.1778  0.4454
18742W        W33873   6.721  16.912   1.101 -0.1445  0.0650  0.0128
18743W        W33874  16.119   5.670   2.846  0.2801 -0.0568 -0.1402
18744W        W33875  15.610   4.740   2.397 -0.2661 -0.1522 -0.0289
18745W        W33876  15.045   5.120   5.583  0.0858 -0.2443  0.1418
18746W        W33877   7.606  10.600   4.984 -0.1826 -0.1073  0.0609
18747W        W33878   2.796   1.030  16.001 -0.1667 -0.4654  0.2634
18748W        W33879  17.659  12.688  14.492 -0.0387  0.0691  0.1141
18749W        W33880  15.508   7.898  13.483  0.0355  0.0387 -0.2421
18750W        W33881   1.683   8.216   5.847 -0.1157 -0.1639  0.1266
18751W        W33882  11.938  12.540   5.782 -0.1827 -0.2462 -0.1111
18752W        W33883  17.603  12.229  13.680  0.1355 -0.0624 -0.1676
18753W        W33884   4.499  13.358   6.186  0.2129 -0.0618  0.0834
18754W        W33885   9.949  11.753   0.319 -0.1636 -0.0688  0.1507
18755W        W33886   5.045  10.281  12.485  0.1063  0.0558  0.1583
18756W        W33887   1.136   2.088  12.599 -0.0190  0.1190 -0.0408
18757W        W33888  16.817  11.366   4.295  0.0158  0.0591  0.0256
18758W        W33889  14.172   9.361  11.439 -0.4897  0.0603  0.2552
18759W        W33890  16.773   4.082  16.513 -0.1069  0.2296 -0.0967
18760W        W33891  16.256  14.239   0.780  0.0353 -0.0532 -0.0995
18761W        W33892   7.360   7.041  16.557 -0.1029  0.0571 -0.1634
18762W        W33893   8.445   4.029  13.075 -0.0684 -0.1289 -0.0150
18763W        W33894   0.966  12.816  13.102 -0.0603 -0.1637 -0.0526
18764W        W33895  14.185   3.430  16.150  0.0428  0.0882 -0.3166
18765W        W33896  11.487   8.656   1.893 -0.3662  0.1187 -0.1075
18766W        W33897   3.896  11.454  12.649  0.0569 -0.0086 -0.1313
18767W        W33898  12.271  16.802  16.663 -0.1355  0.2036 -0.1836
18768W        W33899  13.483   4.231  12.718  0.0690  0.2987  0.1073
18769W        W33900   9.768   2.301  15.573 -0.1320  0.0115  0.2365
18770W        W33901   0.735  11.080   4.200  0.0340  0.2280  0.1401
18771W        W33902  12.144  15.887   0.282  0.2544 -0.0583  0.2382
18772W        W33903   5.089  14.237   0.467  0.0539 -0.1484  0.1530
18773W        W33904   1.339  14.874  14.289 -0.0545  0.2410 -0.0732
18774W        W33905  11.770  16.398   1.432  0.3142 -0.1306  0.1774
18775W        W33906   6.389   1.336  13.984  0.1273  0.1586  0.0402
18776W        W33907  10.661   8.903   2.089  0.1672  0.1093 -0.1880
18777W        W33908  15.988  17.612   5.244  0.1460 -0.0298 -0.1542
18778W        W33909   8.061   1.731  12.658  0.0100  0.0909  0.0387
18779W        W33910  13.781   2.111  16.255 -0.1280  0.1049 -0.0516
18780W        W33911  17.407   1.266  11.366  0.1023 -0.0862 -0.0503
18781W        W33912  12.206   7.868   3.531  0.2801 -0.0722  0.0903
18782W        W33913  11.340   5.816   0.724  0.1488  0.0154  0.0143
18783W        W33914  12.121   4.910  14.377 -0.0932 -0.0243  0.2541
18784W        W33915   0.578   9.997   0.173  0.0040 -0.0260 -0.2037
18785W        W33916   4.245  11.383  16.630  0.0896  0.3042 -0.1664
18786W        W33917   6.257   4.847   4.852  0.0262 -0.1211  0.0696
18787W        W33918  10.767   5.863  10.605 -0.0160 -0.1725 -0.0604
18788W        W33919   1.618  15.838   5.397 -0.0606  0.1457 -0.1384
18789W        W33920   0.009  14.475  16.035  0.4214  0.1424  0.1767
18790W        W33921   9.106   2.973  15.929  0.0697 -0.1479 -0.1246
18791W        W33922   0.441   0.741  14.727 -0.1140  0.1361  0.2856
18792W        W33923   4.866  12.843  16.808  0.2959  0.0319  0.1355
18793W        W33924   3.356   3.751  15.148 -0.1448  0.0454 -0.1209
18794W        W33925  16.407   9.800  11.202  0.2283  0.0570  0.0591
18795W        W33926  13.979   0.198  16.895 -0.2588  0.0858  0.0232
18796W        W33927   1.628  12.639   3.563 -0.1262  0.2762 -0.2407
18797W        W33928  15.837   1.204   1.610  0.0662  0.2658 -0.0419
18798W        W33929   0.965  14.786  11.347  0.0633  0.0086  0.0712
18799W        W33930   6.999  13.543   1.558  0.3176 -0.1454 -0.2976
18800W        W33931   7.783   0.381  15.044 -0.2009 -0.3081  0.1812
18801W        W33932   3.462   0.878  13.709 -0.0668  0.0139  0.0938
18802W        W33933   0.374   0.534  12.218  0.0686 -0.0888  0.0507
18803W        W33934  17.628  16.880   2.506 -0.1446 -0.0336 -0.2628
18804W        W33935  12.515  11.459  15.372  0.0841  0.1162  0.0335
18805W        W33936   7.974  14.653   4.745 -0.2040  0.0172 -0.3800
18806W        W33937   4.415  14.523   3.101 -0.1497  0.2992 -0.0099
18807W        W33938   7.116  14.206  14.461 -0.0689 -0.2548  0.0906
18808W        W33939  11.867  10.280  11.560 -0.1229 -0.1897  0.2132
18809W        W33940  10.066  17.254   1.480 -0.0775  0.1439 -0.1647
18810W        W33941   4.757  12.264   1.473  0.0085 -0.4031 -0.3279
18811W        W33942  10.685  10.451   3.129  0.0102  0.0242  0.0841
18812W        W33943   3.107   6.291   0.241 -0.0768 -0.1095  0.2531
18813W        W33944  14.224  14.403   0.088  0.0021  0.0593 -0.2235
18814W        W33945   9.535   7.652  12.033  0.0555  0.0269 -0.3716
18815W        W33946  10.267   9.372   3.602 -0.0323  0.2271 -0.1341
18816W        W33947  10.525  11.584   4.979  0.0214 -0.0818 -0.3235
18817W        W33948  13.635   7.212   2.878 -0.1480  0.0176 -0.2317
18818W        W33949   9.125  16.695   2.118  0.0562 -0.1385  0.0316
18819W        W33950   7.144  13.770  15.648 -0.2181 -0.0568  0.2566
18820W        W33951   1.288   7.695  14.395 -0.1841  0.0117  0.0473
18821W        W33952   7.775  13.638  11.098 -0.0611 -0.0571 -0.2459
18822W        W33953  10.243   9.829   2.741 -0.0212  0.1417  0.0292
18823W        W33954  17.157  16.293   5.783 -0.3013 -0.0817 -0.1740
18824W        W33955   5.301   4.240  11.933 -0.3114  0.1922 -0.2275
18825W        W33956   4.768   7.590   4.393  0.2778 -0.2230 -0.3556
18826W        W33957   7.473  12.598   3.887 -0.1382  0.2931  0.1688
18827W        W33958   4.523  16.779  14.804  0.0419 -0.3201  0.0575
18828W        W33959   9.948   0.412   2.785  0.2995 -0.0931 -0.0403
18829W        W33960  11.889   6.751  10.593  0.0032 -0.2079 -0.0538
18830W        W33961   3.305   1.970   3.930  0.0291  0.0154  0.0619
18831W        W33962   5.700   6.786   4.455  0.0281  0.1731  0.1069
18832W        W33963  16.120   1.164   2.337  0.0372 -0.0709  0.1555
18833W        W33964   9.751   3.315   1.189  0.2646  0.1051  0.1147
18834W        W33965   1.035   8.585  11.575  0.0174  0.0960 -0.0106
18835W        W33966   7.072  11.187  15.063 -0.2594  0.0933 -0.0640
18836W        W33967   8.244  13.556   2.702  0.1042  0.1620  0.1891
18837W        W33968   8.641   4.048  12.055 -0.1456  0.2146 -0.0066
18838W        W33969   0.416   2.490  12.987  0.0878 -0.2406  0.2616
18839W        W33970  12.483  10.174   0.510  0.2598 -0.3430  0.0021
18840W        W33971  17.008   3.695  14.718  0.2402 -0.1689  0.0114
18841W        W33972   4.791  10.127   1.973  0.0963 -0.1762 -0.1448
18842W        W33973  17.534   5.685   4.423 -0.0075 -0.3394  0.0859
18843W        W33974   0.779  10.343  11.471 -0.1959 -0.2311 -0.0360
18844W        W33975   5.154   5.244  13.590 -0.0366 -0.1222 -0.0908
18845W        W33976  11.834  11.352  14.500  0.1352  0.1313 -0.2084
18846W        W33977  14.595  13.455   3.332  0.0159 -0.0005  0.1737
18847W        W33978  14.275  12.292   1.462 -0.1293  0.0918  0.2766
18848W        W33979  16.069   6.086  16.506 -0.3383  0.1985 -0.2346
18849W        W33980   5.013   5.328   4.789 -0.1166  0.1762 -0.2512
18850W        W33981  15.315   3.593   1.455  0.3926  0.3179  0.0285
18851W        W33982   5.426  17.456  15.377  0.1358 -0.2143 -0.1795
18852W        W33983   7.766   8.819  12.869 -0.3258 -0.1595  0.3563
18853W        W33984   2.664   5.902   0.217  0.1689 -0.2211  0.1748
18854W        W33985   4.381   9.815  11.887 -0.2138  0.2404 -0.2661
18855W        W33986   6.360  12.074   6.689 -0.2277 -0.4391 -0.0351
18856W        W33987   6.792   2.437   5.370 -0.1599 -0.2492 -0.1973
18857W        W33988   4.903  11.982  16.540  0.1789 -0.0142 -0.2929
18858W        W33989   6.389   8.397  13.939 -0.1400  0.1675  0.0594
18859W        W33990   7.128   9.696   3.698 -0.1284 -0.0680  0.0090
18860W        W33991   0.649   6.291   0.744 -0.1610 -0.0521 -0.0886
18861W        W33992  11.923  13.837   2.840  0.0333 -0.0612  0.0410
18862W        W33993   5.190  14.614   2.005 -0.2128  0.0458  0.3014
18863W        W33994   1.564  15.092  16.633 -0.1913 -0.0697  0.3099
18864W        W33995  17.567  16.481  15.034  0.0764  0.1921 -0.0533
18865W        W33996   6.844  11.325   0.337 -0.1587  0.1459 -0.2351
18866W        W33997  17.522  10.297  15.273  0.1232  0.2046  0.2263
18867W        W33998   8.905  16.852   4.122 -0.0902 -0.1738  0.0076
18868W        W33999   1.111   0.193   4.537 -0.1023  0.2310  0.0922
18869W        W34000  14.566  11.804   2.775 -0.0474 -0.1429 -0.1097
18870W        W34001   8.768   6.839  15.752 -0.1097  0.1261  0.0585
18871W        W34002  16.056  11.945  11.670 -0.1543 -0.1117 -0.0597
18872W        W34003   9.170  15.882  13.592  0.4364  0.0479 -0.0895
18873W        W34004   9.235   4.359  14.897 -0.1955  0.0168 -0.0445
18874W        W34005  13.607   4.116   1.694 -0.0192 -0.0593  0.0334
18875W        W34006  15.689  10.574   4.716 -0.1833  0.0122  0.4720
18876W        W34007  13.204  13.357   3.681 -0.0367  0.0459  0.3428
18877W        W34008   2.165   6.736  13.888 -0.2387  0.5392 -0.2704
18878W        W34009   1.108   4.235  14.622 -0.2331 -0.3886  0.1977
18879W        W34010  16.430  15.917  15.251  0.0645 -0.1927 -0.4120
18880W        W34011   2.426  10.979   0.605 -0.0375 -0.1211  0.0144
18881W        W34012   8.239   4.148  14.980  0.3891  0.2160  0.0477
18882W        W34013   5.364  13.116   2.508 -0.1263  0.0541 -0.0487
18883W        W34014   1.683   5.981  16.261  0.1727 -0.2509  0.2356
18884W        W34015   2.312  17.431   3.955 -0.0732 -0.2265 -0.0362
18885W        W34016   4.645   5.421  11.995 -0.1251 -0.2757  0.2221
18886W        W34017   7.738   2.717  13.711 -0.4369 -0.1603  0.0856
18887W        W34018  16.380  16.036  16.542 -0.1658  0.0181  0.0820
18888W        W34019  12.426   8.447   0.609 -0.1991 -0.0889 -0.1145
18889W        W34020  13.742   7.003  13.616 -0.1706 -0.0417 -0.0686
18890W        W34021   7.279   2.452   4.331 -0.0278 -0.0228  0.0067
18891W        W34022   6.631   8.183  15.016 -0.0912 -0.0389 -0.0918
18892W        W34023  16.953   3.391  13.808  0.1974 -0.3295  0.0618
18893W        W34024  12.361   2.581   5.288 -0.1899 -0.0252 -0.0396
18894W        W34025   1.157  13.887   5.598 -0.0256 -0.2134 -0.2346
18895W        W34026  13.168  12.154  13.211  0.1939 -0.1022 -0.1742
18896W        W34027  10.249  15.166   0.667  0.0579 -0.0341 -0.0450
18897W        W34028  13.753   1.201  15.809  0.2855 -0.1354 -0.0325
18898W        W34029  15.814  15.120   0.930  0.0398  0.0994 -0.0785
18899W        W34030  11.149  14.092  14.809  0.0536 -0.2823 -0.1235
18900W        W34031  12.399  17.500  12.174 -0.0591  0.1958  0.0840
18901W        W34032  17.616  17.174  14.305 -0.1201 -0.3632 -0.0019
18902W        W34033   3.958   6.431   1.935  0.0315 -0.2461 -0.2059
18903W        W34034  15.805   9.461  11.227 -0.0833  0.2436 -0.0829
18904W        W34035   0.789   2.806  13.211  0.0954 -0.4494 -0.0248
18905W        W34036   5.420   4.994  12.240  0.0447 -0.0136 -0.0175
18906W        W34037   5.011   4.662  12.106  0.0366 -0.0035  0.2393
18907W        W34038   8.161  17.192   4.235  0.0069  0.2275  0.0611
18908W        W34039  14.407  13.751   1.648  0.0826  0.1337  0.0949
18909W        W34040   1.955  12.992  14.699 -0.3196  0.1305  0.1064
18910W        W34041  10.365   5.492  12.504 -0.3189  0.3065 -0.0917
18911W        W34042   6.703   5.081  13.264 -0.2623 -0.0762 -0.2369
18912W        W34043  17.324  10.993   4.920 -0.0565 -0.2463 -0.1738
18913W        W34044  14.158  16.061   0.859 -0.0404 -0.0653 -0.0708
18914W        W34045  10.225  13.496  13.381 -0.0400  0.2551  0.0149
18915W        W34046   0.125   7.067  13.965  0.1874  0.0783 -0.1510
18916W        W34047   5.801  11.547   4.940 -0.3037 -0.0898 -0.0183
18917W        W34048  15.068  10.636   5.868  0.0405 -0.1068 -0.1737
18918W        W34049   6.771  12.148   3.324  0.1198 -0.0420 -0.0225
18919W        W34050  15.829   4.417  13.013 -0.1313  0.0079 -0.0729
18920W        W34051  12.543   7.544  11.361 -0.2013 -0.4814  0.2304
18921W        W34052  12.577  14.950   2.636  0.1848 -0.0266  0.2564
18922W        W34053   2.804  16.321   5.779 -0.0496 -0.3681  0.4041
18923W        W34054   8.429  13.082   3.376 -0.1736 -0.0594  0.2416
18924W        W34055   7.980   4.376  14.635  0.0700  0.0516 -0.2379
18925W        W34056  15.072   4.568   3.160 -0.2817 -0.2885  0.0444
18926W        W34057   8.785   4.588  16.461 -0.0475 -0.0236  0.0281
18927W        W34058  14.162  16.154  11.761 -0.0352  0.0848  0.1108
18928W        W34059   1.910  16.074   5.760 -0.0265  0.0834  0.1042
18929W        W34060  14.848   8.515  13.027  0.0896 -0.0537 -0.1325
18930W        W34061  14.728  10.400   1.499 -0.0704  0.1042  0.0854
18931W        W34062   4.804   9.810  12.188  0.0547 -0.2744 -0.1647
18932W        W34063  13.093  14.917   1.744  0.0548 -0.1559  0.3340
18933W        W34064  16.840   3.236  10.823  0.2770 -0.2835 -0.0646
18934W        W34065   0.738  13.215   5.635  0.0807  0.1702  0.0759
18935W        W34066  11.150  10.412  12.848  0.0515  0.1266  0.1666
18936W        W34067   2.110   7.505  15.905  0.0852  0.0512 -0.0076
18937W        W34068   1.095  10.730   1.215 -0.0089 -0.3635  0.0453
18938W        W34069  17.014   7.816   6.563 -0.2168 -0.1657  0.0555
18939W        W34070   1.304   4.680   3.769  0.3685  0.1941 -0.3645
18940W        W34071   5.858   9.746   1.600  0.0459  0.2889  0.1794
18941W        W34072   9.145   5.022  11.162 -0.3452 -0.0551 -0.0178
18942W        W34073  17.042   9.160   1.910 -0.2415  0.4141  0.1823
18943W        W34074  15.648   0.273  13.381  0.2030  0.0452  0.0289
18944W        W34075   1.240   6.766  11.984 -0.0687 -0.0562 -0.0374
18945W        W34076  11.909  15.471  13.930 -0.0307 -0.2796 -0.0308
18946W        W34077  15.338  13.320  12.333 -0.2325 -0.3032 -0.1998
18947W        W34078   3.831  16.848   5.670  0.2681  0.1153  0.1647
18948W        W34079  14.501   3.975   1.834  0.0402  0.1195 -0.3137
18949W        W34080  14.284   7.701   2.580  0.2468 -0.1912 -0.1995
18950W        W34081   0.974   3.908   0.685  0.2744 -0.0361  0.0618
18951W        W34082   4.317  16.834   1.932 -0.0846 -0.3480 -0.2074
18952W        W34083   1.622   0.670  12.928 -0.2945  0.1281 -0.2528
18953W        W34084  12.340  12.949  13.697 -0.3357  0.2482  0.0313
18954W        W34085  11.584   6.494   1.718 -0.0153 -0.1190  0.2752
18955W        W34086   5.403   2.358   0.722 -0.0537 -0.0548  0.0059
18956W        W34087  10.086  15.494   2.621  0.2039  0.0293  0.2027
18957W        W34088  15.463  10.796  15.914 -0.2169  0.0042  0.2057
18958W        W34089   0.766   4.017   4.221 -0.1326  0.0093  0.0432
18959W        W34090  10.776   3.071  14.993 -0.1218  0.2470  0.0416
18960W        W34091  11.564   4.267  14.415  0.2625  0.2333  0.1780
18961W        W34092  10.726   0.093   4.247  0.1515  0.2452 -0.0718
18962W        W34093   6.712   3.386  11.524  0.0118 -0.0308  0.0323
18963W        W34094   6.663   5.328  15.023  0.0507  0.0600 -0.2247
18964W        W34095  13.780   7.816   0.448  0.2791  0.0282 -0.3934
18965W        W34096   3.586   6.405  14.598  0.0434  0.0199 -0.1697
18966W        W34097   1.768   7.723   3.706 -0.2073  0.0229  0.2964
18967W        W34098   8.729   5.057  16.073 -0.1193  0.3145  0.5542
18968W        W34099  15.900  15.158   5.026  0.2376  0.0712 -0.1119
18969W        W34100   1.114  14.525   2.281  0.2789  0.0616 -0.1565
18970W        W34101   1.533   3.831   4.121  0.1076  0.0229 -0.1041
18971W        W34102  11.710   4.408   2.296  0.1990 -0.1894  0.3270
18972W        W34103  10.464  11.958  12.247 -0.2073  0.0077  0.1070
18973W        W34104  17.165  16.181   0.571  0.0683  0.0699  0.4115
18974W        W34105   4.838  11.630   3.142  0.3267  0.1993 -0.1606
18975W        W34106  11.163  10.784   3.284  0.1744  0.1516  0.1579
18976W        W34107   2.501   6.742   3.182 -0.1487 -0.1565  0.4000
18977W        W34108   6.561  17.540   3.759  0.0284  0.1841 -0.0139
18978W        W34109   7.272  15.585   3.766  0.2676  0.2818  0.2320
18979W        W34110   5.270   5.234   1.812  0.1634  0.1583  0.1492
18980W        W34111   2.773  13.699  15.554  0.1116 -0.0962  0.2990
18981W        W34112  12.223   5.763  16.531 -0.0959 -0.0176 -0.0982
18982W        W34113  14.536   7.515  13.191 -0.0008 -0.2542  0.0632
18983W        W34114  15.593  16.531   4.521 -0.1429  0.3049 -0.2083
18984W        W34115   6.073  11.989  14.497  0.0781 -0.2878 -0.3106
18985W        W34116  11.843   3.679   2.980  0.2021 -0.0038 -0.0748
18986W        W34117   3.248   6.129  14.907  0.0027 -0.1065  0.1587
18987W        W34118   3.542   3.853  13.120  0.1379 -0.3425  0.1647
18988W        W34119   6.301  13.783   0.451 -0.1728  0.0434  0.1940
18989W        W34120  10.518  14.822  13.081 -0.0632  0.1686 -0.1239
18990W        W34121   5.752   0.850   2.952 -0.3064  0.1321 -0.0756
18991W        W34122  12.217   1.348  12.374  0.0927 -0.0653 -0.0411
18992W        W34123   3.592   1.788   4.923  0.1917 -0.0209 -0.2786
18993W        W34124   2.479   3.223   4.996 -0.1929 -0.0144 -0.1738
18994W        W34125  13.097   9.516   0.884  0.0704  0.1141  0.0153
18995W        W34126  16.675   3.793  10.649  0.0114  0.1065 -0.0505
18996W        W34127  15.373  15.654  11.288 -0.1090 -0.0888  0.0303
18997W        W34128   1.378   5.599   0.947  0.3257  0.0748  0.1099
18998W        W34129   0.044   0.625  13.646  0.0519  0.0837 -0.0750
18999W        W34130   4.202   0.552   5.608  0.0068  0.0980  0.1514
19000W        W34131  12.331  14.662  14.334 -0.0297  0.1106  0.0592
19001W        W34132  11.147  11.181   4.487  0.3568  0.2429  0.0626
19002W        W34133   1.663  16.741   6.165 -0.5096 -0.1742  0.1071
19003W        W34134   1.665  15.709  13.190  0.0833  0.3795  0.0912
19004W        W34135   8.865   6.415  12.917  0.1192  0.2675 -0.0370
19005W        W34136   9.412   5.685  11.552 -0.3136 -0.1689  0.0559
19006W        W34137   1.080  14.128   6.032  0.1069 -0.3037 -0.0342
19007W        W34138   9.804   6.385  12.592  0.0253  0.2572  0.1612
19008W        W34139  10.708   8.631  16.918  0.1097 -0.1390  0.3836
19009W        W34140  10.604  15.587  13.438 -0.1034 -0.3449  0.1660
19010W        W34141   7.954  15.778   4.388  0.2974 -0.3968  0.1643
19011W        W34142   5.209   6.979   4.861 -0.0535  0.1788 -0.0150
19012W        W34143   9.821   7.247  16.057 -0.3737  0.1495  0.0140
19013W        W34144   2.214   4.187  15.377 -0.4976  0.2468  0.0304
19014W        W34145   2.733   4.310   0.210  0.3202  0.3301 -0.2123
19015W        W34146   4.742  14.223   4.372 -0.0424  0.1566 -0.1154
19016W        W34147  10.205  11.258   3.395  0.1308  0.2247  0.1383
19017W        W34148  17.090   9.385   4.521  0.0305  0.1629  0.1100
19018W        W34149   3.919  17.679   4.367 -0.0843  0.0945  0.0120
19019W        W34150  16.423   6.001  11.782  0.4872  0.0365  0.4013
19020W        W34151   7.605  16.775  15.466  0.0527  0.1782  0.1155
19021W        W34152   8.778   1.312   5.429  0.1605 -0.0707  0.1428
19022W        W34153   6.098   7.973   1.656  0.0250  0.2351 -0.1085
19023W        W34154  13.322   9.897  15.439  0.0570  0.1305 -0.3659
19024W        W34155  16.882  17.434   4.304  0.0725 -0.0015  0.1787
19025W        W34156   2.511  16.362   6.200  0.0489  0.1015 -0.3683
19026W        W34157   2.672   2.019  12.548  0.0880  0.0838 -0.0365
19027W        W34158   5.148  15.812   2.623  0.1314  0.2482  0.2449
19028W        W34159  14.134   8.404  11.030  0.1664  0.2156 -0.3236
19029W        W34160   4.898   0.153  14.435  0.3556 -0.2021  0.1808
19030W        W34161   0.357  11.982  15.433 -0.0246  0.3561 -0.1439
19031W        W34162   3.937   0.990   1.282  0.1449 -0.0739 -0.2335
19032W        W34163  17.174  13.145   3.362 -0.1377 -0.0479  0.1262
19033W        W34164   5.124  15.852   3.099 -0.0334 -0.0218 -0.0270
19034W        W34165  10.665  11.840   6.361 -0.0571 -0.2329 -0.0778
19035W        W34166  14.611   0.642   4.235  0.2092  0.0097  0.0495
19036W        W34167  10.683   1.224   3.605 -0.0588  0.2031  0.1991
19037W        W34168  15.177  16.934  15.540 -0.0597  0.1739  0.2360
19038W        W34169  12.152   9.067  16.243  0.1676 -0.2779 -0.0394
19039W        W34170   7.851   0.694   3.841 -0.0031  0.1119  0.3116
19040W        W34171   2.375  16.816   0.042  0.0562  0.1031 -0.0352
19041W        W34172  13.507  13.710  15.278  0.3548 -0.2127  0.0873
19042W        W34173  11.485  10.620   4.773 -0.2961 -0.0003 -0.0157
19043W        W34174   9.954  13.310  12.401 -0.2070  0.0001 -0.0121
19044W        W34175   3.020  13.576  13.484  0.0079  0.1387  0.1648
19045W        W34176   4.391  10.297   4.777 -0.1573  0.2879  0.1746
19046W        W34177  16.683  16.506  11.277  0.1044  0.4530 -0.0229
19047W        W34178  14.259   7.245   3.984 -0.3083 -0.1957 -0.0777
19048W        W34179   3.543   3.944  12.609 -0.2635 -0.1143 -0.0998
19049W        W34180   7.013  14.555   4.380 -0.1410  0.0305  0.3245
19050W        W34181   3.306  11.249  15.123  0.0226  0.1005 -0.0038
19051W        W34182   0.927  14.531  16.477  0.2690  0.0856 -0.2572
19052W        W34183  11.653  16.940   4.585 -0.0823 -0.0094  0.0797
19053W        W34184  10.365   9.880   4.832 -0.0498  0.0470 -0.0451
19054W        W34185   7.349   3.050   4.819 -0.0624  0.1166  0.1812
19055W        W34186  14.332   8.189  15.343 -0.0138 -0.1577  0.1717
19056W        W34187   2.113   7.368  14.415  0.0033  0.1716 -0.1518
19057W        W34188  16.421   6.454   2.589  0.2771 -0.0233 -0.0077
19058W        W34189  14.686   8.498   6.160 -0.0890  0.3049  0.0152
19059W        W34190   4.248   1.773  11.221 -0.0853  0.0612  0.1407
19060W        W34191   6.423  13.344   4.060  0.0436 -0.2518  0.0766
19061W        W34192   3.877   5.391  11.625 -0.2536 -0.1991  0.2794
19062W        W34193  13.048   0.482   3.522  0.0259  0.0888 -0.2680
19063W        W34194   1.162  11.811  13.699 -0.0357  0.1276  0.2644
19064W        W34195   5.023  16.987  12.966 -0.0542 -0.0425 -0.0467
19065W        W34196   6.988   0.350   4.185  0.2818  0.2176  0.0236
19066W        W34197   2.957  11.445   4.773  0.0886  0.2622 -0.2191
19067W        W34198  16.797  12.867  14.599  0.0309 -0.0131 -0.2119
19068W        W34199   7.926   0.045   2.701  0.2179  0.0643 -0.2996
19069W        W34200  15.613   0.514  15.458  0.1918 -0.3193 -0.3179
19070W        W34201  13.025   4.600  14.741 -0.1956 -0.1169  0.1239
19071W        W34202   1.505  16.161  13.500  0.0757  0.0748 -0.1477
19072W        W34203   1.075   5.438  15.647 -0.0261 -0.3038 -0.0046
19073W        W34204  14.925   2.616   1.148  0.1725  0.0879 -0.1527
19074W        W34205   2.940   4.877   1.797 -0.1775  0.0712 -0.0218
19075W        W34206  12.502   3.951  11.304 -0.2435  0.1795  0.2054
19076W        W34207   9.861  14.566  16.501 -0.2228 -0.0387  0.3081
19077W        W34208  14.040   2.320  11.846  0.0909  0.0008 -0.0971
19078W        W34209   6.741   6.239   2.176  0.0067  0.1217  0.0180
19079W        W34210  14.169  14.211   1.035  0.0666 -0.2638  0.1149
19080W        W34211   3.996   7.784   5.263 -0.2580  0.0405  0.0884
19081W        W34212  17.248  12.442   3.903  0.1791 -0.0628  0.1551
19082W        W34213  17.710  11.319  12.908  0.1624 -0.0917  0.0229
19083W        W34214  11.328  10.331  16.720 -0.1656 -0.1039 -0.1842
19084W        W34215  12.528  12.195  13.121 -0.1293  0.0658 -0.0269
19085W        W34216   7.871  14.491  15.554 -0.2401  0.2128  0.0900
19086W        W34217  17.095  10.027   0.031  0.0202  0.1721  0.0207
19087W        W34218  14.183  16.881  15.532  0.0013  0.0140  0.0876
19088W        W34219  13.785  13.620   5.930  0.1081  0.0655  0.1032
19089W        W34220  10.008   7.506  11.191  0.3476  0.0090  0.1627
19090W        W34221   7.644   1.628  14.334 -0.1893  0.0219 -0.0461
19091W        W34222   2.046  15.196   1.486  0.1691 -0.0650  0.1381
19092W        W34223  10.377  15.315  13.103  0.2034  0.1417  0.0925
19093W        W34224  14.068   7.177  14.320 -0.0200 -0.3244 -0.1508
19094W        W34225  10.543   8.204   2.720 -0.0362  0.1923  0.2700
19095W        W34226   5.921   6.646  14.058  0.2672  0.2324 -0.0018
19096W        W34227  16.167   2.224   2.409  0.1606 -0.1255  0.1477
19097W        W34228   5.959  17.432   5.006  0.2500 -0.0282  0.0243
19098W        W34229  14.386   8.448  16.375 -0.1759 -0.0568  0.0680
19099W        W34230   9.130   3.610   4.667 -0.1431  0.0927 -0.1691
19100W        W34231  10.004   9.994   5.789 -0.1781  0.1813  0.0649
19101W        W34232  15.817   7.771  12.136  0.1555  0.1863 -0.0023
19102W        W34233  10.170  12.646   4.404 -0.1945  0.0575 -0.3961
19103W        W34234   2.207   3.041   2.122  0.1657 -0.0904 -0.2491
19104W        W34235   5.107   9.809   3.793  0.0664 -0.0732 -0.0337
19105W        W34236   5.423   1.423   2.435 -0.1378  0.3610 -0.0166
19106W        W34237  17.553  14.660  16.914 -0.2374 -0.3001  0.0914
19107W        W34238   2.181   7.648  10.704  0.1332  0.0679 -0.1186
19108W        W34239   1.833   8.204  12.813 -0.2128  0.0226  0.1463
19109W        W34240   2.838  10.093  13.218 -0.0263 -0.3235  0.2321
19110W        W34241   0.666   6.250  15.482  0.1067  0.1480  0.0560
19111W        W34242   2.525  17.243   0.989  0.0020  0.0538 -0.0760
19112W        W34243   3.390  10.626   2.799  0.1118 -0.0173  0.1034
19113W        W34244  14.551  10.715   0.355 -0.0618  0.0396  0.2145
19114W        W34245   7.198   3.191   2.558  0.0702  0.0869  0.1217
19115W        W34246  13.859  15.726   1.715  0.1751  0.0678 -0.1033
19116W        W34247   7.451   4.649  15.192 -0.0260 -0.1375 -0.0842
19117W        W34248   8.327   5.429   5.157  0.1910  0.2967  0.2103
19118W        W34249  16.901  13.364  13.925  0.1225  0.2519 -0.0630
19119W        W34250  11.178   7.724   3.083  0.1042 -0.1156 -0.1795
19120W        W34251   9.876   0.481  15.505  0.2197  0.0446 -0.0486
19121W        W34252  15.690   4.381  15.550  0.1385  0.0233  0.1700
19122W        W34253  11.940   1.992   4.935 -0.1936  0.1680 -0.2023
19123W        W34254   7.233  10.510   2.710  0.4191 -0.4278 -0.3090
19124W        W34255  16.462  14.051   4.939 -0.2511  0.1851 -0.1816
19125W        W34256  17.335   4.505  14.965  0.0463 -0.0028  0.0633
19126W        W34257   0.733  10.861  15.988  0.1331 -0.0393  0.0654
19127W        W34258   8.651  16.654   5.442  0.2078  0.2253  0.0959
19128W        W34259  13.844   8.036   2.445  0.0072 -0.0734 -0.1841
19129W        W34260   5.754   3.277   1.517  0.0896 -0.1271  0.2813
19130W        W34261  14.543   0.052  11.919 -0.0259 -0.1225 -0.2186
19131W        W34262   5.222  11.015   5.369 -0.2899  0.2674 -0.1383
19132W        W34263   5.312  10.391  13.413  0.1358 -0.0659  0.2608
19133W        W34264   4.189   9.927  15.107 -0.3360  0.2065 -0.0372
19134W        W34265  14.345  11.944  14.112 -0.1031 -0.3116 -0.0336
19135W        W34266   1.769  11.406   0.953  0.0634  0.1369  0.1276
19136W        W34267   6.576   2.045   1.287 -0.1866 -0.4457 -0.0135
19137W        W34268   1.634   4.787   5.946 -0.1939 -0.0142  0.1501
19138W        W34269   1.813  11.958   2.804 -0.3205  0.0395 -0.0459
19139W        W34270   1.845   1.375   0.982 -0.0303 -0.0861  0.0867
19140W        W34271  13.613  11.274  13.236  0.0941 -0.4359  0.1503
19141W        W34272  15.783  15.893   0.636  0.0461  0.0288  0.1326
19142W        W34273   0.244  16.920   5.006  0.0410 -0.0203  0.3597
19143W        W34274   8.887   2.238   2.826 -0.1424  0.2864  0.2389
19144W        W34275   2.202   9.689  14.310 -0.1203  0.0746 -0.0008
19145W        W34276   5.442  14.281  16.504  0.0154 -0.1407 -0.2377
19146W        W34277   5.095   3.448   0.137  0.0728 -0.1499 -0.0006
19147W        W34278  10.690  14.260  13.942 -0.2786 -0.3436  0.1368
19148W        W34279  14.066  14.452  12.926 -0.1560  0.2497 -0.1875
19149W        W34280  10.995   0.857  15.062  0.1628 -0.0457  0.1859
19150W        W34281  16.564  10.928  16.452 -0.1376  0.1296  0.4396
19151W        W34282  14.183  17.526   0.317  0.1812 -0.0686 -0.0926
19152W        W34283  16.267   7.820  15.917  0.0299  0.0449  0.0655
19153W        W34284   1.391   3.964  16.652  0.3656  0.0717  0.0916
19154W        W34285   9.001  16.125  15.032 -0.0130  0.0007 -0.1930
19155W        W34286  15.396   8.804  16.641 -0.1742 -0.1855  0.0380
19156W        W34287   5.752   2.389  16.367 -0.2299  0.1782 -0.1471
19157W        W34288  16.541   0.264   4.263 -0.1307  0.2293  0.1010
19158W        W34289   8.663   7.791  16.137  0.2429  0.0292 -0.1603
19159W        W34290  13.598   6.190   5.799 -0.0684  0.1455 -0.2145
19160W        W34291   8.542   0.523   0.533  0.1159 -0.0346 -0.1696
19161W        W34292  10.394  11.694  14.790 -0.0641  0.1320  0.1428
19162W        W34293  16.755   9.604  11.613  0.2430 -0.0798  0.2739
19163W        W34294   3.446   9.578   4.246  0.3403  0.0661 -0.1124
19164W        W34295  16.882  10.973   3.536 -0.0229  0.0447  0.5468
19165W        W34296   8.159   0.595   1.499  0.0720  0.0267  0.2909
19166W        W34297   7.424   7.135  11.507 -0.0027 -0.0735 -0.0693
19167W        W34298   0.190   8.310  11.858 -0.1356 -0.2609 -0.1234
19168W        W34299   8.346  16.919   0.587 -0.0526  0.0431 -0.0441
19169W        W34300   7.879   2.452  16.018 -0.1256 -0.0582 -0.1597
19170W        W34301  10.870   2.816   3.959  0.1444  0.1578  0.0569
19171W        W34302  12.519  12.250   4.107 -0.1193 -0.1719 -0.0339
19172W        W34303   4.840   5.482  14.712  0.0024 -0.0144  0.1034
19173W        W34304   8.962   5.967  11.395  0.0839  0.0450 -0.4012
19174W        W34305  14.261   1.861  14.524  0.0680  0.0969 -0.0778
19175W        W34306  13.960   2.808   0.998 -0.2663 -0.0800  0.2269
19176W        W34307  13.576  12.453  11.291  0.1304  0.0652  0.3635
19177W        W34308   5.571   3.464  12.496  0.0907  0.0345 -0.2171
19178W        W34309   3.319   6.714   5.410  0.5143 -0.2638 -0.0136
19179W        W34310   3.047   6.418  15.887 -0.1359  0.0320 -0.0296
19180W        W34311   3.476  15.020   0.668 -0.1243  0.2151  0.2196
19181W        W34312   0.299  15.855   5.192 -0.0015  0.1105 -0.0941
19182W        W34313  10.212  10.334   4.918 -0.2117  0.1816 -0.2652
19183W        W34314   7.973  10.758   5.238  0.2066 -0.3670  0.3205
19184W        W34315  10.317   2.285  12.335  0.0546 -0.3124 -0.2960
19185W        W34316   5.888   3.744  16.237 -0.1127 -0.2516 -0.0778
19186W        W34317  15.071   6.478  13.447 -0.2372  0.1528  0.1170
19187W        W34318   5.713  12.843  11.568 -0.1707 -0.2907 -0.1360
19188W        W34319  16.479   5.298   1.357 -0.0277  0.2072 -0.3379
19189W        W34320  11.075   2.016   0.802 -0.1186  0.3932  0.0587
19190W        W34321   0.927  14.408   5.478 -0.2044  0.0869 -0.1031
19191W        W34322  11.926  12.744   4.264 -0.1093 -0.0578 -0.1723
19192W        W34323  17.190   1.460  16.209  0.0418 -0.0229  0.1402
19193W        W34324   7.923   6.954   2.709  0.0876 -0.2645  0.0880
19194W        W34325   0.440   7.997   4.673  0.1824 -0.1443 -0.2109
19195W        W34326  14.233  10.417   3.618 -0.0568  0.0276 -0.1107
19196W        W34327  16.190   9.043  16.056  0.2311  0.0212 -0.4669
19197W        W34328   5.475   1.993   5.244 -0.1911  0.2529  0.2548
19198W        W34329   5.552   6.923  15.885  0.0103  0.3679 -0.1020
19199W        W34330   0.617   8.641  11.892 -0.1517  0.2020  0.0675
19200W        W34331  10.711  15.848  15.109  0.0053  0.0101  0.0732
19201W        W34332   9.525   1.871   2.389  0.0344 -0.0409 -0.2410
19202W        W34333  12.686  16.621   1.467 -0.4068 -0.0013 -0.1475
19203W        W34334  14.703  12.511   1.811 -0.0181  0.1756  0.0395
19204W        W34335   8.706  16.507   1.933 -0.1536  0.1132  0.2841
19205W        W34336  13.767   6.313   4.107 -0.1951  0.3229  0.2185
19206W        W34337  13.526  12.971  12.581  0.2317  0.1695 -0.2664
19207W        W34338  12.315  16.189   4.904 -0.3484 -0.2848  0.3319
19208W        W34339  12.166  13.518   4.567 -0.0458 -0.0212  0.0514
19209W        W34340  10.514  11.092  16.898  0.1953  0.0187  0.2173
19210W        W34341  12.710   5.922   4.740  0.2380  0.0812  0.3064
19211W        W34342  13.000   7.491   1.976  0.3138 -0.1996  0.2989
19212W        W34343  14.236  15.006   4.022  0.0859  0.0568 -0.3056
19213W        W34344   8.720   4.449   2.001  0.2588  0.1691  0.0570
19214W        W34345   0.239   3.726  11.031  0.0815 -0.4071  0.0474
19215W        W34346  11.268  14.158   6.017 -0.0554 -0.0783 -0.1408
19216W        W34347  10.687   8.400   3.572 -0.0368 -0.1592 -0.0672
19217W        W34348   2.767   6.783   1.332 -0.2057  0.3491 -0.2870
19218W        W34349   2.292   2.279  10.862 -0.1117  0.0929 -0.1019
19219W        W34350   6.800   1.036  12.672 -0.4265  0.1288  0.0618
19220W        W34351  11.869   8.174  11.152 -0.1181 -0.1749 -0.1812
19221W        W34352   0.156   0.911   3.094  0.0903 -0.3533 -0.2239
19222W        W34353  15.127  11.135   6.027  0.0816  0.1611 -0.1031
19223W        W34354  17.523  16.154   0.215 -0.1515  0.2081  0.1627
19224W        W34355  14.963   9.669  15.433  0.2437  0.0958 -0.2893
19225W        W34356  16.965  16.065   3.887  0.2311  0.0617 -0.1107
19226W        W34357  14.768  17.354   3.730 -0.0987  0.0336  0.2563
19227W        W34358  13.681   8.896   1.714 -0.1021 -0.2354 -0.0996
19228W        W34359   2.706  16.092  15.645 -0.1336 -0.1092  0.1139
19229W        W34360  17.038  16.677   1.252 -0.0772 -0.1883 -0.0774
19230W        W34361   4.254  15.204  15.386  0.1022 -0.2922 -0.1796
19231W        W34362  12.049  11.422   1.408  0.0560 -0.1068 -0.2521
19232W        W34363   9.215  15.783   5.564  0.1356  0.0100 -0.1106
19233W        W34364   1.701   3.854  10.969 -0.0646  0.0556  0.3198
19234W        W34365  16.345  13.151   0.363  0.0659  0.3446  0.1473
19235W        W34366  10.816  17.435  13.856  0.1647 -0.0029 -0.0503
19236W        W34367   1.808  17.478  16.634  0.2161 -0.0314 -0.1608
19237W        W34368   2.147   0.315   3.453  0.0394  0.2363 -0.0177
19238W        W34369  13.716  15.861   1.284 -0.0656  0.0757 -0.2320
19239W        W34370   0.976  17.373  13.750  0.0405  0.1689  0.1977
19240W        W34371  14.223   6.983  12.545 -0.1124  0.0454 -0.1481
19241W        W34372   1.704   4.376   3.688  0.0072  0.1584  0.3597
19242W        W34373   1.953  12.721   0.011  0.1416  0.0468 -0.2318
19243W        W34374  11.979  11.935  12.548 -0.1469  0.0265 -0.1696
19244W        W34375  16.647   0.203   1.209  0.2393 -0.2038 -0.1129
19245W        W34376  14.312  11.282  13.084 -0.3540 -0.0719  0.0084
19246W        W34377  11.260   0.860  14.228 -0.2001 -0.0723  0.2536
19247W        W34378  16.659  10.426  13.846 -0.1780  0.2372  0.0250
19248W        W34379  12.486   4.368   0.333  0.0021  0.2300 -0.2324
19249W        W34380   2.899   6.261  11.969  0.1992  0.2129  0.0188
19250W        W34381  13.922  11.984  15.407  0.1475  0.1166  0.2158
19251W        W34382   5.293  10.427  14.593  0.0912  0.0483  0.0889
19252W        W34383  17.384   0.847   4.651 -0.2270 -0.2550  0.2146
19253W        W34384  15.491   6.167   3.802  0.0693 -0.2608  0.1129
19254W        W34385  13.727   7.305  15.604  0.1133  0.1460  0.1245
19255W        W34386  12.765   2.234   3.987 -0.2257  0.2370  0.1658
19256W        W34387   6.147   3.217   5.449  0.0492 -0.0044 -0.0339
19257W        W34388  10.912   5.798   4.762 -0.1327 -0.0744  0.1404
19258W        W34389  10.112   5.536   2.589  0.0259  0.2209  0.1372
19259W        W34390  16.743  17.070   3.880 -0.0073 -0.1302  0.1026
19260W        W34391   5.138  11.265  16.615  0.1268 -0.0475  0.0916
19261W        W34392   5.006  17.686   0.984 -0.0502  0.1428  0.1538
19262W        W34393   4.292  15.549  16.940  0.3577 -0.0813 -0.1354
19263W        W34394  14.495  12.930   4.638  0.0419  0.1745  0.0183
19264W        W34395   3.626  17.712  13.903  0.0599  0.2239  0.2677
19265W        W34396   8.828   6.661   2.025  0.0416  0.1512 -0.0261
19266W        W34397   1.628  12.283  16.842  0.1236 -0.0275 -0.0972
19267W        W34398   7.328  14.164  12.253  0.3111  0.0012  0.0173
19268W        W34399  15.044   5.874   4.711 -0.0247  0.0505  0.0753
19269W        W34400   5.408   7.917   4.954 -0.2258  0.0480  0.2967
19270W        W34401   1.967  15.172  12.186  0.0514 -0.1261 -0.1309
19271W        W34402   2.218  17.111   2.062 -0.1290  0.0933  0.1003
19272W        W34403   7.211   3.378   0.435 -0.0802  0.1459  0.3317
19273W        W34404  14.595   4.621   5.870  0.1181 -0.1380 -0.2392
19274W        W34405   1.753   4.673  12.852 -0.0921  0.1102  0.1012
19275W        W34406  16.496   6.055   1.365  0.0701 -0.0750  0.1411
19276W        W34407  13.440   9.692  15.898 -0.1215 -0.2444  0.0579
19277W        W34408   9.310  13.184   1.870  0.2513 -0.1528  0.0799
19278W        W34409  10.416  11.106   2.005  0.2261  0.0949  0.1191
19279W        W34410  17.196  15.383   4.389  0.0725 -0.1823  0.0269
19280W        W34411  17.040   8.410  12.199  0.2132 -0.0060  0.2203
19281W        W34412   4.528   0.282   5.336  0.0958  0.0986  0.1549
19282W        W34413  14.560   7.547   0.080 -0.0080  0.1343 -0.0160
19283W        W34414  11.072   0.222  15.714  0.0145 -0.1282  0.1300
19284W        W34415  12.899   9.887   3.197 -0.0134 -0.0633  0.0321
19285W        W34416   5.643   5.493  13.445 -0.1131  0.0891 -0.0413
19286W        W34417  13.955   0.569   0.690 -0.2384  0.1822  0.0462
19287W        W34418   0.442  15.578  16.893  0.0982 -0.0924 -0.3805
19288W        W34419  10.685   0.948  16.756  0.4112  0.0925 -0.0890
19289W        W34420   1.079  11.646   6.527 -0.0995  0.2860 -0.1915
19290W        W34421  16.824   6.377  15.448 -0.0644  0.0572  0.2594
19291W        W34422   1.055   5.460  15.000  0.0055  0.2364  0.0079
19292W        W34423   1.275  15.153  14.742  0.3263 -0.1618  0.1500
19293W        W34424   9.136  11.635   2.363  0.1517  0.0686  0.0243
19294W        W34425   0.843   7.942   3.754 -0.0156 -0.1890  0.2635
19295W        W34426   9.901   5.193   2.291 -0.0200  0.0927 -0.2826
19296W        W34427   4.481  10.143   2.345 -0.1422  0.2511 -0.0155
19297W        W34428  14.902  14.470   2.868  0.2117  0.1327  0.1305
19298W        W34429   4.518  16.837   1.069  0.0902 -0.1199  0.2622
19299W        W34430   5.721   6.554  11.853  0.0674  0.0051 -0.1926
19300W        W34431  13.826   7.738  14.195 -0.2176  0.0148  0.3274
19301W        W34432   5.942  12.251   5.179  0.0455 -0.1075 -0.2283
19302W        W34433  16.070  14.314  13.310  0.0507  0.1866 -0.2465
19303W        W34434   1.780  10.866   3.688  0.0396  0.2292  0.2318
19304W        W34435  13.632  11.905  14.597  0.1174 -0.1277 -0.1213
19305W        W34436   2.788   8.119   3.972  0.2191  0.3754  0.1272
19306W        W34437  17.671   5.135   4.376 -0.2332  0.2208  0.1980
19307W        W34438  16.099   7.741   3.900  0.0716  0.0324  0.2477
19308W        W34439  15.846   4.336  11.040 -0.1930 -0.0589  0.1467
19309W        W34440  12.704   2.412  15.413  0.0709 -0.1890  0.1241
19310W        W34441   8.027  16.922  12.461  0.0328 -0.0677  0.1811
19311W        W34442   5.521   0.461   1.510  0.3757 -0.3175  0.0072
19312W        W34443  13.944   5.390  14.198 -0.1135  0.3025  0.0158
19313W        W34444   1.415  15.425   2.214 -0.2600  0.0957 -0.0185
19314W        W34445   4.542  13.642   3.640 -0.2111 -0.2989  0.4043
19315W        W34446   2.182   2.788  15.476 -0.1786 -0.1619  0.1364
19316W        W34447   7.743   0.589   2.577  0.0864 -0.2915 -0.2567
19317W        W34448  13.210   4.139  15.208  0.4330 -0.4600  0.0247
19318W        W34449  14.522  12.463  11.156  0.1110  0.2540  0.3317
19319W        W34450   6.419  11.668  16.118 -0.0393 -0.0781 -0.1727
19320W        W34451   0.188  10.135   2.859 -0.1003 -0.1131 -0.4223
19321W        W34452  16.305  15.460   4.908  0.0426  0.1150 -0.1157
19322W        W34453   2.873  11.539  14.132 -0.2501 -0.0778 -0.1273
19323W        W34454   4.334   7.277  12.591 -0.0052  0.0568 -0.0535
19324W        W34455  14.345  15.345   5.002  0.2466  0.1019 -0.1165
19325W        W34456   2.658   6.275  14.639 -0.1601  0.0369  0.2365
19326W        W34457  14.616   7.327   4.321 -0.2192  0.0475 -0.0434
19327W        W34458   1.762  17.424   1.468  0.1150  0.0496  0.1686
19328W        W34459   3.400   4.102   1.208  0.0277 -0.0610 -0.1012
19329W        W34460  13.558   9.805  14.408 -0.0009 -0.2077  0.1248
19330W        W34461   7.322  10.281  12.025  0.1775  0.0764  0.1105
19331W        W34462  13.614  15.276   5.997 -0.0101 -0.2874 -0.0135
19332W        W34463  10.744   6.404   0.378 -0.2435 -0.2447 -0.0949
19333W        W34464   4.311  15.959  14.858 -0.2493  0.1766  0.2809
19334W        W34465   1.956   4.180   3.249  0.2323 -0.1410  0.0420
19335W        W34466  14.262   6.823   5.412 -0.2891 -0.3263  0.3011
19336W        W34467   8.391   0.317  13.725  0.1447 -0.3294 -0.0940
19337W        W34468   5.247   3.984  14.978  0.0197  0.0387  0.1010
19338W        W34469  13.191   8.928  14.255  0.0087 -0.1410 -0.2396
19339W        W34470   9.350   3.873   0.295  0.2461 -0.1042 -0.6303
19340W        W34471   6.279  13.090  14.128  0.0858 -0.0941 -0.0907
19341W        W34472  13.632  13.325   1.053 -0.1026  0.3746  0.1871
19342W        W34473   7.061  10.837  11.991 -0.0549  0.1276 -0.0029
19343W        W34474   8.940   9.061  15.129 -0.1118  0.3165  0.0133
19344W        W34475   6.933  15.010  14.625  0.3007  0.2226 -0.0925
19345W        W34476   1.594   9.895   3.744 -0.2502 -0.0355  0.1742
19346W        W34477   3.728   7.951  16.499 -0.1620  0.3358  0.1305
19347W        W34478  15.223  10.452  14.650  0.2445 -0.1154  0.3255
19348W        W34479   2.362   4.473   4.436  0.2312  0.2412  0.1557
19349W        W34480  10.727  16.902   4.401  0.0681  0.0082  0.0579
19350W        W34481   8.269   3.641  14.012 -0.0693 -0.0662  0.0254
19351W        W34482   0.132   0.864   1.152 -0.0274  0.1673 -0.1103
19352W        W34483   7.675   2.175   4.545  0.1426 -0.0557 -0.1670
19353W        W34484   7.087   3.777   3.525  0.0535 -0.5805 -0.1890
19354W        W34485   7.055   5.087   1.537 -0.0429  0.1112  0.0410
19355W        W34486  17.308  17.120   3.015 -0.2137  0.0516  0.0065
19356W        W34487  15.836   7.464  16.049 -0.2563  0.1361  0.1730
19357W        W34488   2.796  13.839  14.283  0.2940 -0.2293  0.0552
19358W        W34489  13.992   8.091   0.791  0.0773  0.3944 -0.0479
19359W        W34490   1.165   9.013  14.593 -0.0362  0.0680  0.0263
19360W        W34491  15.269  16.197  14.985 -0.1206  0.2092 -0.1286
19361W        W34492   0.225   4.655  16.879 -0.0462  0.0285  0.1537
19362W        W34493  14.782  16.566   4.061 -0.2769 -0.0286  0.2518
19363W        W34494   2.240   8.133  10.552 -0.1858  0.2300 -0.2214
19364W        W34495  15.075  14.211   3.288 -0.0748 -0.1413 -0.0814
19365W        W34496  11.423   8.299  13.028  0.2746  0.1620  0.1229
19366W        W34497   7.537   6.376   1.339  0.3582  0.0037  0.0509
19367W        W34498   7.792  17.685  14.741  0.1730  0.0318  0.2130
19368W        W34499  17.374  13.231  13.760  0.0245  0.0205 -0.0235
19369W        W34500  12.789  10.282   0.859  0.1379 -0.0850  0.2506
19370W        W34501   9.190  17.457  12.796  0.0449 -0.0213 -0.0608
19371W        W34502  11.117  14.112   3.950 -0.1791  0.2479  0.2879
19372W        W34503  13.272   9.126  11.594  0.2076  0.1065  0.2463
19373W        W34504  13.751   6.207  14.478  0.3983 -0.2204  0.4512
19374W        W34505  14.867  11.953   3.475 -0.1993 -0.1060  0.1569
19375W        W34506   0.536   1.627  12.333  0.1001 -0.0219  0.1475
19376W        W34507   4.528   4.098  16.173  0.3717  0.1059  0.1124
19377W        W34508   0.432  12.724   4.838 -0.0801 -0.2477  0.1080
19378W        W34509  16.128  12.705  10.906  0.1783  0.2292 -0.3261
19379W        W34510   4.740  14.451   4.856 -0.1525  0.0733  0.0577
19380W        W34511  11.914  11.197   1.962 -0.1485  0.2064 -0.1732
19381W        W34512  14.547  13.195   5.264  0.1094 -0.0622 -0.0702
19382W        W34513  17.053   6.825  14.160 -0.2895 -0.2120 -0.0472
19383W        W34514  14.158   5.518  14.955  0.0718 -0.1225  0.1386
19384W        W34515  16.316   8.783   4.751  0.0705 -0.2013  0.0333
19385W        W34516   9.562  14.375  14.434  0.1002 -0.2983 -0.0654
19386W        W34517  15.888  14.692   4.894 -0.0159  0.2646  0.2359
19387W        W34518  11.585  14.265   5.651  0.1813 -0.1007  0.0337
19388W        W34519  13.426  16.694   1.267 -0.0663  0.0212  0.1594
19389W        W34520   2.671  10.244  16.145 -0.4169  0.0514 -0.2151
19390W        W34521   9.963   3.833   3.261  0.0906 -0.1240  0.0011
19391W        W34522   4.300   3.917   2.137  0.2101  0.0186  0.0702
19392W        W34523   3.084  11.088   1.197 -0.3460  0.3005  0.0113
19393W        W34524   2.529   0.635   0.545 -0.0562  0.2345 -0.0657
19394W        W34525  16.934   2.880   1.743  0.2771  0.1153  0.1040
19395W        W34526   6.558   5.750  12.146 -0.0660  0.1468 -0.0426
19396W        W34527   2.107   4.150  10.763 -0.0324  0.1216 -0.0054
19397W        W34528   1.052   6.795   1.955 -0.0619  0.0770  0.1322
19398W        W34529   9.814   0.794   1.015 -0.2833 -0.2618  0.3353
19399W        W34530   5.678  13.274  13.920  0.2353 -0.1818 -0.1531
19400W        W34531   1.408   0.517  11.319  0.1371 -0.3131 -0.0035
19401W        W34532  15.975  13.693   6.532 -0.1329  0.1148 -0.1508
19402W        W34533  16.833   0.036  16.572 -0.1123  0.0162  0.1210
19403W        W34534   2.609   0.086   4.315  0.0300  0.2590  0.1982
19404W        W34535   7.092   0.928  16.561 -0.1753 -0.0105  0.1841
19405W        W34536   2.140   7.676  13.622 -0.0050 -0.0508  0.1386
19406W        W34537  11.102  10.593  12.339 -0.0869 -0.0215  0.1999
19407W        W34538   6.151  15.110  12.288  0.1479  0.2991  0.0414
19408W        W34539   7.970   5.435  16.109 -0.0327 -0.0942  0.1467
19409W        W34540   4.872   8.225   2.246  0.1831 -0.3766 -0.1428
19410W        W34541   2.004   3.700  15.467  0.1893 -0.0336  0.0618
19411W        W34542   6.913   9.832  16.635  0.2178 -0.0048  0.1803
19412W        W34543   1.673   2.283   0.671 -0.1638 -0.1605  0.1054
19413W        W34544   8.778   8.763  12.422  0.0811  0.1287  0.2606
19414W        W34545   1.464  15.698  14.176 -0.2691 -0.1534 -0.2511
19415W        W34546  12.926   5.459   4.687  0.0814 -0.1589  0.1374
19416W        W34547   2.209   4.905   3.270  0.3645  0.1744  0.0705
19417W        W34548   7.269   3.766  13.727  0.3645  0.0651 -0.2577
19418W        W34549  15.802  14.112  12.008  0.1627 -0.0945  0.0397
19419W        W34550   1.057   1.192   1.434 -0.0414  0.2024 -0.2185
19420W        W34551   6.861  16.530   1.866 -0.2160 -0.1850 -0.2055
19421W        W34552   5.580  10.091   5.358 -0.0753 -0.2531 -0.0323
19422W        W34553   7.395   4.947  14.201 -0.0665 -0.0780 -0.0591
19423W        W34554  13.164   0.465  14.689 -0.2538 -0.0520 -0.4687
19424W        W34555   2.951  14.572  15.134 -0.0349  0.0331 -0.0972
19425W        W34556   9.773  14.570  12.536 -0.3151  0.2547  0.0362
19426W        W34557   2.128   4.649  15.994 -0.0350  0.1442  0.0864
19427W        W34558   8.255  16.772  16.564  0.0042  0.0886 -0.2740
19428W        W34559   0.973   9.095  16.244  0.0276  0.0173 -0.1336
19429W        W34560   1.544  10.793   2.428  0.0715 -0.2192 -0.0121
19430W        W34561  14.970   0.145   2.496  0.0158 -0.0140  0.3625
19431W        W34562  11.893   1.650   2.968  0.2652 -0.0474 -0.1096
19432W        W34563   7.266  13.199   2.737 -0.1278  0.1820 -0.1090
19433W        W34564   6.392   9.856  15.796  0.1897  0.0939  0.1336
19434W        W34565  16.205  14.100  14.637  0.0526  0.1737  0.0546
19435W        W34566  17.159   9.710   5.247  0.0965  0.2051 -0.2686
19436W        W34567   8.046   3.288   0.809 -0.2753 -0.0210 -0.0349
19437W        W34568  12.676   7.256   1.107 -0.1059  0.0493 -0.0116
19438W        W34569   5.409  11.111   6.013  0.4149  0.0837 -0.1778
19439W        W34570   8.321  10.444   2.011  0.1594  0.1449 -0.0798
19440W        W34571   9.475  13.643  16.500  0.2138 -0.0243  0.3733
19441W        W34572  10.747   7.571   4.569 -0.1064  0.0053 -0.1384
19442W        W34573  17.131   9.072  14.462  0.2385  0.4440  0.1893
19443W        W34574   8.164   7.339  13.413 -0.2564  0.1708  0.1750
19444W        W34575   4.879  13.072  12.288  0.0031  0.7543  0.0762
19445W        W34576  16.280   1.715   5.109  0.2272  0.2012  0.1209
19446W        W34577  16.562   8.987   5.213  0.0222  0.0981  0.0790
19447W        W34578   6.707   9.234   5.569 -0.3795 -0.1034 -0.0029
19448W        W34579   0.679   6.780   1.595  0.1522  0.0303 -0.0106
19449W        W34580   5.283  14.589  13.052 -0.0499  0.1394  0.1355
19450W        W34581   7.257   4.544  15.742 -0.2529  0.0885 -0.0878
19451W        W34582  12.742   7.259   4.497 -0.1681 -0.1354 -0.0493
19452W        W34583   2.502  14.681   2.700 -0.1283  0.2219 -0.1259
19453W        W34584   0.458   5.224   1.925  0.0865  0.0821  0.0785
19454W        W34585  10.367  16.163  14.868 -0.4932 -0.0923 -0.1023
19455W        W34586   2.872   0.445  16.091 -0.0912 -0.1396 -0.0631
19456W        W34587   6.127   6.236  13.882  0.1257  0.1056  0.0709
19457W        W34588   2.300   6.862  15.268  0.2573  0.1732 -0.0463
19458W        W34589  12.015  13.007  15.770  0.1200  0.2403 -0.2715
19459W        W34590  10.237   6.591  14.930  0.2734  0.0647 -0.0055
19460W        W34591   8.782   0.528  12.406 -0.0929 -0.1173  0.0249
19461W        W34592  12.816   8.692   4.388 -0.2472 -0.0066  0.0964
19462W        W34593  14.497   6.974  11.005  0.0627 -0.1682  0.0114
19463W        W34594  12.154  15.740   4.043  0.2287 -0.0077 -0.1131
19464W        W34595  14.017  17.526   0.781 -0.1498  0.2356  0.3588
19465W        W34596   6.738   5.335   3.811 -0.0827  0.1390  0.1357
19466W        W34597   1.676  17.294   4.638  0.0319 -0.0519 -0.0130
19467W        W34598   6.248  13.362   1.749 -0.0989 -0.0673 -0.1579
19468W        W34599  15.599   8.292  15.121  0.1220 -0.2367  0.1288
19469W        W34600   4.124   6.213  13.446  0.0391  0.2665  0.1345
19470W        W34601  13.239   9.669   0.405 -0.0793  0.0403  0.0827
19471W        W34602  10.465   5.656   5.354 -0.2834  0.0605 -0.0028
19472W        W34603   0.607   8.759   4.044  0.0313 -0.0895 -0.1113
19473W        W34604   6.652  14.313   4.718  0.0641  0.0886  0.0333
19474W        W34605   5.654   1.539  12.473  0.1704  0.0239  0.0570
19475W        W34606  15.449   5.615  16.548 -0.1490 -0.1177  0.0231
19476W        W34607   1.447  10.005   2.906  0.0089  0.1750 -0.1828
19477W        W34608   0.615   9.263  12.984 -0.0812 -0.1045 -0.0249
19478W        W34609  14.467   9.902   4.371 -0.1817  0.0500  0.0712
19479W        W34610   7.128  11.359   5.481 -0.1646 -0.0216 -0.1079
19480W        W34611  10.948   0.243   6.378  0.2765 -0.0926 -0.2238
19481W        W34612  10.770   8.413   5.772  0.1409 -0.0448  0.0581
19482W        W34613   8.607   9.185   2.936  0.0923  0.0743 -0.0445
19483W        W34614  16.592  11.403   5.837 -0.1250 -0.2921 -0.0902
19484W        W34615   6.746  13.242   5.789  0.3456 -0.0109  0.0405
19485W        W34616  13.377   5.133   2.361  0.0124  0.2824  0.0708
19486W        W34617  13.978  11.938   5.053  0.2818 -0.0899 -0.0715
19487W        W34618   6.600   5.887  13.135 -0.4189 -0.2011 -0.1944
19488W        W34619   9.022  13.050  14.544  0.3998 -0.1307  0.0034
19489W        W34620   9.238   0.229   4.675  0.2744 -0.1707  0.0095
19490W        W34621  15.706  16.388   0.689 -0.0859  0.0092  0.1625
19491W        W34622   4.381   0.138  16.165  0.0572 -0.1733 -0.3135
19492W        W34623  13.301  17.473  16.446 -0.0301  0.0820 -0.2521
19493W        W34624   7.479  10.545  13.480 -0.0071 -0.0666  0.3071
19494W        W34625  11.242   4.657   3.539 -0.2445  0.0514 -0.3119
19495W        W34626   9.510   1.525   3.867 -0.1598 -0.1857  0.2702
19496W        W34627  10.956  12.611  13.915  0.4576  0.0013 -0.0485
19497W        W34628   7.902   4.866   5.276 -0.0880 -0.3542 -0.0054
19498W        W34629   3.563   3.578   4.198 -0.2165  0.0283  0.1405
19499W        W34630  15.357   2.328   3.798  0.0397  0.3577 -0.0920
19500W        W34631   3.928  11.109   3.202  0.0156 -0.0997  0.4369
19501W        W34632   2.532   8.828  14.863 -0.0711  0.1288  0.1113
19502W        W34633   3.805   9.944  15.504 -0.0222 -0.2148  0.0516
19503W        W34634   8.247  13.603   0.911 -0.0317  0.1174  0.2010
19504W        W34635  16.107   2.900   4.557 -0.0465 -0.0936 -0.1227
19505W        W34636   9.782  15.845   5.384  0.1136  0.2313  0.3823
19506W        W34637  10.677   8.084   4.851  0.0785  0.1177 -0.1485
19507W        W34638   0.108  13.855   1.576  0.2539 -0.1744  0.0158
19508W        W34639  17.354  13.826   4.740  0.1583  0.0196 -0.3588
19509W        W34640   2.176  13.785   1.789  0.0200  0.1800  0.2460
19510W        W34641  12.549   0.035   1.234 -0.2552  0.1018  0.0423
19511W        W34642  12.474   9.189   5.152  0.1002  0.1140  0.1950
19512W        W34643  16.605   4.618  14.911  0.1069  0.1094  0.0059
19513W        W34644  14.605   2.210   1.005  0.2493  0.1244  0.2362
19514W        W34645  14.459   2.674  15.100  0.1411 -0.2587 -0.2269
19515W        W34646   3.276  12.083   0.370  0.0571  0.0719  0.1107
19516W        W34647  13.217  14.433   4.369  0.0449  0.0934 -0.2973
19517W        W34648   6.537   8.718   2.409  0.1319 -0.0249  0.0853
19518W        W34649   2.667   0.271  11.382  0.0324 -0.0447 -0.1363
19519W        W34650   7.555   5.730   2.621 -0.0367  0.1063 -0.0753
19520W        W34651  13.098  13.320  15.023  0.1354 -0.0946 -0.1947
19521W        W34652   8.718  17.336   0.059  0.5413  0.1824 -0.2739
19522W        W34653   7.616   9.383  16.015  0.1697  0.1513 -0.1540
19523W        W34654  15.536   7.756   1.062  0.0900 -0.3122 -0.0954
19524W        W34655   2.745  17.256  12.207 -0.1409 -0.1943  0.0612
19525W        W34656  11.568  12.229   5.471 -0.0371 -0.0374 -0.1581
19526W        W34657  16.658   4.766  12.815  0.0472  0.0716  0.2161
19527W        W34658   6.728  12.857   0.946 -0.0182 -0.0763 -0.1739
19528W        W34659  13.134   7.959  12.377  0.0170 -0.1625  0.1457
19529W        W34660   6.278   7.356  15.231  0.1103 -0.2352  0.1198
19530W        W34661   5.769  17.118   4.178 -0.1389  0.1430 -0.0203
19531W        W34662  16.373   6.908   2.851  0.0556 -0.2735  0.2050
19532W        W34663   9.187   0.652  11.735  0.1781 -0.1496 -0.0132
19533W        W34664   8.675  17.391  12.906 -0.1617 -0.1786 -0.0963
19534W        W34665  14.673   7.460   4.896  0.0895  0.1765 -0.4975
19535W        W34666   9.433   1.871  15.183 -0.0500  0.1293  0.2935
19536W        W34667   6.958   6.726   3.760 -0.1268  0.1124  0.1937
19537W        W34668  13.308  13.871   3.548 -0.1298 -0.0137  0.0858
19538W        W34669   0.993   4.783  13.657 -0.2053 -0.4158 -0.3220
19539W        W34670   7.356   4.398   1.484  0.3106 -0.0572  0.1649
19540W        W34671   0.461  12.784  13.818  0.2815  0.1109 -0.3886
19541W        W34672  14.720   6.826   2.505 -0.0582 -0.0688 -0.0810
19542W        W34673   3.604   0.078  14.960  0.1994 -0.0757  0.1070
19543W        W34674  12.149   5.397   1.556 -0.1139 -0.1341  0.2191
19544W        W34675  11.292   0.543  14.759  0.0723  0.1947  0.2625
19545W        W34676  12.883  15.559   1.155 -0.0366  0.1838 -0.0847
19546W        W34677  15.899  12.870   4.407  0.0372 -0.0398  0.1248
19547W        W34678   0.991  15.679  15.898  0.1372  0.1195 -0.1747
19548W        W34679  11.512  10.919  15.470  0.0361 -0.1536 -0.0825
19549W        W34680   1.653   7.037  16.559 -0.1133  0.1776 -0.1138
19550W        W34681  13.078   0.872  15.029 -0.0672  0.1704 -0.0880
19551W        W34682   6.137  11.800   5.349 -0.0246 -0.3480  0.1467
19552W        W34683   0.941   6.466   0.351  0.0718 -0.1847  0.1250
19553W        W34684   7.351   0.717   5.555  0.0751 -0.1582  0.0440
19554W        W34685   3.495   1.776   4.373 -0.3348  0.1819 -0.0992
19555W        W34686  11.971   6.416  16.382 -0.0641  0.0446 -0.0975
19556W        W34687   8.157   5.931   0.597  0.0508  0.0665  0.0114
19557W        W34688   8.328   9.079   6.706  0.1674 -0.0495 -0.0356
19558W        W34689   0.616  14.293   0.974 -0.1098 -0.0838  0.0016
19559W        W34690   8.714   9.800  15.711 -0.0348 -0.3675 -0.2040
19560W        W34691  17.348   8.197  14.459 -0.3446 -0.3850 -0.0577
19561W        W34692   8.171  14.920  15.434  0.1072 -0.1357  0.2164
19562W        W34693  13.879  15.240   5.025 -0.1669  0.0199 -0.0144
19563W        W34694   5.965  15.869  13.187 -0.2501  0.1111  0.1312
19564W        W34695   2.306   1.843   2.511  0.0674 -0.3965 -0.2609
19565W        W34696  16.122  16.535   3.770  0.1356  0.0708  0.1859
19566W        W34697  10.983  16.240   6.002 -0.0687  0.1879 -0.0589
19567W        W34698   3.503   1.410  12.496 -0.0689 -0.3033 -0.0106
19568W        W34699   7.946   7.297  15.840 -0.0465 -0.2118  0.0339
19569W        W34700   7.557  13.494  13.056  0.2403 -0.0728 -0.0140
19570W        W34701  16.864   3.550  15.692 -0.0586 -0.2868  0.0539
19571W        W34702   3.567  15.383   5.198  0.1442  0.1361  0.2604
19572W        W34703   0.402   2.071  12.146  0.0803 -0.3257 -0.1103
19573W        W34704  13.952  14.157   0.475 -0.4385  0.1056 -0.1547
19574W        W34705   1.124  10.148   0.130  0.0186 -0.0442 -0.1966
19575W        W34706   3.523  13.139  13.117 -0.0039  0.0250  0.3400
19576W        W34707   4.121   5.695   3.925 -0.0151 -0.0300 -0.0361
19577W        W34708   7.397   6.662  11.856 -0.0676 -0.1067 -0.2440
19578W        W34709   8.365   9.411   5.445  0.1825 -0.1334 -0.1230
19579W        W34710  17.483  14.391   6.033 -0.0560  0.0137 -0.0214
19580W        W34711   3.073  13.937   3.612 -0.2778  0.2254 -0.3131
19581W        W34712   9.860   9.915  12.228 -0.2498 -0.1223  0.1310
19582W        W34713  16.110   8.833   3.891  0.0137  0.0360  0.0750
19583W        W34714   9.136   9.211  12.034 -0.0436  0.1668 -0.0012
19584W        W34715  12.137   0.619   1.059  0.1687 -0.0705 -0.1933
19585W        W34716   8.362  17.632   4.309 -0.0655  0.1415  0.1790
19586W        W34717   3.358  10.681   1.086 -0.0228 -0.0212  0.0999
19587W        W34718   3.448  15.457  14.079 -0.2217  0.2051 -0.0987
19588W        W34719   7.889  10.279  13.288 -0.1277 -0.0732 -0.2885
19589W        W34720  16.813   8.170   5.258  0.1182 -0.0646 -0.2058
19590W        W34721  15.778  17.144  13.665 -0.0886  0.2075 -0.2520
19591W        W34722  12.116   3.525  16.154 -0.5042 -0.0693  0.3009
19592W        W34723  10.429   9.260   0.628  0.3247  0.1214 -0.0790
19593W        W34724   9.770  17.450   6.327 -0.1090  0.0913  0.0374
19594W        W34725  10.239  15.754  12.143  0.2190 -0.1161 -0.0552
19595W        W34726  14.764   5.727  11.271  0.0559  0.0971  0.1021
19596W        W34727  15.070   6.014  16.740  0.1998 -0.2872 -0.1315
19597W        W34728  10.686   3.124  12.202  0.0152  0.0801  0.1582
19598W        W34729   2.686  12.841  12.166  0.1702 -0.1986 -0.0774
19599W        W34730  14.818   4.066  13.986 -0.0930 -0.0881 -0.0402
19600W        W34731   8.288  12.700  12.483 -0.0662  0.0349  0.0135
19601W        W34732   5.153   8.621   1.237 -0.1543 -0.1622 -0.1143
19602W        W34733  14.096  14.194   3.374 -0.0563 -0.3187 -0.2332
19603W        W34734   5.936  15.114   2.359  0.1240 -0.2071  0.1159
19604W        W34735   0.945  17.361   5.779  0.1488 -0.1273 -0.1914
19605W        W34736   6.041  14.895   0.376  0.4742 -0.0342  0.0093
19606W        W34737   0.243   4.695   4.133 -0.3567  0.0415 -0.1899
19607W        W34738   9.205  14.928   3.487  0.2424  0.1202 -0.0214
19608W        W34739   0.481   5.044   0.241  0.1157 -0.1027  0.2021
19609W        W34740   9.259  12.275   1.894 -0.1863 -0.0450 -0.1959
19610W        W34741  15.355  12.918   3.028  0.1252 -0.2514  0.0617
19611W        W34742   5.834   9.759   5.484  0.1614  0.3356 -0.1371
19612W        W34743   1.541  11.324  13.693 -0.1189 -0.1399  0.0834
19613W        W34744  15.721   9.811   1.512  0.3442 -0.1566 -0.4401
19614W        W34745   3.388   0.433  16.894  0.0027  0.1802 -0.3289
19615W        W34746  15.336  13.750   1.174  0.2166  0.2028  0.2146
19616W        W34747  12.200   0.554   4.586 -0.0571  0.2421  0.0723
19617W        W34748  10.714   8.095  16.821 -0.1186 -0.0171 -0.1718
19618W        W34749   3.009   3.907   1.626 -0.0498 -0.0140 -0.2064
19619W        W34750   3.560  11.066   5.570 -0.1798  0.0762 -0.0895
19620W        W34751   7.099   0.785  13.855  0.0655  0.0137  0.1267
19621W        W34752   7.812   8.635   2.458  0.0202 -0.1216 -0.1674
19622W        W34753  14.583  10.925  12.164  0.0152 -0.5118  0.2056
19623W        W34754  16.255  16.307   0.910 -0.0477  0.0770 -0.0179
19624W        W34755   5.977   0.634  12.055  0.0938 -0.0806 -0.0985
19625W        W34756  11.759   1.750  14.173  0.2017 -0.0689  0.2227
19626W        W34757   5.788  16.378  11.918  0.0694  0.3971  0.1235
19627W        W34758  10.408   3.419   0.384 -0.0806  0.0269  0.0993
19628W        W34759   1.880   1.304   4.370 -0.0674 -0.1716 -0.2890
19629W        W34760  16.384   1.970  13.744 -0.0778  0.0303 -0.0932
19630W        W34761   3.456   4.409  12.152  0.0392  0.0886  0.0514
19631W        W34762   3.703   4.029   5.123  0.0026 -0.0650 -0.1350
19632W        W34763   3.280  17.542   2.667 -0.0069  0.1087  0.0980
19633W        W34764  11.837   4.179  11.908 -0.0717  0.0791  0.1326
19634W        W34765  12.382   0.146   3.696  0.1278 -0.0214 -0.3425
19635W        W34766  16.895   1.149  13.882  0.0358 -0.3744 -0.2551
19636W        W34767  16.378   8.366  12.341  0.2026  0.1203  0.3193
19637W        W34768  13.218  17.541   5.536 -0.1146 -0.0988 -0.0877
19638W        W34769  15.145  16.090  16.907 -0.0815 -0.2635  0.0405
19639W        W34770   5.303  17.108   5.100  0.0690  0.0694 -0.3688
19640W        W34771  10.622  13.132   1.340  0.1610  0.3908  0.0084
19641W        W34772   3.575   5.803   3.484  0.1845  0.0895 -0.2754
19642W        W34773   7.224   0.065   5.391  0.0662  0.0667 -0.0964
19643W        W34774   3.103   7.130  15.672 -0.1056 -0.0026 -0.3966
19644W        W34775   2.361  16.037  14.283  0.0558  0.2613  0.4008
19645W        W34776  15.166   5.815  16.190  0.3554  0.0364 -0.0790
19646W        W34777   8.475   2.632  15.306 -0.0929 -0.0335 -0.0143
19647W        W34778  16.594   2.115  16.109  0.1181 -0.3181  0.1006
19648W        W34779  15.847   8.449  16.565  0.1705 -0.0373  0.2488
19649W        W34780   2.451   0.388  12.940 -0.3920  0.1390 -0.1053
19650W        W34781   0.840  13.448  12.406 -0.0667 -0.0020 -0.2121
19651W        W34782  14.314  13.388   0.235  0.0536  0.0007 -0.1438
19652W        W34783  15.843  12.704  15.543  0.3397  0.0069 -0.2841
19653W        W34784  15.550  10.195   5.056  0.0960  0.0728  0.0088
19654W        W34785  10.525   3.508  14.398  0.1777  0.2165 -0.1549
19655W        W34786   8.501   3.931  16.873  0.2148 -0.1044  0.4063
19656W        W34787   8.912  13.675   2.925 -0.1270  0.0054  0.0907
19657W        W34788  12.107  15.227   2.339 -0.1385  0.0949 -0.0227
19658W        W34789  12.607  12.521  12.237  0.0831  0.1292  0.3576
19659W        W34790   3.547  14.572  11.941 -0.0435  0.0382  0.1130
19660W        W34791  12.788  12.051   1.410 -0.0481 -0.0923 -0.2746
19661W        W34792  15.116   4.527  13.317 -0.0320 -0.0878  0.0029
19662W        W34793   3.278   2.938  13.100 -0.0587 -0.0220 -0.3772
19663W        W34794   4.108  14.315  15.918 -0.0688  0.0732 -0.0094
19664W        W34795  11.625   0.558  15.870  0.1488 -0.0174  0.3204
19665W        W34796  11.499   3.794   1.596  0.0851 -0.0147 -0.0655
19666W        W34797   2.013  13.489  14.876 -0.2127  0.0242 -0.1709
19667W        W34798  15.866   7.083   0.501  0.0113  0.1265  0.2327
19668W        W34799  12.544   6.162   3.046 -0.2245 -0.0563 -0.0344
19669W        W34800   5.333   6.085  13.976  0.0640  0.0206 -0.4051
19670W        W34801   1.760   3.145  13.016  0.1877  0.2860  0.3426
19671W        W34802   8.584  11.216  15.272 -0.1690 -0.1145  0.2231
19672W        W34803   1.521  16.336   2.287  0.0007  0.1829  0.0306
19673W        W34804  13.214   3.850  11.441 -0.0251  0.0387 -0.3629
19674W        W34805  10.830  17.320  14.709  0.1095  0.0704  0.2116
19675W        W34806  14.526  12.381  14.391 -0.3353  0.2164 -0.1907
19676W        W34807  12.318  11.074   3.798  0.0367 -0.3196 -0.2249
19677W        W34808  16.027   3.979   1.704  0.1138  0.0960 -0.0314
19678W        W34809   4.693   0.599  14.543 -0.0801 -0.0541  0.2780
19679W        W34810   8.998   5.455   5.054 -0.1015  0.0773  0.1674
19680W        W34811  13.754   5.297   3.044  0.0127 -0.0290 -0.1943
19681W        W34812   4.697   4.229  13.874 -0.0399  0.0942 -0.1756
19682W        W34813  12.366  13.602  16.224 -0.1242 -0.1079  0.1680
19683W        W34814  10.300  17.380  12.065 -0.0793 -0.1388 -0.2067
19684W        W34815   2.342  16.493   2.729  0.1952  0.1710 -0.0355
19685W        W34816   8.018   9.732   5.698 -0.0084  0.2098  0.1162
19686W        W34817  17.188  11.973  15.754 -0.0900 -0.0189  0.0864
19687W        W34818   0.550   0.913  16.671 -0.1044  0.1462 -0.0848
19688W        W34819   1.639  13.408   3.963 -0.4441  0.1988 -0.3249
19689W        W34820  12.726  13.638  14.838  0.2732 -0.0325  0.1229
19690W        W34821   0.506   6.247  13.276 -0.0057 -0.2210 -0.3881
19691W        W34822  13.868  12.038  14.029  0.0627 -0.0461 -0.1754
19692W        W34823   8.270  17.055   0.085  0.0310  0.3749  0.1451
19693W        W34824  12.383   3.024   4.542 -0.0086  0.2391  0.1381
19694W        W34825   1.342   8.564   2.320 -0.0544 -0.1392 -0.1020
19695W        W34826  15.109  15.260   6.354  0.0178  0.0395 -0.1464
19696W        W34827   0.554  12.780   3.896 -0.1109  0.2582  0.1722
19697W        W34828  13.842   5.931  11.855 -0.0103 -0.1753 -0.3024
19698W        W34829  13.717  11.635   0.441 -0.0566  0.4637 -0.3730
19699W        W34830  13.054   6.399   0.389  0.2605  0.3852  0.1914
19700W        W34831  16.488   0.723  14.267  0.3661 -0.5337 -0.2576
19701W        W34832   9.953   1.438   4.090  0.0705 -0.3208 -0.0424
19702W        W34833   9.423   2.275   2.695  0.1565  0.1001  0.0367
19703W        W34834   1.284   7.041   4.457 -0.0405  0.1489  0.2093
19704W        W34835   8.955   9.441   3.790  0.0001 -0.0888 -0.0335
19705W        W34836  15.357   4.345   5.287 -0.1396  0.0071 -0.1837
19706W        W34837  14.294   8.043   0.180  0.2182  0.0121  0.1795
19707W        W34838   3.257  13.474   3.298 -0.0203 -0.0143 -0.1184
19708W        W34839   2.551  10.165   6.067 -0.0186 -0.0147  0.0959
19709W        W34840   7.240   6.744   4.273 -0.0865  0.1047  0.2126
19710W        W34841  16.524  11.930   6.630 -0.2367 -0.2277  0.2323
19711W        W34842  11.336   9.713  12.611  0.3427  0.0655 -0.2157
19712W        W34843  15.658   6.531   3.515 -0.2418 -0.0332  0.0782
19713W        W34844   0.865   0.935   3.276 -0.1864  0.1233  0.0560
19714W        W34845  16.210  13.079  15.303 -0.1433 -0.1319  0.0026
19715W        W34846  10.018   8.535  16.174  0.0947  0.0716  0.1235
19716W        W34847   4.568   6.745   5.136  0.2595 -0.0396  0.2281
19717W        W34848  10.449   9.601  11.390 -0.0259  0.2241  0.1876
19718W        W34849  15.625   2.201  14.430 -0.0504  0.2709  0.3210
19719W        W34850  13.120   5.200  13.915  0.1636 -0.1066 -0.2491
19720W        W34851   6.974   3.772  15.298  0.0620 -0.1261  0.3799
19721W        W34852  11.889  10.233   5.874  0.1966  0.1861 -0.0071
19722W        W34853   9.604   9.503   0.914 -0.0640 -0.1259  0.2074
19723W        W34854  14.578   0.267  12.503 -0.3875  0.1892 -0.0817
19724W        W34855   1.847  11.107  16.196  0.1199  0.1629  0.2272
19725W        W34856   6.752   0.966   0.383 -0.1745 -0.0353  0.1072
19726W        W34857   9.893  11.297  16.928 -0.1676 -0.0296  0.0334
19727W        W34858  11.955  10.874  15.735  0.2174 -0.0780 -0.1556
19728W        W34859   6.744  13.397  12.948 -0.0249 -0.0661  0.4410
19729W        W34860   3.320  17.197  12.993  0.0792 -0.1050  0.1643
19730W        W34861   3.728   8.439  16.380 -0.2175  0.1005 -0.0922
19731W        W34862  16.810  14.609   3.312  0.0447  0.0623  0.0017
19732W        W34863  16.486  16.580  13.227  0.0726  0.0973  0.1853
19733W        W34864  13.266  17.459  15.693  0.2066  0.5164  0.0158
19734W        W34865  11.631  14.122   3.448 -0.2048  0.0072  0.3271
19735W        W34866  15.010   0.934  13.318  0.0938 -0.3474 -0.1793
19736W        W34867  11.351   1.746  12.897 -0.1493  0.0883 -0.1088
19737W        W34868   0.827  11.406  14.585  0.0497 -0.1769 -0.2393
19738W        W34869   8.224  13.159   4.785 -0.0950  0.0108  0.1077
19739W        W34870   3.897  14.508  16.308  0.1241 -0.0738 -0.0425
19740W        W34871   8.319   6.583   5.227  0.2165  0.1257  0.2149
19741W        W34872   6.398  17.489  16.710  0.2812 -0.2061  0.4529
19742W        W34873   7.789   8.579   4.927  0.0677 -0.1097  0.0596
19743W        W34874  11.361   9.437  11.505 -0.2440 -0.0359 -0.0748
19744W        W34875   4.317   4.476  14.298  0.1392 -0.0771 -0.3009
19745W        W34876   7.573   8.377   0.475 -0.2094 -0.1026 -0.2018
19746W        W34877  10.748  14.224   5.846 -0.0188 -0.4950  0.2086
19747W        W34878   1.205  16.965   4.708 -0.0157 -0.0861 -0.0139
19748W        W34879  15.032  10.349  12.304  0.1256  0.2226  0.0561
19749W        W34880   9.995  16.964   4.153  0.2000 -0.0598 -0.1840
19750W        W34881   6.572  10.427   0.109  0.0615  0.3252  0.2262
19751W        W34882   1.902  15.391  13.518  0.0331 -0.1631 -0.1341
19752W        W34883   6.648   7.521  15.619 -0.2318 -0.0712 -0.4087
19753W        W34884  15.235  10.015  16.339  0.0918 -0.1848  0.0954
19754W        W34885  17.688  16.376   4.119  0.1079 -0.0186  0.1616
19755W        W34886  12.656   6.051   5.740  0.1082 -0.0520  0.0263
19756W        W34887   5.388  16.920  14.655 -0.2252  0.1176  0.2004
19757W        W34888   3.350  11.997   4.064  0.1515 -0.1103  0.0310
19758W        W34889  11.745   3.205   2.803  0.1599  0.3350  0.1042
19759W        W34890  13.888  15.013  14.897  0.1774  0.0470  0.2671
19760W        W34891   0.896   9.420   3.617 -0.0173  0.1082  0.0656
19761W        W34892   9.005   0.224  15.105 -0.0371  0.1252  0.2069
19762W        W34893   2.586   8.605  15.386 -0.1401 -0.2013 -0.0379
19763W        W34894  10.210  14.650  11.823 -0.0321  0.5462  0.1392
19764W        W34895   6.948  16.034   5.396  0.1755  0.1725  0.1557
19765W        W34896  13.586  11.311   0.009  0.1272 -0.0933  0.3500
19766W        W34897   9.382   9.358   6.196 -0.1470  0.5073  0.0632
19767W        W34898  10.679  12.495  16.693 -0.0701  0.2096 -0.0193
19768W        W34899   2.479  17.474  15.314 -0.2380 -0.0541  0.1338
19769W        W34900   4.739   0.411  12.690  0.3793  0.0871  0.0676
19770W        W34901   8.876   7.571  14.510  0.0605  0.1582 -0.1318
19771W        W34902   0.162   7.627   2.606 -0.1150 -0.0564 -0.1470
19772W        W34903   4.932  14.549  16.463  0.2177 -0.1828  0.0176
19773W        W34904   1.989  12.063   2.249  0.1659  0.1434 -0.2431
19774W        W34905  12.648   7.379  13.273 -0.2238 -0.2427 -0.1025
19775W        W34906   8.252   6.717   3.303  0.0640  0.1076 -0.2621
19776W        W34907   5.038   3.656   3.966  0.2789  0.1828  0.1624
19777W        W34908   4.857   6.831  13.099  0.1634  0.1873  0.2565
19778W        W34909   8.925  10.275   2.696 -0.1159  0.1010  0.3172
19779W        W34910   7.169  11.698   2.126  0.1349  0.1070 -0.0506
19780W        W34911  12.408  13.321  14.500  0.2691  0.0271  0.1824
19781W        W34912   2.718  11.947  13.899 -0.0009 -0.2823 -0.0067
19782W        W34913   7.500   3.732  15.799 -0.0060  0.0077 -0.1166
19783W        W34914  13.996  10.998   1.169 -0.1506  0.0056  0.1244
19784W        W34915  14.879   3.997   2.604 -0.0107  0.0153  0.1281
19785W        W34916   1.020   4.681  15.798  0.1441  0.0714  0.0214
19786W        W34917   6.158   7.081  12.336 -0.0640 -0.0908  0.2244
19787W        W34918  15.668  10.129   2.962 -0.0554  0.0804 -0.0366
19788W        W34919  15.633   2.709  10.994 -0.2733  0.0610  0.1065
19789W        W34920  14.274  11.502   3.611  0.0387 -0.1460 -0.0125
19790W        W34921  14.116   2.396  13.128 -0.1418 -0.0928  0.0781
19791W        W34922   3.524  12.314  13.684 -0.0404  0.2178  0.1261
19792W        W34923   6.944   9.435  16.916 -0.1033 -0.1774  0.1203
19793W        W34924  14.631   5.248   1.790 -0.0671 -0.0298  0.0813
19794W        W34925   0.274  10.190  14.363 -0.3302  0.0737 -0.1744
19795W        W34926  17.070  16.938   2.262  0.1469 -0.0488 -0.0417
19796W        W34927   1.728  12.064   1.685  0.1008  0.1578 -0.0216
19797W        W34928  17.333   3.564  16.013  0.3063  0.0314  0.2412
19798W        W34929   4.067   4.278   1.325 -0.0500  0.1041  0.0712
19799W        W34930  16.719   7.762  15.628  0.0611  0.2104  0.0003
19800W        W34931   5.870   2.506   0.896  0.0137 -0.1788  0.0337
19801W        W34932   9.290  10.783  15.405 -0.0135 -0.0396 -0.0055
19802W        W34933  13.059  14.735  15.051 -0.1445  0.0395 -0.4119
19803W        W34934   4.278   9.214  14.196 -0.0229  0.2266  0.1188
19804W        W34935  17.710   4.142   4.830 -0.0808 -0.2349  0.0390
19805W        W34936  16.019  17.476  14.406  0.3427 -0.2063 -0.2039
19806W        W34937   6.242   7.208  13.165 -0.1324  0.0969  0.2059
19807W        W34938  13.104  14.773  13.746 -0.1790 -0.3331  0.1326
19808W        W34939   3.959   3.334  15.274  0.0632 -0.1489  0.0172
19809W        W34940  16.908   9.119  12.758  0.0141 -0.0589  0.0455
19810W        W34941  17.107   7.893  16.581 -0.3114 -0.2763  0.0784
19811W        W34942  16.027   3.999   0.300 -0.0885 -0.1587  0.1781
19812W        W34943  11.432   8.307   2.551 -0.2637 -0.2604 -0.0449
19813W        W34944   6.698  10.460  15.887 -0.1150  0.0108  0.1470
19814W        W34945   0.264   3.479  13.604  0.1222  0.0629  0.2181
19815W        W34946  13.899   1.294   4.545 -0.3044  0.1199  0.2868
19816W        W34947  12.858  10.934  13.149 -0.0050 -0.0758  0.2950
19817W        W34948   9.224   3.908  13.894 -0.1224  0.0703 -0.1042
19818W        W34949   9.935   4.887   1.841  0.3994  0.0369 -0.0205
19819W        W34950  11.880   2.714  15.259  0.1096  0.2233 -0.3002
19820W        W34951  10.685  13.438   5.147  0.1200 -0.0232 -0.1089
19821W        W34952   2.323  11.240   1.619 -0.0375 -0.0713  0.0034
19822W        W34953   2.950  11.704  14.681 -0.3027  0.2289  0.0884
19823W        W34954  13.011  12.568   2.317 -0.1549 -0.0106 -0.0361
19824W        W34955   2.176   2.952   1.617 -0.0632  0.1031  0.3170
19825W        W34956  15.481  15.826   2.044  0.0174 -0.0489  0.3241
19826W        W34957   7.527  12.650   0.690  0.1453 -0.0118 -0.2864
19827W        W34958   8.371  13.718  15.690 -0.3030  0.1795 -0.1856
19828W        W34959   7.406   0.882   6.043  0.0948  0.0423 -0.1009
19829W        W34960   2.949   5.337   0.343  0.0396 -0.3361  0.0684
19830W        W34961  10.561   0.019  15.548  0.0244 -0.1056 -0.0718
19831W        W34962   1.097   7.367   5.678 -0.0935 -0.1614  0.2568
19832W        W34963  16.177  17.692   3.200 -0.3428 -0.2827  0.2218
19833W        W34964   4.093   5.548  15.543  0.0434 -0.3408  0.2774
19834W        W34965  17.356  11.910  13.956 -0.1150  0.1753 -0.1563
19835W        W34966   8.764  12.703   5.235 -0.0350  0.0090 -0.0367
19836W        W34967  17.366  12.205  14.621  0.1465 -0.0904  0.0372
19837W        W34968  13.681  10.691   1.476 -0.2794 -0.0537 -0.1056
19838W        W34969   7.102   9.887  13.788 -0.0718  0.0383  0.0389
19839W        W34970  14.551   0.943   5.030  0.2928 -0.2412 -0.0080
19840W        W34971   6.991   9.865  15.580 -0.0835  0.1264 -0.2290
19841W        W34972  15.721  10.315   1.592 -0.1601 -0.3161 -0.2940
19842W        W34973   8.453   7.152  15.145 -0.0524 -0.0193 -0.2889
19843W        W34974   6.150   0.175   2.171 -0.3618  0.0324  0.1196
19844W        W34975   8.620  10.233  11.730  0.3085  0.1506  0.2061
19845W        W34976  13.514   6.904  11.450 -0.0305  0.0233  0.0708
19846W        W34977   8.450   2.559   4.227  0.2775 -0.0802  0.2078
19847W        W34978   7.892   4.972   0.955 -0.0580 -0.0001 -0.3588
19848W        W34979   1.031  12.789  14.502  0.0033 -0.0762  0.0500
19849W        W34980  11.838  12.885  11.540  0.0380 -0.0456 -0.1050
19850W        W34981   6.512  17.198   2.955  0.3166  0.0273  0.0597
19851W        W34982  15.832   5.351  11.653  0.0716  0.1687  0.2223
19852W        W34983  15.256   3.440  14.760  0.2279  0.0373  0.0698
19853W        W34984   3.247   6.824   2.851  0.0899  0.0019 -0.3705
19854W        W34985  12.481  15.821  15.273  0.1336  0.0083 -0.0690
19855W        W34986  16.165  15.149  11.629 -0.0809  0.3046 -0.1399
19856W        W34987  15.643   2.548   0.587 -0.1686  0.2223  0.0097
19857W        W34988  15.687   5.292   0.310  0.0639  0.2077  0.2937
19858W        W34989   6.050  12.164   1.077 -0.1609  0.1088 -0.0501
19859W        W34990   7.809  12.736   0.180 -0.0008  0.1895  0.0517
19860W        W34991   6.718   2.920   6.213  0.1374  0.4596 -0.0251
19861W        W34992  12.331  12.754   3.943  0.1926  0.4718 -0.0609
19862W        W34993  11.037  10.099   0.099 -0.1158 -0.1423 -0.3387
19863W        W34994   9.704   5.047   1.438 -0.1236 -0.0699  0.2656
19864W        W34995   9.163  16.211   1.249  0.1901  0.0261  0.0364
19865W        W34996   1.894   1.049  15.700 -0.2456  0.1444 -0.0980
19866W        W34997   6.783   1.021   3.442 -0.1615  0.0485  0.0609
19867W        W34998  16.400  13.471   5.757 -0.1395  0.2478 -0.0905
19868W        W34999   0.137   2.282  15.508 -0.1756  0.0310 -0.2284
19869W        W35000   7.022  13.292  13.778 -0.2849 -0.1127  0.0205
19870W        W35001  12.992  12.409   6.295  0.0654 -0.0728  0.0111
19871W        W35002   7.334  16.910   4.235  0.1608  0.2126 -0.2867
19872W        W35003   2.726  10.197  14.845  0.0060  0.0088 -0.1312
19873W        W35004  12.810   8.367   4.013 -0.0899  0.1997  0.0579
19874W        W35005   2.881   0.714  12.928 -0.3491 -0.0234  0.3516
19875W        W35006  17.288   5.534  15.854  0.2548 -0.1011  0.0521
19876W        W35007   9.409  12.888  16.238  0.2080 -0.1478 -0.4822
19877W        W35008   6.351   3.054  14.220 -0.1241  0.2941 -0.0405
19878W        W35009  11.072  13.829   1.028  0.2412 -0.1046  0.2216
19879W        W35010   5.111  11.917   5.335 -0.1615  0.1172  0.2243
19880W        W35011  16.401   8.978   1.425 -0.0154  0.0345  0.1068
19881W        W35012   6.023  10.268   3.696 -0.2649  0.0793  0.1473
19882W        W35013   7.155  12.534   1.050  0.0502  0.1617  0.0124
19883W        W35014  13.993   4.054   2.538  0.0970  0.1078 -0.0272
19884W        W35015   2.841  14.877   1.882  0.0319  0.0248 -0.0584
19885W        W35016  13.343   9.051  12.932  0.1241 -0.0213 -0.0988
19886W        W35017  12.170   9.858  16.710  0.0050 -0.3548 -0.0152
19887W        W35018   9.751   1.825   1.020 -0.1717 -0.0574  0.0176
19888W        W35019  11.555   6.999  15.814 -0.1206  0.1125  0.0772
19889W        W35020   1.781   3.857   5.109  0.0463 -0.2384  0.3411
19890W        W35021  14.710  11.575   3.221  0.1179 -0.0346 -0.3463
19891W        W35022   0.752   1.006   1.100 -0.2354 -0.0818  0.3213
19892W        W35023   1.693  13.605   3.509 -0.1787 -0.0850 -0.1218
19893W        W35024   5.933   9.220  13.710 -0.0406  0.0029  0.0217
19894W        W35025   5.431   4.438  12.395  0.0787  0.0659  0.2645
19895W        W35026  16.022  16.599  15.539 -0.0496  0.0374 -0.1059
19896W        W35027  11.092  16.888  12.074  0.2667  0.2483  0.1670
19897W        W35028  13.784  11.333   4.131 -0.0845  0.0672 -0.1971
19898W        W35029   4.171   7.830  16.276 -0.0202 -0.0376  0.0883
19899W        W35030   8.239  13.889   0.514  0.4330 -0.1031  0.0793
19900W        W35031  16.075  10.283  11.328  0.1168 -0.1116 -0.0721
19901W        W35032   8.567  14.165   0.224  0.1001 -0.0091 -0.2271
19902W        W35033   8.885   1.105  14.867  0.1237  0.0939  0.0968
19903W        W35034   1.365  17.594  12.027  0.0253 -0.2143  0.0886
19904W        W35035  14.407  13.780  15.452  0.4023  0.0227 -0.1587
19905W        W35036   6.996   5.471  12.402 -0.1081  0.0394  0.1123
19906W        W35037  13.946  17.020   5.419  0.3550 -0.0339  0.0888
19907W        W35038   7.513  14.490   1.547 -0.2009 -0.2977 -0.2861
19908W        W35039  16.944   2.569   0.280 -0.0062  0.1485  0.1824
19909W        W35040  11.718   3.117  14.940 -0.3520  0.1316 -0.1934
19910W        W35041   3.861  13.317   0.864  0.0058  0.2349 -0.1568
19911W        W35042   3.656  15.284  16.695  0.2127 -0.2255 -0.0462
19912W        W35043  10.922  11.408  15.313 -0.1363  0.1008  0.0312
19913W        W35044   6.865   9.647   1.395  0.2345  0.3475 -0.1984
19914W        W35045   2.531  13.461   0.593  0.0233  0.1670  0.0363
19915W        W35046  11.277   1.725  10.674 -0.0891 -0.1439  0.1785
19916W        W35047  11.269  11.125  11.600 -0.0919  0.0373  0.1437
19917W        W35048   9.599   3.202  14.904  0.1559  0.1624  0.2125
19918W        W35049   0.971   9.726   4.208 -0.1204  0.0433 -0.0172
19919W        W35050   7.011  14.671   4.858 -0.4571  0.2247 -0.0936
19920W        W35051   3.279  15.862  15.850  0.0655  0.0699 -0.1009
19921W        W35052   0.250  15.497  16.240  0.1407  0.0224 -0.1336
19922W        W35053   6.139   0.674  16.890 -0.1730  0.1339 -0.1516
19923W        W35054   2.969  10.011  16.432 -0.2605 -0.1445  0.0550
19924W        W35055   4.395  11.622   2.807 -0.2294 -0.0830 -0.2689
19925W        W35056   1.549   1.525  12.437  0.0712 -0.0774  0.1208
19926W        W35057   6.606  14.855   5.682 -0.1758  0.5263  0.2907
19927W        W35058  12.874  12.839  15.043  0.1312  0.2005 -0.1605
19928W        W35059  12.479  17.567  13.925 -0.3071 -0.0444  0.1558
19929W        W35060   7.972   4.447   2.789 -0.2448 -0.1456 -0.1157
19930W        W35061   1.817  12.815  12.104  0.0262 -0.1462 -0.1262
19931W        W35062   5.343   0.552   3.636  0.4319 -0.0684 -0.0825
19932W        W35063  17.490   5.812  14.465 -0.0824 -0.2199 -0.2003
19933W        W35064   2.050   3.400   1.320 -0.0011  0.0105  0.1366
19934W        W35065  15.229  12.997  16.235  0.0613  0.1141 -0.0547
19935W        W35066   5.222   3.166   3.937 -0.1889  0.1639  0.1732
19936W        W35067  11.319  17.604   3.035  0.2623  0.0428 -0.1781
19937W        W35068   5.123   1.159   1.535  0.1890  0.1830 -0.0015
19938W        W35069  12.536  15.917  12.801  0.0133  0.0529 -0.0909
19939W        W35070  11.474  14.331   1.186 -0.1512 -0.0871  0.0801
19940W        W35071  10.247  11.089  13.723  0.1369 -0.2259 -0.1027
19941W        W35072  15.097   4.230   4.770  0.2498  0.0127  0.0563
19942W        W35073  16.211  16.790   1.263 -0.2066 -0.0639 -0.0312
19943W        W35074  13.504  14.902   3.564  0.1001  0.0479 -0.2950
19944W        W35075   0.155   5.473   0.112  0.3899  0.2401 -0.0232
19945W        W35076   9.651  10.423  14.909 -0.4134  0.1268 -0.0466
19946W        W35077   4.263   6.879   1.979 -0.3955  0.0271  0.0717
19947W        W35078  14.689  15.624   4.217 -0.0696  0.0947 -0.2142
19948W        W35079   5.151  10.896   2.718 -0.1326 -0.3894  0.0653
19949W        W35080   4.580  11.192  14.915 -0.3073 -0.1294  0.1386
19950W        W35081   9.249  17.166  12.299 -0.0009  0.0705  0.1219
19951W        W35082  12.277  10.789   5.390 -0.2128  0.2086 -0.0901
19952W        W35083  10.432   6.320   1.017 -0.1117  0.2151  0.1186
19953W        W35084  15.340   8.784   0.663  0.1023 -0.0040  0.0798
19954W        W35085   4.115   5.997   2.253 -0.1409 -0.0190  0.0903
19955W        W35086  12.792   2.474   3.180 -0.0040  0.1791 -0.0560
19956W        W35087   6.605   9.499   0.984  0.0651 -0.2255 -0.0372
19957W        W35088   6.421  14.893   3.198 -0.1453 -0.0365 -0.1105
19958W        W35089   7.526  16.310  15.285 -0.0044  0.2052  0.1588
19959W        W35090   6.613   2.090  11.762  0.0119  0.2062 -0.1252
19960W        W35091  11.110   5.534  13.377  0.0318 -0.0055  0.2994
19961W        W35092  15.990   5.797   1.794 -0.1927  0.1946  0.0446
19962W        W35093   8.639  14.846   0.911 -0.0808  0.2737  0.2813
19963W        W35094   3.843   9.503   0.929 -0.0542 -0.1344 -0.2452
19964W        W35095   4.753  11.239  12.315 -0.0144  0.2248  0.1070
19965W        W35096  11.938   9.978   2.622  0.0984  0.0412  0.1026
19966W        W35097   5.204  17.156   1.651 -0.1698  0.1724 -0.1719
19967W        W35098   3.842   0.191  16.257  0.0630  0.1119  0.1125
19968W        W35099   2.989   5.840  11.794  0.2055  0.0291  0.0245
19969W        W35100  16.950   1.883   2.265 -0.1154 -0.1403 -0.0431
19970W        W35101   6.648   5.909   6.218 -0.2375 -0.0994 -0.0990
19971W        W35102  11.448   7.848  16.850  0.0368  0.1759  0.0496
19972W        W35103  13.646  12.989   3.617 -0.3082  0.0989 -0.1549
19973W        W35104   8.888  15.612   3.055 -0.4450  0.0307  0.1698
19974W        W35105   8.493   1.590   4.550 -0.1741 -0.2263 -0.0562
19975W        W35106  17.516   2.464  11.686  0.0333 -0.1276 -0.0679
19976W        W35107  17.096   1.486  11.704  0.0077 -0.1397 -0.1262
19977W        W35108  14.344  16.009   5.126 -0.1581 -0.1610  0.1503
19978W        W35109   5.686   9.624   2.038  0.1069 -0.0080  0.1717
19979W        W35110  16.579  11.016  12.823 -0.2544 -0.1321  0.0512
19980W        W35111  14.668   6.728   4.623  0.2792 -0.1026  0.4116
19981W        W35112  13.347   7.201   4.655  0.0154  0.1579  0.3219
19982W        W35113  13.548   0.416   3.446 -0.2574  0.2809 -0.1565
19983W        W35114   5.323   5.266   2.380  0.0221 -0.0829 -0.0831
19984W        W35115  12.702  14.654  12.991 -0.0236 -0.1544 -0.0341
19985W        W35116  12.660   5.055   4.743 -0.1102 -0.0005 -0.1542
19986W        W35117  14.322   2.793  13.528  0.0416 -0.1139  0.0014
19987W        W35118   2.318  16.748  13.519  0.1455 -0.0550  0.0633
19988W        W35119   7.772  15.454   1.925  0.3437 -0.2257  0.1103
19989W        W35120   1.169  17.565   1.513  0.1646 -0.0934 -0.1020
19990W        W35121  11.051  15.540   5.325 -0.4409  0.4358  0.0048
19991W        W35122  12.137  17.107  15.980 -0.2392 -0.3977  0.0997
19992W        W35123  13.108   3.320   5.425  0.2865 -0.0178  0.0133
19993W        W35124  14.473   0.751  14.056 -0.1794  0.1293  0.0222
19994W        W35125   7.123  13.301   0.759 -0.0272  0.0843 -0.0254
19995W        W35126   0.316  12.962   3.410 -0.1753  0.3787  0.2697
19996W        W35127  15.649   2.824   4.707 -0.1446  0.3241  0.0833
19997W        W35128  16.046   2.619  14.194 -0.2050  0.1727 -0.2275
19998W        W35129  13.205  16.063   6.054  0.0199 -0.0997 -0.2575
19999W        W35130   8.353  13.101  16.302  0.0747  0.0252  0.0207
20000W        W35131   0.844   2.149   0.860 -0.1958  0.0580  0.1071
20001W        W35132  11.050   5.512  16.171  0.0823 -0.0427  0.0229
20002W        W35133   6.879   9.126  12.434 -0.1087  0.2409  0.2143
20003W        W35134  11.081  16.527   0.208 -0.0956 -0.3642 -0.1634
20004W        W35135   9.833  11.687  11.607 -0.0392  0.2154 -0.3350
20005W        W35136   4.498   2.385  15.162 -0.1026  0.1078  0.1438
20006W        W35137   9.265   8.190   3.601 -0.0181 -0.1113  0.2902
20007W        W35138  15.440  14.066  16.883  0.2258 -0.1084 -0.4214
20008W        W35139  12.088  17.354   2.925  0.3111 -0.0924  0.0114
20009W        W35140   5.841  10.907   2.190 -0.1336 -0.0548 -0.3198
20010W        W35141  10.164   3.576   2.830 -0.0903  0.0235 -0.2082
20011W        W35142  16.994  10.202   3.400  0.0073 -0.3095 -0.2082
20012W        W35143   3.466   3.408  11.234  0.4290 -0.0560  0.0832
20013W        W35144  12.870  10.324  11.615  0.2010  0.0922  0.2695
20014W        W35145   7.673   7.220  13.524  0.0909 -0.1920  0.0956
20015W        W35146   1.840   2.326  15.330  0.1624  0.2544  0.1946
20016W        W35147  11.506   4.273  15.780  0.0827  0.0846  0.0623
20017W        W35148  11.707  11.974  13.323 -0.0855  0.0173  0.2714
20018W        W35149  11.499   6.982   0.421  0.2107 -0.1407 -0.0959
20019W        W35150   7.713   4.002   2.793 -0.1796  0.0791  0.2058
20020W        W35151  16.428  11.985   1.751  0.0393  0.0031  0.4382
20021W        W35152   7.169   8.104   2.234 -0.0412  0.2118 -0.1996
20022W        W35153  16.715  13.618  13.269  0.1216  0.0679  0.0691
20023W        W35154   9.361   0.996   3.706  0.0250 -0.3721 -0.0900
20024W        W35155  10.123  16.978  12.883  0.0265  0.1353 -0.0398
20025W        W35156  13.916  14.869  13.790  0.0295 -0.1897 -0.1491
20026W        W35157   5.201  15.378   2.847  0.3137 -0.2972  0.2509
20027W        W35158   6.761   2.323   2.592 -0.1426  0.2944 -0.2862
20028W        W35159   9.597   7.382   2.063  0.2985  0.0521  0.1422
20029W        W35160   5.086  16.897   3.353  0.1369  0.0802  0.2475
20030W        W35161  13.697   5.630   4.056  0.1810  0.1139 -0.2167
20031W        W35162  16.688  16.410   0.445 -0.0492  0.1716  0.0052
20032W        W35163  12.682   7.992  11.477  0.0693 -0.2166 -0.1729
20033W        W35164   4.870   7.523  11.748  0.1453  0.2772 -0.4239
20034W        W35165   6.409   5.071   3.552 -0.0986  0.4942 -0.2241
20035W        W35166  16.576  10.543   5.184 -0.1576 -0.0712 -0.0202
20036W        W35167  13.020  17.633   1.180 -0.2173 -0.1831  0.0087
20037W        W35168  16.908  13.235  16.761 -0.1454 -0.2177  0.2293
20038W        W35169  11.227  15.525   4.863 -0.0399 -0.3345  0.1895
20039W        W35170   1.043  11.005   2.187  0.1333 -0.1543  0.0205
20040W        W35171   3.642   6.722  13.152 -0.0432 -0.0248  0.1304
20041W        W35172  15.984   1.746  15.033 -0.0787  0.0581 -0.0243
20042W        W35173  14.894  15.183   0.288  0.0742  0.1899 -0.0520
20043W        W35174  10.188  10.252   1.733 -0.0386 -0.0759  0.1654
20044W        W35175  10.492  13.849  16.771 -0.3884  0.3296 -0.1511
20045W        W35176  17.695   3.375  15.740  0.2259  0.1661  0.0071
20046W        W35177   9.754   5.619  14.916  0.0221 -0.2153  0.1322
20047W        W35178  11.947  15.637   2.795 -0.1360 -0.0011  0.1111
20048W        W35179   5.194   7.980   4.474 -0.0592 -0.0995  0.0447
20049W        W35180  10.661  16.715  12.925 -0.0789 -0.0090  0.0956
20050W        W35181   4.202   0.063   5.789  0.2492  0.2989 -0.1296
20051W        W35182   6.175  10.175  16.650  0.0184 -0.1347 -0.2130
20052W        W35183  13.115   8.289  16.902  0.2322  0.0027 -0.1020
20053W        W35184   3.500  13.218  15.303  0.1380  0.2841  0.3703
20054W        W35185   2.968   2.331   3.747  0.2750  0.1213  0.1429
20055W        W35186   5.166   0.491  16.727  0.1577 -0.2280  0.2322
20056W        W35187  11.641  10.699  11.628 -0.0377  0.1293 -0.5557
20057W        W35188  16.583   9.020  13.147 -0.0544  0.2472  0.2496
20058W        W35189  14.933   6.970   0.759 -0.1861  0.2421 -0.1028
20059W        W35190   4.359   6.283  11.704 -0.0698 -0.1237  0.0124
20060W        W35191   6.288   4.485  16.645  0.2229 -0.1668 -0.1423
20061W        W35192   6.520   4.509   0.763 -0.1286 -0.0925  0.1857
20062W        W35193  11.340  13.368  16.003  0.0021 -0.1111  0.0161
20063W        W35194   9.707   4.705   3.482 -0.0964 -0.2158  0.2225
20064W        W35195   9.458   1.067  12.611  0.1301 -0.0142 -0.1721
20065W        W35196   0.836   7.835  12.728 -0.0909 -0.0100  0.0830
20066W        W35197  13.777  17.137   4.401  0.2043  0.1349  0.1661
20067W        W35198  13.454   8.060  11.782 -0.3335  0.4048 -0.1366
20068W        W35199   9.091  12.108  12.451 -0.0839  0.1832 -0.2134
20069W        W35200   1.145   8.354   4.714  0.0626 -0.4345 -0.2244
20070W        W35201   8.672   2.089   0.598  0.0120  0.1341  0.1864
20071W        W35202   1.844  12.942  13.947 -0.0333 -0.1873  0.1123
20072W        W35203  13.312  15.761   2.461 -0.2264  0.0256 -0.0716
20073W        W35204   3.724   2.493  16.341  0.0919 -0.0416 -0.0097
20074W        W35205  14.798   9.518  15.916  0.1649 -0.2011 -0.1221
20075W        W35206   4.322  10.224   3.302 -0.0520 -0.0827  0.0801
20076W        W35207  12.680  15.707  13.869 -0.0296 -0.0788 -0.1424
20077W        W35208   2.552   5.607   4.896 -0.1480 -0.0614 -0.1038
20078W        W35209   3.445  13.736  16.036  0.1728  0.0368 -0.0732
20079W        W35210  10.320   0.519  15.706 -0.1004  0.0436 -0.1289
20080W        W35211  15.500  16.661   2.578 -0.1747  0.1669 -0.0058
20081W        W35212  13.588   2.159   3.145 -0.1297 -0.2122 -0.0443
20082W        W35213   5.980   0.240   1.697 -0.0942  0.1348 -0.2070
20083W        W35214  13.635   9.862  13.335  0.0779  0.0472 -0.1100
20084W        W35215  11.893   6.814  13.327  0.1305  0.3665  0.0853
20085W        W35216  12.143   0.118   1.001  0.1769 -0.1417 -0.1074
20086W        W35217  15.337  12.560   2.662  0.1222 -0.1410  0.1254
20087W        W35218  11.732   2.708   1.221 -0.0268  0.1333  0.0512
20088W        W35219   2.595  15.446   1.125 -0.1358  0.2510  0.2855
20089W        W35220   7.015  16.737   0.343 -0.1206  0.0774  0.2315
20090W        W35221  11.821   3.156   0.847 -0.3061  0.0397  0.0375
20091W        W35222   2.108  17.709   4.305 -0.2547  0.0024 -0.2029
20092W        W35223  14.635   7.299   1.216  0.0495  0.0789 -0.1568
20093W        W35224   1.292  11.736  12.692 -0.3791 -0.1175 -0.1387
20094W        W35225  11.038  11.352   1.668 -0.0746  0.0183  0.3162
20095W        W35226  11.051   6.739  13.405  0.0592  0.1989  0.0797
20096W        W35227  13.446  15.589   2.912 -0.0369 -0.1736  0.0617
20097W        W35228   6.876  12.216   1.462 -0.1710  0.0516 -0.1174
20098W        W35229   4.921   2.381   0.073  0.0442 -0.1173 -0.0086
20099W        W35230  10.202  13.695  14.696 -0.2948 -0.2966 -0.0556
20100W        W35231   9.407   0.063   3.599  0.0720  0.0091 -0.1106
20101W        W35232  12.394  13.902  13.567 -0.1008 -0.0482  0.1190
20102W        W35233  14.342  12.051   3.149 -0.0284 -0.2573  0.0622
20103W        W35234   3.846   1.746  12.431  0.0315 -0.2365  0.0594
20104W        W35235   0.668   8.209  13.653  0.0837  0.2674  0.2346
20105W        W35236  12.304  14.426  13.452  0.3332  0.1245  0.0253
20106W        W35237   7.845  17.583   5.011 -0.0605 -0.0898 -0.1652
20107W        W35238  10.044   0.361   2.100  0.0561 -0.0121 -0.0151
20108W        W35239   7.636   4.732  14.669 -0.1854 -0.2347 -0.2755
20109W        W35240  10.361   3.061   5.381 -0.1804 -0.4546 -0.1776
20110W        W35241   2.002   5.605  10.994 -0.0592  0.1152 -0.0275
20111W        W35242   9.415   7.416  15.793  0.1932  0.0332 -0.1165
20112W        W35243  10.805  14.395   2.054 -0.2680  0.0044  0.0135
20113W        W35244   9.018  16.988   2.651 -0.0309  0.0967 -0.2759
20114W        W35245  16.976  12.100  16.599 -0.1344  0.0713  0.1586
20115W        W35246   6.430  12.465   1.255  0.1655 -0.0948  0.2371
20116W        W35247  16.756  15.909   1.386 -0.3774 -0.2284  0.0475
20117W        W35248   5.663  15.463  15.529  0.2354 -0.1006 -0.0873
20118W        W35249  15.890   9.339  12.626 -0.1262  0.0494 -0.1733
20119W        W35250   9.169  10.190  15.733 -0.1777  0.0808  0.3508
20120W        W35251  13.772  12.667  12.982  0.1302  0.2179  0.1509
20121W        W35252   6.195  14.656   5.916  0.0384  0.0643 -0.0071
20122W        W35253   4.033   6.339  14.391 -0.2090 -0.2083  0.1915
20123W        W35254  12.235  11.595   1.017 -0.0036 -0.0560  0.0145
20124W        W35255   1.125  11.397   3.042  0.0332  0.1098  0.0863
20125W        W35256   4.456   3.260  13.938 -0.1050 -0.1167 -0.1144
20126W        W35257  16.623   4.685  16.687  0.0915  0.1015  0.1028
20127W        W35258   0.029   2.365   2.102 -0.2497 -0.0720  0.1048
20128W        W35259   2.650   4.387   0.686 -0.0271  0.0333 -0.1087
20129W        W35260  11.991   6.677   2.474  0.0643 -0.0802  0.1023
20130W        W35261   1.372   2.009  16.926 -0.1763 -0.0192  0.0789
20131W        W35262   0.129  16.818   1.501 -0.4730 -0.1420  0.1337
20132W        W35263  16.891   7.196  15.612 -0.2455  0.2374  0.1704
20133W        W35264   7.187  15.170  15.124  0.0530  0.0895  0.0998
20134W        W35265   9.442   8.460  14.846  0.1774  0.0281 -0.0258
20135W        W35266   3.052  12.221  13.548  0.0338  0.1733 -0.2900
20136W        W35267  11.806   9.183  11.626  0.2774 -0.0731  0.1579
20137W        W35268   3.475  17.262  11.697  0.1864  0.0287 -0.0339
20138W        W35269   6.658   4.520  12.716 -0.2178 -0.0242  0.1038
20139W        W35270   0.608  10.214   1.515  0.0152 -0.2147  0.0852
20140W        W35271   8.122  15.153  10.978  0.0430  0.1827 -0.2104
20141W        W35272  17.411   2.260  14.653  0.0779 -0.1892 -0.0113
20142W        W35273  15.710   0.581   1.208  0.2411  0.0131 -0.2436
20143W        W35274  14.758   2.799  16.062  0.1741 -0.0706  0.0478
20144W        W35275   6.526   4.561   2.719  0.2178  0.0546  0.1265
20145W        W35276   2.704  15.133  10.896 -0.1557  0.1469 -0.2308
20146W        W35277  11.800  12.856  14.229 -0.1920  0.1426 -0.1176
20147W        W35278  14.630   2.006  14.793 -0.0495 -0.2937 -0.2124
20148W        W35279   0.113   4.819  13.278  0.2411 -0.0311 -0.2106
20149W        W35280  15.886   9.941  16.888 -0.0570  0.1177  0.2544
20150W        W35281   5.293   3.925   6.172 -0.2151 -0.0622 -0.1010
20151W        W35282  15.726   8.816  14.297  0.0306  0.3824 -0.0210
20152W        W35283  16.984  12.813   5.774 -0.1829  0.0057 -0.0647
20153W        W35284   1.773   7.306   3.381 -0.1652 -0.2104  0.0618
20154W        W35285  13.419   1.405  15.545 -0.0714 -0.2683  0.2047
20155W        W35286  15.986  11.831   1.497 -0.1537 -0.0758  0.0150
20156W        W35287   2.329   3.239  10.606 -0.5709 -0.1830 -0.0182
20157W        W35288   2.567  12.325  15.606  0.0349 -0.1869 -0.1138
20158W        W35289  11.453  17.146   6.312 -0.0417  0.2291  0.1247
20159W        W35290   1.825  15.405  12.850 -0.2399  0.3020  0.0241
20160W        W35291  15.236  11.290   4.326 -0.0883  0.0711 -0.1642
20161W        W35292   0.961   2.053   1.933  0.0094 -0.0198 -0.0145
20162W        W35293  16.777   8.724  15.378 -0.1259  0.0398  0.0714
20163W        W35294  10.989   2.536   2.757  0.0577  0.2889 -0.0323
20164W        W35295   3.966  17.094  11.721 -0.2873  0.1417 -0.0024
20165W        W35296   1.432  11.807   2.475 -0.1139 -0.2076  0.0393
20166W        W35297  15.388  15.205   3.042  0.2830  0.2236 -0.0904
20167W        W35298  12.074  13.273  12.831  0.3746 -0.0367 -0.3614
20168W        W35299   3.573   1.781   0.675  0.1448  0.1156  0.0712
20169W        W35300  13.233   5.813  11.273 -0.0128 -0.1319 -0.2793
20170W        W35301   8.092  11.994   0.469  0.2085  0.2019 -0.2913
20171W        W35302  12.962  11.632  12.065  0.0129 -0.2310  0.1278
20172W        W35303   1.133   2.968   5.520 -0.1451 -0.4174  0.0149
20173W        W35304  11.004   4.141   0.463 -0.0262 -0.1663  0.0225
20174W        W35305  17.017  13.274   5.659  0.1531  0.0263 -0.3056
20175W        W35306  14.939   2.939   2.297 -0.0290 -0.3047 -0.2030
20176W        W35307   2.728   3.965  14.280  0.3080  0.0175  0.1825
20177W        W35308  12.193   0.320  16.260  0.2442 -0.1352 -0.3241
20178W        W35309   5.566   0.841  11.205  0.0204  0.1794  0.0161
20179W        W35310   8.363  10.988  14.828  0.0194  0.0840 -0.3794
20180W        W35311  17.329   4.714   2.579  0.1726  0.0271  0.1307
20181W        W35312   2.820   5.361   2.807 -0.3522 -0.0502  0.2339
20182W        W35313  10.949   3.345  11.803  0.2377  0.0626  0.2127
20183W        W35314   0.199  10.709   1.574 -0.2500  0.1590 -0.3325
20184W        W35315   4.050  14.525   4.272  0.1121  0.1448  0.1316
20185W        W35316   1.881  12.987  16.504  0.0132  0.2662 -0.2636
20186W        W35317   3.740   2.299  14.130 -0.1373  0.0428  0.0052
20187W        W35318   4.924  16.560  13.097 -0.0802  0.1289  0.1550
20188W        W35319  10.509   1.752   2.096 -0.0201  0.1577 -0.2265
20189W        W35320  14.847   2.707   5.005 -0.0433 -0.0212  0.0421
20190W        W35321  17.657  14.273  11.946 -0.0703  0.1871 -0.1375
20191W        W35322   9.869   3.038   1.590 -0.1727  0.1619 -0.0162
20192W        W35323   8.955  12.696   1.973 -0.2388 -0.0263  0.2361
20193W        W35324   2.366   1.168  10.346 -0.0395 -0.0040  0.2219
20194W        W35325   4.023  16.696  12.661 -0.4061  0.1487  0.1622
20195W        W35326   5.316  15.103  11.857  0.1019  0.2741  0.0571
20196W        W35327  11.374   9.161   2.218  0.1098  0.3164  0.1195
20197W        W35328   6.767   4.682   3.678  0.1174 -0.2263 -0.0329
20198W        W35329   9.712  10.520   4.185 -0.0526  0.0214  0.0097
20199W        W35330   0.103  13.306  16.351  0.1765 -0.1786 -0.0369
20200W        W35331   7.725  11.134   1.815  0.0454  0.3161  0.2601
20201W        W35332  17.084   8.951   1.360  0.0147  0.0953  0.1720
20202W        W35333  17.642  10.542  14.213  0.1428 -0.4264 -0.1111
20203W        W35334  14.751  16.732   3.582 -0.0003  0.0813  0.0602
20204W        W35335   8.810  15.129   3.246  0.1045 -0.1100 -0.1099
20205W        W35336  11.553  17.679   0.122  0.1543  0.1561  0.0415
20206W        W35337   4.460   8.900  13.759 -0.2972  0.1094 -0.2140
20207W        W35338  11.350   0.997   2.608 -0.2100 -0.0277  0.0476
20208W        W35339   2.748   1.900   3.349  0.0669  0.2019  0.0790
20209W        W35340   7.907  11.637   5.829  0.2559 -0.0934 -0.2779
20210W        W35341  14.510   3.074   0.416 -0.4838 -0.1534  0.1237
20211W        W35342  16.983   8.615  15.861 -0.0234 -0.4463 -0.2524
20212W        W35343   5.400   4.326  12.903  0.0992  0.0941 -0.0246
20213W        W35344  12.238   8.313  11.465 -0.0690  0.3852  0.3197
20214W        W35345   0.801   6.631  11.036  0.1355 -0.1084 -0.0363
20215W        W35346   5.000   1.212  16.313  0.0234  0.1859 -0.0372
20216W        W35347   9.792   8.952   2.966  0.0286  0.2041  0.0076
20217W        W35348  15.659   1.705  15.881  0.0946 -0.2582 -0.0841
20218W        W35349   6.380   7.264  14.726  0.0698 -0.3345  0.1845
20219W        W35350   8.161  15.789  14.039 -0.0077 -0.0135  0.1283
20220W        W35351  14.509   5.950  13.990  0.3304 -0.3984  0.0517
20221W        W35352   9.240   4.661  12.540  0.4074  0.2295  0.2680
20222W        W35353   6.570   4.370  14.022 -0.2638 -0.0591  0.2665
20223W        W35354  12.110   4.737  13.272 -0.0936 -0.1077  0.0451
20224W        W35355  15.453  17.287  12.687  0.1009  0.1227  0.0037
20225W        W35356   8.288   6.713  15.025 -0.0271  0.1140  0.1562
20226W        W35357  10.673   5.891  13.244  0.0341  0.0595  0.2043
20227W        W35358   0.179   2.841  16.910  0.1261 -0.0052  0.4002
20228W        W35359  10.769  15.841  13.848  0.1891  0.0198  0.1563
20229W        W35360   1.411   9.166   0.924 -0.0675  0.0123 -0.0176
20230W        W35361  13.475  10.259   0.293  0.4241 -0.0655 -0.0682
20231W        W35362  11.427  14.382  13.250 -0.1135  0.3924 -0.0592
20232W        W35363  13.183  12.624  14.259  0.0370 -0.1213 -0.0711
20233W        W35364  10.483  17.002   5.741 -0.1201  0.0318  0.1304
20234W        W35365   6.380  16.795  16.119  0.1937 -0.1360 -0.0516
20235W        W35366   6.560  15.726  15.842 -0.1561 -0.2070  0.0830
20236W        W35367   5.878   0.650  15.142 -0.0497 -0.2282  0.0105
20237W        W35368   0.894   4.476   4.035  0.2223 -0.0595  0.0214
20238W        W35369   2.628  16.986   1.842 -0.2315 -0.1052 -0.0346
20239W        W35370   8.498  15.267  12.819  0.0429 -0.0881 -0.3263
20240W        W35371   8.139  15.611  14.688 -0.0720 -0.2045  0.1519
20241W        W35372   3.783  11.498   5.851 -0.1750 -0.1152  0.0172
20242W        W35373  12.468   4.811   3.394  0.1368  0.0072  0.3983
20243W        W35374  16.053  13.284   2.395  0.3036 -0.0872 -0.5861
20244W        W35375   5.938   4.767  11.589  0.1813  0.0446  0.1061
20245W        W35376   1.470   3.911   0.703 -0.1852 -0.3461  0.2441
20246W        W35377  10.766   0.436  12.728  0.0220  0.1277 -0.1903
20247W        W35378   4.290  11.842  14.505 -0.1510  0.2180 -0.1626
20248W        W35379  16.320  10.056  12.210  0.0970  0.1906  0.1058
20249W        W35380  13.539  10.494   2.587 -0.0537  0.0806  0.5964
20250W        W35381   6.746  15.630  12.631 -0.0611 -0.5220  0.2351
20251W        W35382  11.577  10.139   0.360  0.0873 -0.0344 -0.3280
20252W        W35383  14.540   0.524   6.292 -0.0111  0.1761 -0.1603
20253W        W35384   4.502   0.085   3.509 -0.0564  0.2446  0.0303
20254W        W35385   4.524  12.604  14.407 -0.0489 -0.0392  0.0573
20255W        W35386   2.953   9.673  16.882  0.4118 -0.2139  0.4092
20256W        W35387   1.511   1.535   0.548  0.1536 -0.0160  0.0776
20257W        W35388   1.341   4.474  13.658  0.0951  0.0892 -0.1041
20258W        W35389   3.179  17.532  12.107  0.1657 -0.0231  0.1766
20259W        W35390   4.138   6.573  16.664 -0.0276 -0.1813 -0.0341
20260W        W35391   2.875   8.312  12.782 -0.4702 -0.0545  0.0185
20261W        W35392   9.435   6.484   3.795  0.0923  0.0741  0.1268
20262W        W35393   5.661  11.286   5.592 -0.0127 -0.1430 -0.0447
20263W        W35394  15.898   3.497   1.490 -0.1930 -0.0486 -0.1493
20264W        W35395   0.842   2.870   3.281  0.1229  0.2718 -0.1763
20265W        W35396  15.788  17.399  15.231  0.0395  0.1648  0.0326
20266W        W35397   3.620  15.891  11.493  0.0362 -0.0457  0.2548
20267W        W35398  13.341   6.492  16.406  0.0378  0.0080  0.1417
20268W        W35399   0.909   2.246  10.309  0.4697  0.1689  0.0778
20269W        W35400   6.244   1.839   0.487  0.0165  0.2631 -0.1012
20270W        W35401   3.454   9.525  13.372 -0.0098 -0.2065 -0.2193
20271W        W35402   7.575  13.011   5.387 -0.1073 -0.1386  0.0612
20272W        W35403   5.731  13.547  15.967  0.0943 -0.1905 -0.1645
20273W        W35404  15.781  12.374   1.404  0.1280  0.1347 -0.0879
20274W        W35405  11.994   6.878  16.582 -0.2741 -0.3120 -0.2778
20275W        W35406  11.599  15.943   5.749  0.3255 -0.2090  0.1713
20276W        W35407  12.834  15.895  15.616 -0.0761  0.0703 -0.2074
20277W        W35408   0.314  14.666   0.317 -0.1265  0.0147 -0.1291
20278W        W35409   2.692   6.098  13.384 -0.1676  0.1657 -0.1470
20279W        W35410  15.029   7.184   2.244  0.2125  0.1744 -0.4660
20280W        W35411   9.530   2.717  15.782  0.3192  0.0703 -0.0216
20281W        W35412  16.316   4.820   3.679  0.0565 -0.2132  0.0397
20282W        W35413  14.305   0.096  16.074  0.0632  0.3569  0.3054
20283W        W35414  13.904   7.774  15.250 -0.0478 -0.0986 -0.3352
20284W        W35415   9.871   3.913  15.471 -0.1796  0.1557 -0.1071
20285W        W35416   2.100  15.089   5.147  0.1435 -0.0494 -0.0802
20286W        W35417  17.514   7.601   3.013 -0.0745  0.1711 -0.2173
20287W        W35418  12.209  10.716   5.920  0.1809 -0.1240 -0.0439
20288W        W35419  11.273   3.034   3.295 -0.0065 -0.0584 -0.0967
20289W        W35420   6.845  11.679  13.062  0.0969  0.0710 -0.2300
20290W        W35421   5.293   1.058   2.772 -0.0435 -0.0762  0.2090
20291W        W35422   8.869   6.871  13.969 -0.0864 -0.0714  0.0496
20292W        W35423  14.405   0.506   3.221 -0.0267 -0.0996  0.1877
20293W        W35424   8.992   3.924   5.892 -0.0062 -0.1962 -0.1580
20294W        W35425  10.664  16.380   0.638 -0.0159 -0.0997 -0.2512
20295W        W35426  14.875  14.401   0.566 -0.2399  0.1425  0.0296
20296W        W35427  15.124   7.119  15.387  0.3228 -0.1673  0.0898
20297W        W35428  12.793   5.632   5.184  0.2299 -0.1274 -0.4132
20298W        W35429  11.123  15.951  12.279 -0.0218  0.3554  0.0017
20299W        W35430  12.947   5.456  10.370  0.0458 -0.1978 -0.1075
20300W        W35431   1.404   7.875   5.554 -0.1790  0.0697 -0.1512
20301W        W35432  11.971   1.062   4.287 -0.1009 -0.0064  0.1973
20302W        W35433  16.298   9.624  14.985 -0.1161  0.1666 -0.2661
20303W        W35434   1.641   0.310  12.080 -0.0614  0.0401  0.2641
20304W        W35435   4.698  15.350   2.567  0.0067  0.2261  0.1397
20305W        W35436  15.729   9.632   2.999 -0.2133 -0.0446 -0.2075
20306W        W35437   2.032  14.884  15.184 -0.1669  0.0614 -0.0947
20307W        W35438  16.153   7.296   3.671 -0.0169 -0.1724  0.1273
20308W        W35439  10.905   5.378  15.575  0.2463 -0.1996  0.1384
20309W        W35440  10.909   0.109   0.087 -0.1260  0.0140  0.2272
20310W        W35441  12.807  16.222   5.847  0.2420  0.0889 -0.0043
20311W        W35442   2.743  14.814  11.280  0.0022  0.2801 -0.2170
20312W        W35443   7.876  12.595   2.451 -0.2575  0.2305  0.1821
20313W        W35444  16.682  14.954  12.450 -0.0301 -0.0773 -0.0646
20314W        W35445  10.171   0.648   6.443  0.2413  0.1064  0.1946
20315W        W35446  16.566   2.697  13.314 -0.0010  0.0413  0.3383
20316W        W35447   9.388   2.943   1.831 -0.1842 -0.0516 -0.1999
20317W        W35448   3.425   8.306  13.890 -0.2174 -0.0612 -0.0518
20318W        W35449   1.416   2.664  13.064 -0.0395  0.0343 -0.1866
20319W        W35450  10.068  13.490  10.629 -0.3305  0.0867 -0.2657
20320W        W35451   0.299   9.359   5.285 -0.1054  0.2117 -0.0359
20321W        W35452   9.983   1.315  16.257  0.0966 -0.2566 -0.0567
20322W        W35453  11.530  16.289   0.035 -0.0820 -0.0101  0.0428
20323W        W35454   4.030  12.094   5.807 -0.0271 -0.0078 -0.0983
20324W        W35455   9.777  11.032   3.136 -0.1955  0.1754 -0.0673
20325W        W35456   6.613   7.301  16.879 -0.0263 -0.0760 -0.1518
20326W        W35457  15.420  13.877  12.377 -0.0268  0.2834 -0.1099
20327W        W35458   7.466   0.490  12.164  0.3407  0.2955 -0.0066
20328W        W35459   5.087   5.796   3.779  0.1878 -0.1301 -0.0515
20329W        W35460  13.564  15.044  12.912  0.2518 -0.4294  0.0282
20330W        W35461   2.221  14.268   4.056  0.4706 -0.0923  0.0391
20331W        W35462  10.434   3.741  16.289 -0.2477 -0.1889 -0.4132
20332W        W35463  14.625  16.671   2.169  0.2232 -0.1931 -0.1494
20333W        W35464   1.220   7.568   2.550 -0.3330  0.4052  0.0398
20334W        W35465   2.368  12.424  11.471 -0.1503  0.0843  0.1041
20335W        W35466   4.451  11.394   0.994 -0.1802 -0.3330  0.1020
20336W        W35467   3.575   8.951   4.409 -0.1014  0.1384  0.2348
20337W        W35468   0.826  16.217  12.465  0.1811 -0.2022  0.1477
20338W        W35469  17.079  11.425   4.762 -0.2341  0.1164 -0.1221
20339W        W35470   9.177  10.462  16.699  0.1464  0.0601  0.0588
20340W        W35471   8.014   3.185   1.801 -0.0720 -0.0428 -0.3306
20341W        W35472   0.220   8.992   3.136 -0.1011  0.0411 -0.3288
20342W        W35473   1.295   3.482   3.696 -0.0474  0.1225 -0.0397
20343W        W35474   8.036   9.142  13.215  0.1334 -0.0251 -0.1727
20344W        W35475  15.231  12.287  11.242  0.0644 -0.0059 -0.0538
20345W        W35476   6.330   9.288  11.808  0.3967 -0.3132  0.1077
20346W        W35477   1.181  13.098   5.170 -0.0641 -0.4502  0.0934
20347W        W35478   3.890   5.299   0.115  0.0599  0.1377 -0.2212
20348W        W35479   1.593  10.883  11.650 -0.0267  0.0998 -0.3116
20349W        W35480   9.078  11.087  16.922  0.0387  0.2123  0.1408
20350W        W35481  10.014   3.171   0.141 -0.0636  0.3942  0.1287
20351W        W35482   0.973   3.231  12.752 -0.4006 -0.0447 -0.0451
20352W        W35483   3.538   3.226   5.346  0.0999  0.1256  0.2312
20353W        W35484  10.877  12.814  14.779 -0.1638 -0.1592  0.0207
20354W        W35485   5.414  17.067  15.844  0.0710  0.0001 -0.2173
20355W        W35486   5.028  12.890   3.407 -0.0232  0.0544  0.0720
20356W        W35487  16.057  14.544   3.216  0.1997 -0.0855 -0.0782
20357W        W35488  16.816   1.485  15.637 -0.1258 -0.0139  0.0562
20358W        W35489   3.835  15.115   3.655 -0.0365 -0.1303 -0.1563
20359W        W35490  14.350  13.055  11.842  0.1536 -0.0818  0.2897
20360W        W35491   1.646   4.015  12.784 -0.2906 -0.2851  0.0451
20361W        W35492  14.224  16.816   4.829 -0.1686  0.2011 -0.1725
20362W        W35493   3.334   5.343   2.706 -0.0461 -0.0479  0.3223
20363W        W35494  10.842   9.132  13.214 -0.1583 -0.1491 -0.4931
20364W        W35495   9.665  11.362  16.190  0.1925 -0.2736 -0.0265
20365W        W35496   5.297  17.311   2.602 -0.0526 -0.1325 -0.0573
20366W        W35497   6.936   9.173   0.824 -0.0278  0.1817  0.1786
20367W        W35498  14.535  16.413   4.885  0.0896 -0.5359  0.1158
20368W        W35499   7.859  11.147  15.760 -0.0698  0.2261  0.2439
20369W        W35500  14.289   8.865   1.560 -0.1943 -0.0525 -0.1362
20370W        W35501   1.508   9.434  15.918  0.1814  0.1483  0.3470
20371W        W35502   9.069   5.266  12.123  0.0051 -0.0408  0.1169
20372W        W35503   5.859   9.779   0.717  0.2918 -0.0910 -0.1442
20373W        W35504  16.808   0.128  14.760  0.0082  0.2867  0.2318
20374W        W35505   8.016  13.581  13.729  0.1150 -0.1219 -0.0684
20375W        W35506  10.467   0.888  13.409 -0.0151 -0.2065 -0.1665
20376W        W35507  12.074   4.805   2.405 -0.0847  0.0409 -0.2784
20377W        W35508  16.391   6.087   2.935  0.2120  0.0415 -0.0081
20378W        W35509   9.478   0.558  12.413 -0.0311  0.1736  0.2733
20379W        W35510   2.168   7.666  11.734 -0.0544 -0.1603 -0.2833
20380W        W35511   1.321   2.834   1.230 -0.1666 -0.2468 -0.0747
20381W        W35512   0.761  13.319  12.927  0.0674 -0.2284  0.2980
20382W        W35513  13.041   6.742   1.592  0.0508 -0.1174 -0.0194
20383W        W35514   9.079  16.541  16.785  0.0353 -0.0381  0.1718
20384W        W35515   8.909   4.871   1.395 -0.0890 -0.2719 -0.0001
20385W        W35516   9.025  17.526  14.773 -0.2116  0.4008  0.1488
20386W        W35517   1.981   4.035  14.170  0.0185  0.1172  0.1383
20387W        W35518  15.656   0.345   4.396 -0.1741  0.1375 -0.2288
20388W        W35519  14.451  13.337  12.796  0.3640 -0.0214  0.1858
20389W        W35520  11.458  17.678  15.915  0.1305 -0.2555  0.0450
20390W        W35521  13.717   4.324  11.274  0.0549  0.0555  0.0079
20391W        W35522  13.098   9.997  11.955 -0.0668 -0.0489 -0.1090
20392W        W35523  12.148   9.467  12.431 -0.1566  0.0799  0.0083
20393W        W35524   6.534   6.476  12.472 -0.1167 -0.0479  0.2059
20394W        W35525   8.141   9.995   1.651 -0.4072 -0.2836  0.1363
20395W        W35526   1.489   5.883  15.691  0.0048  0.0026  0.0360
20396W        W35527   0.388  15.679  15.017 -0.0025 -0.0832 -0.0764
20397W        W35528  12.675  12.750  16.388 -0.0532 -0.1270  0.2407
20398W        W35529   6.623   9.456   3.944 -0.2321 -0.1549 -0.2680
20399W        W35530   0.853   7.644   3.376 -0.1149  0.3395  0.0781
20400W        W35531   8.693  12.241   2.640  0.0821  0.0077 -0.2937
20401W        W35532   8.067  13.073  12.721 -0.2039  0.3741 -0.1048
20402W        W35533  11.326  15.425  14.992 -0.0253  0.1484 -0.1898
20403W        W35534  11.663  12.879  12.880  0.2956  0.1614 -0.0784
20404W        W35535  15.492   0.143   1.602 -0.1099 -0.2884  0.0943
20405W        W35536  11.290  17.506   5.336 -0.0755 -0.0164 -0.1264
20406W        W35537   4.174   2.441   2.900 -0.1741 -0.2198 -0.0341
20407W        W35538   3.324   3.834   3.845 -0.1694  0.0682  0.0005
20408W        W35539  17.061   8.566  14.548 -0.1619  0.0019  0.2101
20409W        W35540   6.119   9.371   1.794 -0.0048  0.0603 -0.5156
20410W        W35541  17.148  16.660   2.744 -0.0955 -0.2447  0.1868
20411W        W35542  13.794   8.264   4.328 -0.2830  0.1988  0.1531
20412W        W35543   5.660  16.879   5.449  0.0107  0.1430 -0.2311
20413W        W35544   1.792   4.545  11.753  0.0921  0.1249 -0.2859
20414W        W35545  16.376   9.110   3.385  0.1421  0.1362 -0.2071
20415W        W35546   9.749   9.888  13.511 -0.0402 -0.0372 -0.5429
20416W        W35547   7.084  12.824  13.641 -0.0469 -0.1527 -0.1260
20417W        W35548   1.174  10.147  15.862  0.2836  0.0297 -0.2886
20418W        W35549  14.878  13.987   6.323 -0.0133  0.1063 -0.0517
20419W        W35550   5.513  17.030   0.379 -0.0024 -0.2007  0.0452
20420W        W35551  17.634  14.826   6.286  0.0211  0.3509 -0.1419
20421W        W35552  11.512  14.560   3.262  0.1709  0.0692  0.1204
20422W        W35553   3.212   8.134  16.534  0.0656 -0.0464  0.0004
20423W        W35554  12.261   8.714   4.989  0.0624 -0.1664  0.0836
20424W        W35555  15.530   5.460  15.345  0.1821  0.1043  0.0951
20425W        W35556   5.151  16.766   1.187  0.1620  0.1966 -0.0980
20426W        W35557  11.299   0.689  12.315  0.0231 -0.1267  0.1250
20427W        W35558   6.213   6.131  16.507 -0.0864  0.0991 -0.1941
20428W        W35559   4.451   5.969  12.194 -0.0613  0.1063 -0.1011
20429W        W35560  12.292   4.011   1.771 -0.3507  0.2695  0.0782
20430W        W35561   0.944   7.189   4.811 -0.0365 -0.0952  0.1748
20431W        W35562   2.596   5.129  15.402 -0.0532 -0.0970 -0.1467
20432W        W35563   9.170  10.997   3.076 -0.3456  0.1757  0.3106
20433W        W35564  15.611  12.357  15.759  0.0152 -0.0566  0.3245
20434W        W35565  13.985  11.145   0.560  0.1678  0.0740 -0.2820
20435W        W35566   5.613  10.520  15.922 -0.0969 -0.1645 -0.0000
20436W        W35567  17.310   5.297   4.672  0.0163  0.0835  0.0321
20437W        W35568   3.935  11.532   5.033 -0.0622 -0.2718  0.0630
20438W        W35569   6.683   9.489   2.748  0.1695 -0.3881 -0.2298
20439W        W35570  16.309   2.322  15.719  0.1820 -0.1332  0.0659
20440W        W35571   1.133   3.179   6.005 -0.2044 -0.1697  0.0024
20441W        W35572  15.743  13.313   3.984  0.1584 -0.3688  0.2512
20442W        W35573   1.204   0.434  11.886 -0.1900 -0.0435  0.1597
20443W        W35574  12.825   5.307   4.134 -0.0843  0.0986 -0.1467
20444W        W35575   7.204  11.900  12.677  0.2969  0.0145 -0.0415
20445W        W35576  15.149   6.770   5.325  0.0631  0.1367 -0.0573
20446W        W35577   6.646   9.905  13.562 -0.2060 -0.0187  0.0428
20447W        W35578  14.877   1.726  10.721 -0.0230 -0.4558  0.0205
20448W        W35579   5.957   3.518   3.331 -0.1904 -0.2422 -0.0036
20449W        W35580   5.641  16.159   4.334 -0.0620 -0.2356  0.1543
20450W        W35581  14.387  13.518  11.437  0.3219  0.0337 -0.1359
20451W        W35582  14.813  17.100   0.915  0.1383  0.2423 -0.1044
20452W        W35583   7.147   1.159   4.315  0.1270  0.0361  0.1350
20453W        W35584   4.724  11.465   2.025  0.1179  0.2259 -0.0960
20454W        W35585  11.380   2.740  12.300 -0.3267  0.0030 -0.0836
20455W        W35586   6.946   3.950   2.167 -0.1816  0.0749 -0.0299
20456W        W35587  11.163   6.290   2.965  0.1618 -0.3613 -0.1156
20457W        W35588   8.547   0.238   1.401  0.1304  0.0890 -0.1754
20458W        W35589   0.462   4.123   5.086 -0.1940 -0.0355 -0.0725
20459W        W35590   6.223  12.947   4.302  0.2789  0.1699  0.0570
20460W        W35591   2.733  10.538   1.753 -0.2924  0.3001  0.0600
20461W        W35592  10.080   7.568  13.945  0.2021 -0.2411 -0.1672
20462W        W35593   7.528   9.002  14.055  0.0741  0.1372  0.1797
20463W        W35594  16.389   1.632  13.334 -0.0616 -0.1497 -0.2617
20464W        W35595  14.926   9.159   5.838  0.1726 -0.0361  0.1442
20465W        W35596  15.003  16.699  12.156  0.1599 -0.1593  0.3791
20466W        W35597  14.666   2.192   3.163 -0.1038 -0.1103 -0.1632
20467W        W35598   3.778   4.314  14.091 -0.1967 -0.0358 -0.2032
20468W        W35599   8.664  16.471  16.410  0.1144 -0.0368 -0.2162
20469W        W35600  11.797  16.608  13.027  0.0532  0.2891 -0.0445
20470W        W35601  10.567   5.713   1.874  0.2167 -0.3172  0.2885
20471W        W35602  13.596  11.629  14.120  0.0449  0.0276  0.0340
20472W        W35603  16.364   9.526  15.906 -0.2448 -0.0404  0.0643
20473W        W35604   6.160  16.108   5.042  0.0806 -0.0528  0.2742
20474W        W35605  11.870   9.324  13.399  0.2472 -0.0297 -0.0369
20475W        W35606   1.718  14.980  16.097 -0.0998 -0.2339 -0.0365
20476W        W35607  12.817  11.128   1.383  0.0778  0.0001  0.0421
20477W        W35608   4.964   4.413  16.053  0.1796  0.0068 -0.1123
20478W        W35609   0.273   1.015   0.226 -0.3107 -0.1781  0.0662
20479W        W35610   9.905  11.834  16.139  0.2204 -0.2586  0.0500
20480W        W35611  12.255   1.643  14.960  0.0728  0.3629  0.4126
20481W        W35612   3.258   0.851  15.726 -0.2003  0.0034  0.0483
20482W        W35613  12.592  13.865  11.780  0.3696 -0.0049 -0.0858
20483W        W35614   9.219  13.838   1.197  0.1139 -0.0963  0.2416
20484W        W35615  11.296  15.711  14.532  0.1954 -0.0937 -0.1725
20485W        W35616  16.183  13.516  14.706 -0.0197 -0.0001  0.2031
20486W        W35617  13.188  16.350  14.401  0.0084 -0.1482 -0.1079
20487W        W35618   2.075   0.376   0.370 -0.1818  0.1228  0.0099
20488W        W35619   6.757   3.648  12.043 -0.1780 -0.1650 -0.0693
20489W        W35620  16.879   1.988  15.182 -0.0499  0.3692 -0.4883
20490W        W35621  15.547   1.908   5.711  0.2174 -0.0300 -0.3118
20491W        W35622   2.611   2.927  11.903 -0.0161  0.0600 -0.0069
20492W        W35623   7.055   3.306  13.619  0.0373 -0.2083 -0.1451
20493W        W35624   0.894   7.909  14.616 -0.1462 -0.3119 -0.1244
20494W        W35625  15.416   6.163   0.290  0.1206  0.0546  0.1680
20495W        W35626   4.591   3.046  13.500 -0.1937 -0.4275 -0.2522
20496W        W35627   9.255   5.636  14.849 -0.3020  0.1204  0.1284
20497W        W35628  10.963  15.659   1.340 -0.2977 -0.0985  0.2991
20498W        W35629   9.502  14.588  16.122 -0.1958 -0.0056  0.0512
20499W        W35630  15.068   5.907  15.271  0.0229 -0.1217  0.2379
20500W        W35631   4.529   2.317  13.190  0.2084  0.0686  0.0272
20501W        W35632   4.032   4.358   4.992  0.2104  0.2290 -0.0760
20502W        W35633   2.651   6.497  14.192  0.2330  0.1012 -0.1260
20503W        W35634   6.314  14.620  12.334 -0.1678 -0.0125 -0.0226
20504W        W35635  11.066   6.825  16.528  0.2961  0.0364  0.2880
20505W        W35636   5.567   4.548   5.498 -0.0895 -0.3872 -0.1212
20506W        W35637  10.438   4.413   4.278 -0.6453  0.2092  0.0706
20507W        W35638   8.202   3.578   1.531  0.2184 -0.0071 -0.2278
20508W        W35639  10.042   9.337  16.911  0.1515  0.0232  0.1966
20509W        W35640  15.120   7.557   0.242 -0.1289 -0.1302  0.5245
20510W        W35641   9.842  15.489   3.104 -0.0672  0.1547 -0.0247
20511W        W35642  15.189   4.935  10.725  0.1330  0.0268 -0.1529
20512W        W35643  15.707  12.737   3.848  0.0175 -0.1467  0.2201
20513W        W35644  17.573  11.742   0.270 -0.2977  0.1223  0.3248
20514W        W35645  10.884  11.979   5.049 -0.0459 -0.0582 -0.0457
20515W        W35646  12.562   0.478   3.293 -0.0644  0.1337  0.2764
20516W        W35647   8.986  11.552  12.470  0.2710 -0.0337 -0.0028
20517W        W35648  11.215   8.115   3.512 -0.2009 -0.2023 -0.0559
20518W        W35649   1.210   1.707   4.343  0.0512  0.1202  0.0009
20519W        W35650   5.186  13.893   1.342 -0.0509  0.1121  0.1957
20520W        W35651   6.057  16.271  12.814 -0.0324  0.0080  0.1493
20521W        W35652  11.008   9.678  13.400 -0.0317 -0.1113  0.0678
20522W        W35653  17.261  16.301  12.141  0.0243  0.0440  0.2939
20523W        W35654   1.650   6.736  12.751  0.4178 -0.0144 -0.4527
20524W        W35655   6.948   5.654   2.687  0.3357  0.3153  0.0670
20525W        W35656   8.944  10.913   4.665 -0.3105 -0.0654  0.1411
20526W        W35657   0.542  11.510   1.657  0.1743  0.2162  0.0842
20527W        W35658  12.534  10.808   3.439  0.2471  0.3323 -0.0074
20528W        W35659   4.673   4.507  11.298 -0.0005 -0.3397 -0.0462
20529W        W35660  10.621   1.840   4.862 -0.0027  0.3492 -0.1648
20530W        W35661   5.030   1.649   5.387 -0.0081  0.1050  0.1714
20531W        W35662  14.125   7.082   1.941  0.0755  0.0717  0.3205
20532W        W35663   5.611  10.975   3.297  0.0163 -0.2691  0.0381
20533W        W35664  11.133   9.509   4.322 -0.1383 -0.0388 -0.0229
20534W        W35665  13.329   7.204  13.219  0.2866  0.1688 -0.1005
20535W        W35666   1.340   5.754   3.800 -0.1325 -0.0530 -0.2133
20536W        W35667   8.091   1.909   5.859 -0.2411  0.0779 -0.0095
20537W        W35668  16.108   5.009   4.357  0.1341 -0.3315  0.0609
20538W        W35669   2.133   0.174  11.606  0.2567 -0.0060  0.0139
20539W        W35670   2.862   2.681   2.801 -0.1617 -0.0078  0.4032
20540W        W35671   1.610  16.884   2.333 -0.0437 -0.2393  0.1944
20541W        W35672  10.318   8.576   0.622  0.0046  0.2236  0.0926
20542W        W35673  11.817  12.108  16.937  0.0575 -0.2686 -0.1277
20543W        W35674  14.615   2.281  15.433 -0.0320 -0.1696  0.0681
20544W        W35675   5.566   6.895   3.998  0.1714  0.3717  0.1115
20545W        W35676   4.135   7.281  11.271  0.0141 -0.1543 -0.0593
20546W        W35677   7.343   5.301   2.672 -0.0425 -0.0770 -0.1058
20547W        W35678  16.368  10.792   3.581  0.0145 -0.0454  0.2608
20548W        W35679  16.652  13.220  11.878  0.0772 -0.0294 -0.1913
20549W        W35680  12.684   0.412  16.380 -0.1305  0.0515  0.0060
20550W        W35681  15.471   6.262  13.216 -0.0974 -0.1425 -0.0680
20551W        W35682   4.368  10.868  13.205  0.0093 -0.1654  0.0233
20552W        W35683   2.726   9.692  15.014 -0.0130 -0.3388  0.1170
20553W        W35684   2.977   7.736   4.241  0.0801  0.3002 -0.1040
20554W        W35685  13.117   4.479  11.930 -0.1286 -0.0670 -0.0472
20555W        W35686  12.718  13.645  12.251 -0.5057  0.1656 -0.0568
20556W        W35687  12.942   5.031   3.588  0.0729 -0.1432 -0.1067
20557W        W35688   2.404  10.821   1.924  0.0803  0.1514  0.0807
20558W        W35689   1.079   4.694   3.224  0.0119  0.0922 -0.2102
20559W        W35690  15.693   5.673   1.029  0.3451  0.2903 -0.1060
20560W        W35691   0.829   8.178  15.132  0.0212  0.0304  0.0912
20561W        W35692  13.274  11.641   0.196  0.2803  0.0795  0.1248
20562W        W35693   3.294   2.017  13.974 -0.1523  0.2071 -0.0335
20563W        W35694   8.028   6.327  13.071  0.0944  0.0677 -0.2303
20564W        W35695   5.440  13.144  16.042 -0.0330 -0.0999 -0.1145
20565W        W35696   0.892  15.834   0.896 -0.1000 -0.0601 -0.4916
20566W        W35697  16.325  13.633   2.055 -0.0437 -0.0733  0.2519
20567W        W35698  15.894  15.352   2.751 -0.3075  0.0839 -0.1103
20568W        W35699   2.926   1.703   2.519  0.3223  0.0606 -0.0394
20569W        W35700   3.442  17.070   1.513  0.4155 -0.2982 -0.2049
20570W        W35701   3.059   3.542   1.179  0.0620  0.0137 -0.0631
20571W        W35702  14.634  12.704  16.891  0.0370  0.0186 -0.1952
20572W        W35703   3.381   8.258  12.821 -0.4736  0.0627  0.0503
20573W        W35704   1.929   9.512   5.898  0.0692  0.0203  0.1366
20574W        W35705   1.564   5.064  12.317 -0.1853  0.2228 -0.4038
20575W        W35706   0.222  14.540   4.435 -0.0132 -0.0019 -0.1431
20576W        W35707   8.492   4.181  16.380 -0.2959  0.3092 -0.0354
20577W        W35708  14.764   7.306  15.637 -0.0951  0.1402  0.1677
20578W        W35709  10.721  16.912   5.341  0.3297  0.1041  0.1229
20579W        W35710   6.478  16.619  13.598  0.2531  0.2271  0.0514
20580W        W35711   4.864   2.307   4.382  0.0811  0.0355  0.0317
20581W        W35712  13.432  15.995  16.829 -0.3856 -0.2269 -0.1311
20582W        W35713  17.346  16.235  13.308  0.0148 -0.1175  0.0375
20583W        W35714  14.115  13.579   5.303  0.0983 -0.0345  0.2202
20584W        W35715  13.406  13.377   4.509 -0.2068 -0.0740 -0.1252
20585W        W35716   9.871  11.072   4.137 -0.2320  0.1152  0.1654
20586W        W35717  13.863  11.924  12.644  0.1078 -0.0088  0.0327
20587W        W35718  15.084  14.511   5.773 -0.0172  0.2304  0.2935
20588W        W35719   1.620   5.291   5.683 -0.0657 -0.2523 -0.1477
20589W        W35720  15.702  13.446   1.378 -0.1764 -0.3170 -0.0615
20590W        W35721   9.339   2.434  14.991  0.0877  0.1370 -0.1378
20591W        W35722  10.782  13.667  11.819 -0.0470  0.1013  0.2953
20592W        W35723  13.883   8.576  13.068 -0.0223  0.2542 -0.0641
20593W        W35724   6.522   2.386   2.141 -0.1342  0.2545 -0.0159
20594W        W35725  15.011   9.973  13.989  0.2329 -0.3812 -0.1825
20595W        W35726   1.236  10.982  13.388  0.1645  0.0383 -0.0799
20596W        W35727  11.860   9.435   2.016 -0.0526 -0.1392 -0.0212
20597W        W35728  14.767  10.288   3.391  0.0018 -0.1083 -0.1635
20598W        W35729  15.162  13.960   4.059 -0.2174 -0.1625 -0.1047
20599W        W35730   1.796   5.612  15.917 -0.1075 -0.2697 -0.2461
20600W        W35731   0.751  16.200  16.256  0.2090  0.0073  0.0591
20601W        W35732  17.163  15.033  14.741  0.3824 -0.1057 -0.2477
20602W        W35733   7.424  10.448   5.424 -0.1176 -0.3291  0.1167
20603W        W35734   7.546   7.020  15.692 -0.0639  0.0249  0.0486
20604W        W35735  16.851   2.835  15.031  0.1778  0.0363  0.0546
20605W        W35736  16.562  13.045   5.536  0.0773  0.0591  0.0461
20606W        W35737  10.001   9.582   0.537  0.0948 -0.0818  0.1588
20607W        W35738  17.545   3.557  11.166  0.3202 -0.0310 -0.4258
20608W        W35739  10.727   6.657  14.260 -0.1685  0.2367  0.3657
20609W        W35740  11.417  11.496   0.485 -0.0968  0.1634 -0.0493
20610W        W35741   9.822   2.285   2.284  0.2836 -0.0389  0.2990
20611W        W35742   0.755   2.403  13.665  0.1717  0.2949 -0.0051
20612W        W35743   6.109   8.747  13.761  0.1508  0.0752  0.1004
20613W        W35744  11.483   6.535   2.525 -0.0343  0.3134  0.1370
20614W        W35745   5.065  14.489  12.590  0.2416  0.0571 -0.1706
20615W        W35746  16.905  16.816  13.770  0.0976  0.1618  0.1373
20616W        W35747  17.705   5.672   5.830  0.0035 -0.0069  0.0529
20617W        W35748  12.116  10.415  12.436  0.3723  0.3192 -0.3219
20618W        W35749   1.939   2.310  12.937  0.1806  0.0991  0.2531
20619W        W35750   4.485  16.960   6.335 -0.2997  0.0709 -0.0770
20620W        W35751   8.091  11.929  14.339 -0.1118 -0.0156 -0.2248
20621W        W35752   7.483   7.871  12.853 -0.1630 -0.3189  0.0186
20622W        W35753  10.159  11.315   0.989 -0.1682 -0.2461  0.3739
20623W        W35754  11.837   7.876  10.143 -0.2123  0.0573  0.0831
20624W        W35755   1.179  17.146  11.931  0.0457  0.0422 -0.4414
20625W        W35756  12.831   4.368   3.406 -0.2213  0.1259  0.1256
20626W        W35757   6.102  10.153  14.831  0.1381 -0.2071  0.1060
20627W        W35758   3.642  12.755   6.205 -0.0646  0.0603 -0.1168
20628W        W35759   4.442  16.040   5.203  0.1689  0.0124 -0.1062
20629W        W35760  10.640   5.532   3.356  0.0769 -0.0478  0.1012
20630W        W35761   5.171   5.718   2.472  0.0430 -0.3591 -0.2494
20631W        W35762   7.313   7.520  10.739  0.1339 -0.0685  0.4156
20632W        W35763   5.272  10.582   3.381 -0.3245 -0.0837  0.1469
20633W        W35764   9.181   7.600  10.566  0.0868  0.3006 -0.0378
20634W        W35765  13.141   9.031   0.801  0.0612 -0.0410  0.0037
20635W        W35766  10.203  12.455   3.254  0.1729 -0.1306 -0.0263
20636W        W35767   3.561   7.808  14.656  0.0132 -0.1953  0.1464
20637W        W35768   5.854   0.546   3.418 -0.0212  0.1558 -0.1139
20638W        W35769   0.456   7.080  12.348  0.1939 -0.0443 -0.2977
20639W        W35770   2.926   1.741  15.136  0.3027  0.0478  0.2453
20640W        W35771   8.362   2.159   1.741  0.1016 -0.1670  0.0421
20641W        W35772  17.396  14.436   2.485  0.0633 -0.1464 -0.1816
20642W        W35773   5.873  14.385  14.948  0.2432 -0.2704  0.0453
20643W        W35774   9.222  16.909  13.276  0.1298  0.1812 -0.1470
20644W        W35775  13.216   4.644   0.505  0.0187 -0.3756 -0.3450
20645W        W35776  15.719  10.632   5.828  0.0141  0.1832 -0.0794
20646W        W35777   4.514  12.714   3.873  0.0261 -0.3081 -0.0713
20647W        W35778   9.359  15.491  16.451 -0.0753  0.0765 -0.0498
20648W        W35779   8.602   5.713  12.757  0.1898 -0.1147  0.2455
20649W        W35780   7.557   9.203  15.220 -0.1741 -0.1118 -0.0966
20650W        W35781   0.059   9.298  14.289  0.2604 -0.2884 -0.0435
20651W        W35782   0.532   6.273   2.543 -0.2618 -0.3352  0.5172
20652W        W35783   7.367  14.761   3.588 -0.0936 -0.1104 -0.0537
20653W        W35784   1.519  12.892   1.506  0.1033  0.0291 -0.1981
20654W        W35785   1.647   1.472  15.759  0.0801 -0.2550 -0.0386
20655W        W35786   0.831   8.161   2.201  0.2806  0.1920  0.1012
20656W        W35787  13.368   4.794  13.683  0.1311 -0.2698 -0.3854
20657W        W35788  15.462   8.260  11.322 -0.1230  0.1188  0.1722
20658W        W35789   7.097  10.173  13.362  0.0930 -0.1617 -0.2906
20659W        W35790  17.624   1.287  10.917  0.0150 -0.3830 -0.2769
20660W        W35791   9.950  10.720   5.180  0.0017  0.0116  0.2274
20661W        W35792  13.344   2.647   4.438  0.0432 -0.1984 -0.0229
20662W        W35793  16.205  12.957  11.805  0.1982 -0.1828 -0.1982
20663W        W35794   8.889  16.133  13.224  0.2144  0.2215  0.0243
20664W        W35795  12.786  17.187  15.634 -0.7753 -0.2256 -0.0893
20665W        W35796   9.823   3.672  12.574  0.0474  0.2107  0.0837
20666W        W35797   3.113   0.989   2.163  0.0047  0.3223  0.2081
20667W        W35798   3.973  12.522  13.835  0.0299  0.0687  0.2739
20668W        W35799  16.395   8.088   0.231  0.1858  0.2459  0.2010
20669W        W35800   8.433  15.379   3.075 -0.0636 -0.1238  0.1321
20670W        W35801   7.886   1.583   3.444 -0.1853 -0.0307  0.1985
20671W        W35802   0.571   4.823   2.159  0.0212 -0.2165 -0.0964
20672W        W35803   9.759   2.194  15.104 -0.0402 -0.1651  0.0012
20673W        W35804  14.595  13.540  11.936  0.1105 -0.2172  0.0956
20674W        W35805   3.870   4.782  12.058  0.1178  0.2535  0.2626
20675W        W35806   6.857   1.168   3.924 -0.0790 -0.1388  0.0820
20676W        W35807  14.609   5.291   2.985 -0.0679 -0.0327 -0.0187
20677W        W35808  16.265  17.195   0.674  0.1111  0.0592 -0.0240
20678W        W35809  12.955   2.190  15.788  0.0014  0.1646  0.0238
20679W        W35810   5.526   8.187   1.660  0.4495 -0.0610 -0.0559
20680W        W35811  10.557   4.662   3.509  0.0823  0.2026 -0.1147
20681W        W35812   1.266  15.555   5.574 -0.0125  0.0070  0.0560
20682W        W35813   4.489   2.224  11.251 -0.2163 -0.2572  0.1366
20683W        W35814  12.991  17.545   1.711  0.0247  0.0851 -0.1274
20684W        W35815   0.252  14.790  12.870  0.0131  0.2921 -0.0011
20685W        W35816   2.743  16.873  16.567 -0.3119 -0.1773 -0.1672
20686W        W35817   6.373   0.980  11.891 -0.2124 -0.1879 -0.2793
20687W        W35818   1.958   6.823   4.096  0.1220  0.0149 -0.3990
20688W        W35819   6.399   6.449  10.907 -0.0175  0.2061 -0.0910
20689W        W35820  13.241   5.243  12.940 -0.3135 -0.3007  0.1891
20690W        W35821  15.682  13.981  15.455  0.1170  0.0545  0.0111
20691W        W35822   8.962   3.276   2.083 -0.0044  0.0403  0.1867
20692W        W35823  16.535  10.790  12.338 -0.2365 -0.1003  0.0319
20693W        W35824   4.965  14.606   4.223  0.2606 -0.2750 -0.1153
20694W        W35825  14.214   1.873   2.452  0.0698  0.2527 -0.2920
20695W        W35826  11.246   6.463  15.016  0.0024  0.0961  0.2036
20696W        W35827   3.778  13.932   6.069 -0.1276 -0.3074 -0.0849
20697W        W35828   8.577  16.121  15.990  0.1782  0.1139  0.4023
20698W        W35829   9.813   4.342  12.718  0.0377 -0.0511  0.0099
20699W        W35830   7.355   2.952   3.536 -0.0546 -0.1681 -0.2933
20700W        W35831  13.509   4.770  12.326  0.0350  0.1032 -0.0898
20701W        W35832   3.497  13.460  14.809  0.1736  0.0062  0.1035
20702W        W35833  13.675  12.381   0.626 -0.0320 -0.0866 -0.1414
20703W        W35834  11.195   8.905   5.156  0.0709  0.1853  0.2850
20704W        W35835  15.960  14.316  15.237 -0.0338  0.0700 -0.2253
20705W        W35836   1.242  17.435  14.246 -0.0310 -0.1139  0.1481
20706W        W35837   7.993  14.049  15.238 -0.0393 -0.2150 -0.2298
20707W        W35838  14.505  13.156  16.733  0.3550  0.0890 -0.0305
20708W        W35839   6.902  10.490   4.159 -0.2337  0.0491  0.2863
20709W        W35840  17.432  17.207   5.252  0.3200  0.0509  0.3405
20710W        W35841  15.882  16.584  13.821 -0.2073  0.1828  0.0588
20711W        W35842  12.814  15.206  14.418  0.0721  0.1144  0.1677
20712W        W35843   3.592   3.486  14.814  0.0150 -0.1361  0.0109
20713W        W35844  12.214  15.982  13.898  0.3661 -0.0911 -0.0678
20714W        W35845   7.283   7.427   4.436  0.2104 -0.2506 -0.1609
20715W        W35846   6.226   2.130   0.879  0.1892  0.0228  0.1080
20716W        W35847   7.248  11.963   3.336  0.2471  0.3218 -0.0067
20717W        W35848   4.348   7.598  13.012 -0.0530 -0.2230  0.0991
20718W        W35849   5.527  16.813   1.959  0.2275 -0.1284 -0.0680
20719W        W35850   0.355   5.131   0.980 -0.0348  0.2804  0.0552
20720W        W35851   1.304  13.546   0.043  0.1062  0.1136  0.0395
20721W        W35852   9.375  12.177   4.369 -0.0409  0.0378 -0.0356
20722W        W35853   9.920   5.834   4.529  0.0902 -0.1742 -0.1936
20723W        W35854   5.231   2.600  15.057 -0.0766 -0.0276 -0.0658
20724W        W35855  17.167  17.080   4.059 -0.1055 -0.3568  0.0254
20725W        W35856   1.121  14.074  12.230 -0.2436  0.0287  0.0786
20726W        W35857  12.805   7.564   0.733 -0.4421  0.0755 -0.2446
20727W        W35858   4.016  14.969  16.534  0.0429 -0.0076 -0.2730
20728W        W35859   1.435  14.896   6.269  0.0929 -0.1469 -0.3895
20729W        W35860   6.756  14.830  11.825  0.2671  0.1329 -0.0511
20730W        W35861  12.407   5.038   0.879 -0.0441 -0.3403 -0.1159
20731W        W35862   1.744   1.761   4.086 -0.2406  0.3288  0.0504
20732W        W35863  14.629  17.318   4.742 -0.0941 -0.0288 -0.1414
20733W        W35864  11.374  16.336   3.999  0.1784  0.0663 -0.2735
20734W        W35865  16.268   5.718  12.215  0.0403  0.1604 -0.2146
20735W        W35866   5.314  12.105  14.116  0.0265 -0.0988 -0.0429
20736W        W35867  12.735   4.042   1.511  0.1546 -0.1103  0.0390
20737W        W35868  10.760   1.615   5.761 -0.0874  0.0825  0.1393
20738W        W35869  11.417  13.720  12.729 -0.1875  0.2364  0.3454
20739W        W35870  14.945  10.350  16.593  0.0383 -0.1310  0.0007
20740W        W35871   0.203   3.464   5.870 -0.0827 -0.2763  0.0015
20741W        W35872   3.839   2.109   4.064  0.0498 -0.1159 -0.3074
20742W        W35873   3.279  12.069  16.170 -0.0528 -0.0718 -0.0080
20743W        W35874  13.085   2.433  13.302  0.2264  0.0798  0.1590
20744W        W35875   6.077  17.035  16.523  0.1744  0.1105  0.1363
20745W        W35876  17.499  11.740  13.058  0.2862 -0.1979 -0.3447
20746W        W35877   8.801  14.164  11.344 -0.0481 -0.4803  0.0151
20747W        W35878  10.751   3.394   3.779  0.1370 -0.0781 -0.2221
20748W        W35879   9.307   0.483   6.296 -0.1215 -0.1111  0.1865
20749W        W35880   1.864   4.545  12.298 -0.0350  0.1847  0.1192
20750W        W35881   6.711   8.013  11.246  0.3908 -0.1336 -0.0680
20751W        W35882   0.186   9.607  13.166 -0.2793 -0.1604 -0.1081
20752W        W35883  17.409   8.684   4.331  0.1786  0.0979 -0.2628
20753W        W35884  10.506  12.766  13.721 -0.1032  0.0910 -0.0485
20754W        W35885   7.361  13.752   0.681 -0.0603  0.2383  0.0394
20755W        W35886   0.647   2.318  15.715 -0.0108 -0.1151  0.0833
20756W        W35887   3.731  12.836   3.657 -0.0999 -0.2051 -0.0766
20757W        W35888   8.167  12.861  15.492  0.0627  0.1555  0.1658
20758W        W35889   7.959  13.887   5.150 -0.2865 -0.4494 -0.0238
20759W        W35890  13.152  12.363  13.774 -0.0581 -0.2115  0.1648
20760W        W35891  10.080   6.138   1.402 -0.2799 -0.0227  0.1079
20761W        W35892   4.583  10.206   5.248  0.2166  0.0658 -0.3216
20762W        W35893   5.897  12.343  14.921  0.2085 -0.1110 -0.0921
20763W        W35894  14.454   3.009   2.317 -0.1131 -0.0490 -0.1221
20764W        W35895   5.273   8.654  14.217  0.3409  0.0971 -0.1444
20765W        W35896  17.072  10.474  11.685 -0.4531  0.1287  0.1292
20766W        W35897  15.844   3.166   4.024  0.2402 -0.0474 -0.1679
20767W        W35898   3.364   7.867   3.038 -0.0068 -0.0679  0.0386
20768W        W35899   3.376  15.570   0.423  0.2869  0.0576  0.3652
20769W        W35900   6.847   4.335   1.820 -0.3219 -0.0584 -0.3772
20770W        W35901  13.516  14.631   1.809  0.1105 -0.0944  0.0666
20771W        W35902   8.217   0.946   0.489  0.0040  0.1623  0.2059
20772W        W35903  10.412  14.068   2.883 -0.1800 -0.1325 -0.1564
20773W        W35904   0.633   6.982  13.931  0.1023  0.4920 -0.0420
20774W        W35905   1.419   4.199   1.436  0.2003 -0.1721  0.1695
20775W        W35906   3.805  12.785  16.108  0.1459  0.0391  0.0311
20776W        W35907   1.137  14.257   0.942  0.2934 -0.0375  0.2494
20777W        W35908   6.590  15.878  14.055 -0.0267 -0.0790  0.0194
20778W        W35909  13.882   2.995  14.454 -0.0456  0.1397  0.1189
20779W        W35910   3.760   9.890   5.566  0.0066  0.1979 -0.2005
20780W        W35911  12.713   4.352   2.362  0.1747 -0.0742 -0.0453
20781W        W35912   4.570  13.043   1.140  0.0341  0.2365 -0.1818
20782W        W35913   6.615   8.964  14.620  0.1820  0.2774 -0.2941
20783W        W35914  12.287   7.237   1.841 -0.0937 -0.0363  0.0633
20784W        W35915  15.379   6.076   3.303  0.2239 -0.1582 -0.2589
20785W        W35916  15.440   9.003  11.319 -0.0276 -0.2675  0.0945
20786W        W35917   9.447   7.690   4.407  0.0657 -0.1304  0.1916
20787W        W35918  10.647   1.258   4.947  0.2712  0.1621 -0.1592
20788W        W35919  12.039  11.059   4.186 -0.0542  0.2094  0.2811
20789W        W35920   6.704   5.031   4.730  0.0792  0.0741  0.0558
20790W        W35921   9.102   7.627  13.763 -0.1157  0.1180 -0.1059
20791W        W35922   8.461   1.964   0.089 -0.1981 -0.2023 -0.0574
20792W        W35923  10.337   6.933   3.756  0.0582  0.0169 -0.2913
20793W        W35924   0.127  12.237  14.443  0.0905  0.0797  0.1557
20794W        W35925   4.156   3.756   4.975  0.0770 -0.2723  0.2561
20795W        W35926   8.621   9.782  11.397  0.2433  0.0682 -0.1611
20796W        W35927  17.388  15.065  15.199  0.0090  0.0980  0.3437
20797W        W35928   9.029   7.367   4.415 -0.3758  0.2158  0.1580
20798W        W35929   5.795  13.971  15.233  0.1551 -0.4025 -0.0713
20799W        W35930   3.240   3.266  16.548  0.0328  0.1496  0.0289
20800W        W35931  13.185   9.484  14.454 -0.2095  0.0197 -0.1615
20801W        W35932  16.356   1.156  11.678 -0.0694  0.1586  0.0238
20802W        W35933   3.694  15.289  13.256 -0.0863 -0.1121 -0.0490
20803W        W35934   7.440  11.129   2.278 -0.2867  0.1774 -0.2386
20804W        W35935   8.554  12.859   2.325  0.0567  0.1315 -0.1029
20805W        W35936   0.391   1.342   4.589  0.2358 -0.0516 -0.1124
20806W        W35937  15.905   8.822  12.926 -0.1873  0.2089  0.2026
20807W        W35938   6.837   6.937   1.383  0.2455  0.1087 -0.1146
20808W        W35939  14.029  15.963   6.423 -0.2931 -0.3459  0.3024
20809W        W35940   8.329  16.025  12.309 -0.2776 -0.0425 -0.0829
20810W        W35941   2.829  16.328  15.184 -0.0257  0.0788  0.3723
20811W        W35942   9.445   1.558   0.575  0.2105 -0.1633  0.3017
20812W        W35943   2.247  14.857   3.172 -0.1066 -0.1072  0.0491
20813W        W35944   2.714   0.130  14.314 -0.2213 -0.4357 -0.1201
20814W        W35945   4.328   3.675  15.236  0.0813  0.1201 -0.0792
20815W        W35946  13.895   3.229   6.007 -0.1917 -0.1004 -0.0177
20816W        W35947   4.493  16.568   5.091 -0.0890  0.2286  0.0025
20817W        W35948   6.774  17.428   1.631 -0.3212 -0.1094 -0.4300
20818W        W35949   5.370   6.948   0.375 -0.0704 -0.1473  0.0582
20819W        W35950   3.811   8.866   0.974  0.1598 -0.1245 -0.0890
20820W        W35951   1.348   5.627   3.255 -0.1512 -0.0885 -0.0143
20821W        W35952   0.539  10.094   0.640  0.0702  0.1023 -0.4707
20822W        W35953   4.075  12.500   3.835 -0.3204 -0.2029  0.0648
20823W        W35954  14.827  13.516   1.481 -0.0333  0.0699 -0.2305
20824W        W35955  10.324   5.260   1.947  0.1472  0.0734  0.3223
20825W        W35956   5.903   1.991   4.986 -0.1848  0.2134  0.0551
20826W        W35957   2.724   6.799   3.800  0.5280 -0.0310 -0.2430
20827W        W35958  13.356   9.475  16.838 -0.1504 -0.0618 -0.1402
20828W        W35959   9.100   7.671  16.555 -0.2343  0.1252  0.1002
20829W        W35960  15.504  16.428  14.180 -0.0530 -0.2015  0.1998
20830W        W35961   8.916   1.906   5.491  0.1120 -0.2490 -0.0376
20831W        W35962   2.184  16.786  12.731 -0.2113  0.3039 -0.1110
20832W        W35963  13.346  17.266  14.028 -0.0213  0.3445  0.1051
20833W        W35964   6.819   0.227   0.930 -0.1701 -0.0442 -0.1632
20834W        W35965   0.525   3.443  10.310 -0.0139  0.0777  0.2271
20835W        W35966   6.147  14.746  14.270 -0.0499 -0.2057  0.0349
20836W        W35967   3.213   3.112   4.368 -0.1265  0.0511 -0.0555
20837W        W35968  14.923   5.185   1.199 -0.2742 -0.2164 -0.0326
20838W        W35969  15.641   5.109   5.043  0.0354  0.1259  0.2663
20839W        W35970  14.195   2.857  16.097  0.0354  0.0141  0.3624
20840W        W35971   2.654   1.904   4.607  0.2758  0.3375 -0.0069
20841W        W35972   7.032   5.532  13.341  0.1843 -0.0638  0.0187
20842W        W35973  13.294  10.723   5.205  0.0375 -0.2421  0.0347
20843W        W35974  12.562  16.292  15.963 -0.1794  0.1247  0.0413
20844W        W35975   4.062   0.978   5.882  0.1435  0.0345  0.1848
20845W        W35976   8.884  12.216  16.620 -0.2026 -0.2593 -0.0086
20846W        W35977  16.501   5.410  11.083  0.1237 -0.0672 -0.2439
20847W        W35978   2.188   1.074  15.255  0.2176  0.2984 -0.0225
20848W        W35979   6.129   6.312   1.369 -0.0585 -0.0252  0.1689
20849W        W35980   4.216   7.655   2.141  0.1998  0.0735  0.1962
20850W        W35981   7.293  15.934  13.514  0.1291 -0.0035 -0.0035
20851W        W35982   1.766  11.808   4.743 -0.3405  0.1706 -0.0925
20852W        W35983   9.004   6.236  13.414 -0.0073 -0.1366 -0.1816
20853W        W35984  14.822  15.417  15.578  0.2789  0.0710 -0.0689
20854W        W35985  10.142  13.290   1.180 -0.0448  0.1259 -0.4182
20855W        W35986   8.143  13.970   3.607 -0.2626  0.0308  0.3862
20856W        W35987   4.491  14.878  16.024  0.1054  0.0452  0.2759
20857W        W35988   1.224   1.742   4.850  0.1645  0.4290 -0.0385
20858W        W35989  16.823   9.971   5.514  0.2005  0.0269  0.0184
20859W        W35990  15.054  16.597  14.270  0.1834 -0.0644 -0.1867
20860W        W35991   6.290  11.604   1.835 -0.1779 -0.0772 -0.3134
20861W        W35992  11.130   1.911  13.339  0.0920  0.1451  0.1939
20862W        W35993   4.997  13.489   2.280 -0.1516  0.4561  0.0384
20863W        W35994   1.949  17.645  12.886 -0.0561 -0.1284 -0.1398
20864W        W35995  10.337  15.589   4.122  0.2420 -0.0707 -0.0082
20865W        W35996   0.997   0.122  12.926  0.3107  0.1869 -0.0957
20866W        W35997   9.530  14.593  15.303 -0.1664  0.2146  0.0964
20867W        W35998   8.602   5.467   4.202  0.0241 -0.0270  0.2898
20868W        W35999   6.670  12.303   0.788 -0.1266 -0.2748 -0.1185
20869W        W36000  13.679  11.425  12.643 -0.3155 -0.0145  0.2063
20870W        W36001  13.069  11.725  14.921  0.0753  0.3421 -0.0695
20871W        W36002  10.226   2.511  12.871 -0.0167  0.2231  0.0287
20872W        W36003   1.664   7.718  12.782  0.0439  0.1458 -0.1203
20873W        W36004   0.200   7.055  11.538  0.2741 -0.0188  0.1741
20874W        W36005   2.003  12.267   0.420  0.1177  0.2013 -0.0624
20875W        W36006   0.771   0.937   3.766  0.1552 -0.1363  0.0761
20876W        W36007  17.142   6.140   4.414  0.1274 -0.0600  0.0882
20877W        W36008   0.475   2.065   1.851 -0.2532  0.1179  0.0602
20878W        W36009   6.994   9.073   4.850 -0.0614 -0.1012  0.1143
20879W        W36010  16.293  15.871  12.341  0.1113  0.1145 -0.2690
20880W        W36011  14.480  15.189   3.323  0.2248 -0.3070  0.4001
20881W        W36012  17.271  14.133   1.917  0.2111  0.2020  0.0645
20882W        W36013   8.812   7.405   4.891 -0.0865  0.0727 -0.0082
20883W        W36014   3.395   0.423   1.192  0.2532  0.2814 -0.0387
20884W        W36015   4.048  10.474   0.497  0.0670 -0.0536 -0.1097
20885W        W36016   2.145  17.243   0.066  0.0717  0.2437 -0.0127
20886W        W36017   7.971   5.466  14.752 -0.2459  0.0894  0.0040
20887W        W36018  12.865   7.910   3.383 -0.0088 -0.1024 -0.3010
20888W        W36019   1.654   4.365  14.041 -0.1012 -0.0641 -0.0382
20889W        W36020  12.105  11.210   0.259  0.1640 -0.1641  0.0210
20890W        W36021   9.467  12.020   3.185  0.0966  0.0571  0.2726
20891W        W36022  11.980   9.361  13.960  0.0735  0.2840 -0.3228
20892W        W36023  14.777   8.015  13.002  0.0401  0.0870 -0.0914
20893W        W36024   3.504   9.166  10.265 -0.4714  0.0945  0.0645
20894W        W36025  10.388   3.231   3.099  0.1804  0.2920 -0.2146
20895W        W36026   4.474   5.909  14.735 -0.0568  0.0423 -0.0444
20896W        W36027   4.565  17.655  16.628  0.1648 -0.0994  0.1090
20897W        W36028   5.366   6.190  11.746 -0.3822 -0.0591  0.0888
20898W        W36029  15.507  12.410   5.189  0.1757  0.0424  0.2610
20899W        W36030  10.238   8.711  14.668 -0.0174  0.0356 -0.2583
20900W        W36031   1.565  15.926  11.862 -0.2152 -0.0192  0.2642
20901W        W36032   6.166  10.196   0.269 -0.1261 -0.0662 -0.0344
20902W        W36033  16.566   3.522  14.796  0.1699 -0.2704  0.1407
20903W        W36034  10.603  16.469   2.716  0.0577  0.0305  0.1352
20904W        W36035  15.160   8.742   0.209  0.0547  0.0213 -0.1771
20905W        W36036  15.160   8.435   4.828  0.2429  0.1636 -0.3110
20906W        W36037   3.943   2.692   1.910  0.1296  0.3371 -0.0137
20907W        W36038   7.588   9.331   2.048 -0.1107 -0.0168 -0.2411
20908W        W36039  11.409  11.824  10.496  0.0769  0.1383 -0.0336
20909W        W36040   2.841   3.825   3.817  0.1151 -0.0290  0.1054
20910W        W36041  16.178  11.834   4.812  0.3092  0.0889 -0.2187
20911W        W36042   3.832   5.597   3.104 -0.0790  0.1535 -0.0018
20912W        W36043   4.544  15.988   6.638  0.1036  0.4940  0.1259
20913W        W36044   2.230  12.426  15.101  0.0441 -0.0216 -0.0395
20914W        W36045  14.297   7.750  11.766  0.0420 -0.2183 -0.0967
20915W        W36046   4.704   5.353  16.198 -0.1189 -0.0269  0.3481
20916W        W36047   0.431   9.616   0.974 -0.2465 -0.0770 -0.1672
20917W        W36048   0.949  11.869   0.315 -0.1801  0.0165  0.0607
20918W        W36049  15.135  10.479  11.414 -0.1001 -0.0364  0.1366
20919W        W36050   3.781   1.357   1.602  0.0426  0.1618 -0.0432
20920W        W36051   7.762   5.845  11.244  0.0681  0.0412 -0.1606
20921W        W36052  11.949   9.615   3.105 -0.0160 -0.2490 -0.1657
20922W        W36053   7.417   5.221  14.642 -0.0313 -0.0876 -0.1260
20923W        W36054  15.077   1.035  12.147  0.0766  0.1590  0.1306
20924W        W36055   7.263  14.146   0.961 -0.1602  0.0906 -0.2985
20925W        W36056  14.176   7.968  11.363  0.0440  0.1359  0.1130
20926W        W36057  14.463   4.494   5.424 -0.3615  0.0857  0.0268
20927W        W36058   8.820   0.848   1.977 -0.0005 -0.0673  0.0840
20928W        W36059   7.918  15.134  13.244 -0.0803  0.0309 -0.0821
20929W        W36060   7.766   7.048  12.391  0.1625 -0.1430  0.0973
20930W        W36061  16.458   2.593   3.316 -0.2229 -0.0024 -0.3310
20931W        W36062   5.878  17.049  15.483 -0.1693 -0.0902 -0.1239
20932W        W36063  15.723   2.064  11.762 -0.1705  0.1807  0.0423
20933W        W36064   7.918   4.751   5.749 -0.1228  0.1510  0.0089
20934W        W36065   8.068   2.575  12.256  0.0700  0.0506 -0.0172
20935W        W36066  10.565   7.647   1.861 -0.1138 -0.1106 -0.2121
20936W        W36067   4.854  12.139  11.799  0.1474  0.0767 -0.0565
20937W        W36068   2.330  11.140  14.955  0.1452 -0.0451 -0.1088
20938W        W36069   7.651   1.681  12.938 -0.1715 -0.1346 -0.0010
20939W        W36070  16.703   0.518   1.704  0.0243 -0.2884  0.1605
20940W        W36071  14.625   1.071   3.976 -0.1410  0.1877  0.0428
20941W        W36072  16.393   7.354   2.130  0.0270  0.0686  0.2413
20942W        W36073  11.311  16.451   5.669 -0.0263 -0.1819  0.0027
20943W        W36074  12.861   8.998  13.335 -0.0511  0.0671  0.0607
20944W        W36075   4.781   9.272   1.889 -0.0356 -0.0230 -0.0861
20945W        W36076  10.578  11.764  13.889  0.3959  0.1867 -0.0054
20946W        W36077   9.119   2.739  13.081 -0.0236  0.1514  0.1020
20947W        W36078   9.931  16.777   2.226  0.1912 -0.0314 -0.2897
20948W        W36079   2.768   1.600   0.328  0.0829  0.2329  0.1086
20949W        W36080   1.204  12.870   2.699  0.3737 -0.2865 -0.2390
20950W        W36081   3.945  17.426  16.210 -0.1838 -0.1671 -0.0427
20951W        W36082   9.611  14.948  14.213 -0.0861  0.0776 -0.1445
20952W        W36083   7.397   6.019   3.046  0.3071 -0.2307  0.0748
20953W        W36084   1.600  14.427   2.154  0.0657  0.1752  0.1749
20954W        W36085  17.204  10.798  15.943 -0.0446 -0.2972  0.2435
20955W        W36086  17.143  16.868   3.607  0.0600 -0.3458 -0.2757
20956W        W36087  14.995  11.507   0.354  0.0338  0.2426  0.2387
20957W        W36088  12.834   1.708  13.559 -0.0307 -0.2869  0.1519
20958W        W36089   1.687  17.213   0.553  0.4292 -0.1138  0.2100
20959W        W36090  14.585   5.930   4.457 -0.0760 -0.0960  0.1357
20960W        W36091   1.026  12.647   5.335 -0.1026  0.2301  0.0082
20961W        W36092   9.485   5.541   3.767  0.0529  0.0649  0.0901
20962W        W36093  15.260   4.864  14.080 -0.3532 -0.0809  0.2672
20963W        W36094   2.066   1.273  16.546  0.0350  0.2477 -0.0031
20964W        W36095  14.672  11.886  14.481 -0.0933  0.1218 -0.1513
20965W        W36096  16.102  12.768   1.099  0.1492  0.1139 -0.3338
20966W        W36097   5.958   5.773   3.910 -0.3687 -0.2201 -0.0001
20967W        W36098  16.281   9.597   4.676  0.1897 -0.1344  0.3926
20968W        W36099   2.578  14.820  12.894 -0.1030 -0.0931 -0.0135
20969W        W36100  10.449  17.595  13.546  0.0278  0.2962  0.0709
20970W        W36101  10.219   4.794  14.321  0.2651  0.2003 -0.2204
20971W        W36102  10.176   7.917   5.781  0.3004 -0.1061  0.0968
20972W        W36103  17.244   2.677  15.923 -0.2462 -0.1850 -0.1163
20973W        W36104   3.797   2.040   3.504  0.0848  0.0553 -0.0611
20974W        W36105   2.554   2.316  11.262  0.1672  0.0843  0.1703
20975W        W36106  10.229  11.931   3.962  0.1070  0.0577  0.1210
20976W        W36107   7.137   7.479  11.211 -0.0010 -0.1639 -0.0068
20977W        W36108   3.242   6.252  13.174  0.0076  0.2914  0.1838
20978W        W36109   1.136  13.367   3.238  0.1651 -0.1097  0.0420
20979W        W36110  12.366   4.689  15.547 -0.0131  0.0205 -0.0989
20980W        W36111  17.186  14.246  11.980  0.0042  0.1902  0.0562
20981W        W36112   4.958  13.958   2.558  0.0653 -0.0629 -0.0082
20982W        W36113  11.339   7.657  14.686  0.0266  0.5057 -0.2210
20983W        W36114   1.015   0.518   1.991 -0.4599 -0.0783 -0.0192
20984W        W36115   9.803   3.408  13.537  0.1044  0.0644 -0.3582
20985W        W36116  11.700  15.205  12.067 -0.0293  0.2089 -0.2851
20986W        W36117  15.807  13.280   0.454  0.0469  0.3988 -0.0227
20987W        W36118  17.607   7.891  13.984 -0.0826 -0.0386 -0.0511
20988W        W36119  10.380   6.450   4.857 -0.1053 -0.1095  0.0264
20989W        W36120   3.955  16.998   0.150 -0.0325 -0.0902  0.4017
20990W        W36121  16.040  13.464  16.211 -0.0571  0.0968 -0.3065
20991W        W36122   3.399  12.224  15.201 -0.0410 -0.0051 -0.1518
20992W        W36123  15.946   3.268  14.808 -0.0414  0.0981 -0.1699
20993W        W36124  11.703  10.787  16.476 -0.0278  0.0211 -0.0825
20994W        W36125   0.579  10.348   4.733  0.1047  0.2460  0.0680
20995W        W36126   9.622   7.417  13.867 -0.1946 -0.1178  0.0506
20996W        W36127  15.742   6.639  11.881 -0.2837  0.2356  0.1981
20997W        W36128  13.176   6.297  10.491 -0.0092 -0.0018  0.0738
20998W        W36129   3.889  15.033  12.739  0.1818  0.2454  0.0932
20999W        W36130   0.155  16.037   6.189 -0.2561  0.2167  0.1985
21000W        W36131   3.172   8.661   4.779 -0.0044  0.0863  0.0166
21001W        W36132   0.526   9.905  12.947  0.0399 -0.1071 -0.1926
21002W        W36133  14.141   7.189  11.736 -0.0393 -0.1483 -0.1705
21003W        W36134  12.151  13.987   1.209 -0.1336 -0.0418 -0.0329
21004W        W36135  13.148  12.228   2.661 -0.1495 -0.1074  0.0811
21005W        W36136  12.018   3.915   0.742  0.5273  0.1770  0.0619
21006W        W36137   7.266   2.588   1.215 -0.0912  0.0976  0.3723
21007W        W36138  12.879   8.832   2.074 -0.0402  0.0817  0.3555
21008W        W36139  13.239   7.186  13.787 -0.1456 -0.1346  0.3226
21009W        W36140   6.824   4.385   0.374 -0.0543 -0.0748  0.0411
21010W        W36141  16.029  13.842   1.128  0.2638  0.0752 -0.3889
21011W        W36142  11.091  12.243   1.556 -0.0219 -0.2711  0.1680
21012W        W36143   3.450   5.817  12.960  0.0486  0.2046 -0.1048
21013W        W36144   0.862   7.413  14.613  0.1949  0.1465 -0.2724
21014W        W36145  14.112   1.809  15.970 -0.0613 -0.3373  0.0753
21015W        W36146  14.727  12.877  16.342  0.0444  0.0162 -0.0503
21016W        W36147  13.596  12.175   4.749  0.0019 -0.0456  0.3928
21017W        W36148   5.043   6.656  12.579  0.0008 -0.0535 -0.1014
21018W        W36149   9.567   7.116  13.458  0.0004 -0.0993 -0.3921
21019W        W36150   5.441   8.238  11.629  0.2071  0.2850  0.0072
21020W        W36151  14.301   8.608  15.045  0.0689 -0.2428 -0.0108
21021W        W36152   5.656  11.342  12.145 -0.0803 -0.1218 -0.6004
21022W        W36153   6.701  14.192  14.802  0.0156  0.0355  0.1457
21023W        W36154   2.465   3.636  15.688  0.0944  0.0690  0.4201
21024W        W36155  11.677   0.281  16.257 -0.1171 -0.2242  0.2596
21025W        W36156  15.773   2.868  12.285  0.1221  0.2612  0.0148
21026W        W36157   8.248  10.619   6.584 -0.2063 -0.3145  0.2451
21027W        W36158   7.902   5.870  15.821  0.1546  0.1677  0.0844
21028W        W36159   9.351   8.353   1.407  0.1042 -0.2833  0.0061
21029W        W36160  17.530   6.632  15.699 -0.1921  0.1077 -0.2342
21030W        W36161  16.445  17.340   3.472  0.0021 -0.0784  0.1558
21031W        W36162  17.354   2.348   5.658 -0.0029 -0.0789 -0.2506
21032W        W36163  12.656   2.220  14.218  0.1888 -0.1971 -0.0759
21033W        W36164   2.289  10.611   4.528 -0.1655 -0.2496  0.2465
21034W        W36165   2.902  14.126  12.476  0.1859  0.1794 -0.3083
21035W        W36166  11.034  10.423   1.270 -0.1882  0.1888 -0.1973
21036W        W36167  15.714  16.823   1.182  0.1132 -0.0216 -0.1482
21037W        W36168  13.842  17.520   5.318  0.2224  0.0287 -0.2147
21038W        W36169   1.782   5.117   4.515  0.0801  0.0209 -0.1140
21039W        W36170   9.602   2.841  16.835  0.2127 -0.1680 -0.1489
21040W        W36171  16.323  17.420   4.507  0.2705 -0.1113 -0.2581
21041W        W36172  12.248  11.989   3.792 -0.2553  0.2806  0.1051
21042W        W36173  10.190   4.231  15.300 -0.2320  0.2835 -0.3682
21043W        W36174   6.157   6.386  11.698 -0.1074 -0.1077 -0.2362
21044W        W36175   8.731   1.212  15.899 -0.1246 -0.1067 -0.2744
21045W        W36176   6.227   7.534  14.321 -0.3325 -0.0579 -0.4875
21046W        W36177   7.884  16.461   1.196  0.0781  0.2671  0.1394
21047W        W36178  11.077  11.443  12.056  0.0647  0.1017  0.1375
21048W        W36179   2.178  10.515   0.422  0.2526 -0.1913 -0.0511
21049W        W36180  16.559   1.668   0.508  0.1906  0.1667 -0.1682
21050W        W36181   1.247   9.279  11.752 -0.0020 -0.0807 -0.0752
21051W        W36182   8.345   9.410  11.705 -0.2350  0.3612  0.3339
21052W        W36183   7.530   9.173   5.067  0.1458 -0.2714  0.0554
21053W        W36184   4.038   0.442   0.874 -0.3598  0.3346 -0.0768
21054W        W36185   6.714   5.896   4.481 -0.2070  0.0319  0.0915
21055W        W36186   2.823   3.207   2.788  0.0683  0.2606 -0.1521
21056W        W36187   8.971   5.220  16.473  0.2077  0.1952 -0.0931
21057W        W36188   6.412  16.510   5.237 -0.3749  0.1270  0.0737
21058W        W36189  14.181  10.549  11.255  0.0798 -0.0442  0.1709
21059W        W36190   8.626  11.397  14.679  0.2113 -0.0086  0.1464
21060W        W36191   9.693   8.599   1.077  0.0258  0.1952  0.2247
21061W        W36192   1.846  13.015  12.544  0.0543  0.1096 -0.2664
21062W        W36193  15.679  17.458  13.196  0.0954 -0.0397  0.0934
21063W        W36194  12.432   0.298  12.576 -0.2744 -0.2725  0.2034
21064W        W36195   8.972   2.270  16.579  0.3458 -0.0125 -0.1500
21065W        W36196   8.843   8.003  13.064 -0.0297  0.0526 -0.1131
21066W        W36197   8.727   8.583  15.587  0.2655  0.0374  0.1026
21067W        W36198  11.664   5.943  16.586 -0.2541 -0.0191 -0.1814
21068W        W36199   9.338   0.429  15.476  0.0121 -0.1548 -0.3164
21069W        W36200   0.658  16.536   4.916  0.0198 -0.0051  0.0972
21070W        W36201   3.034  15.823   3.181 -0.1256 -0.0510 -0.3170
21071W        W36202  10.774   6.328  14.684  0.1421 -0.1100 -0.0164
21072W        W36203  13.898  10.966   3.002 -0.2449 -0.0698  0.1287
21073W        W36204  15.861   1.299  14.878 -0.1022 -0.0494 -0.0090
21074W        W36205  17.042  10.347  15.867 -0.0661 -0.2279 -0.0284
21075W        W36206  12.519   1.248   1.936  0.1953 -0.0167 -0.1226
21076W        W36207   4.781   5.999   1.034  0.1336  0.2915 -0.2388
21077W        W36208   4.239   2.336   3.803  0.0584  0.0944 -0.2240
21078W        W36209   5.426  13.270   3.617 -0.0110  0.1443 -0.0604
21079W        W36210  17.335  12.712  12.330  0.1459 -0.2285 -0.1700
21080W        W36211   6.305   2.260  12.840 -0.2383  0.2780  0.1685
21081W        W36212   8.109   2.002  16.139  0.0473  0.0423 -0.1781
21082W        W36213  11.881   8.711  11.242  0.1350 -0.0267 -0.1815
21083W        W36214  10.042   6.018  13.238  0.1724 -0.2140  0.3307
21084W        W36215   1.736   7.671  14.707 -0.4310  0.1363 -0.1919
21085W        W36216  17.321   2.500   1.299 -0.0191 -0.0326 -0.1556
21086W        W36217  13.605  12.434  14.478  0.1700  0.1327 -0.0201
21087W        W36218  13.294  15.729  13.293 -0.1503  0.1788  0.0347
21088W        W36219  15.579   2.289   2.163 -0.2090 -0.2236 -0.0458
21089W        W36220   4.624   8.483  14.025  0.0353 -0.0538  0.0530
21090W        W36221   6.976  11.754  13.589 -0.2202 -0.1462 -0.4338
21091W        W36222   0.208  15.751  13.583 -0.1138 -0.1833 -0.0855
21092W        W36223   2.197  12.201  16.890 -0.1742  0.0815  0.0915
21093W        W36224   5.803  13.826   4.903 -0.1143 -0.0924  0.3823
21094W        W36225  14.557   3.070   2.850 -0.1078  0.1796  0.4147
21095W        W36226   1.526   2.804  11.509 -0.1107  0.0896 -0.0781
21096W        W36227   6.546  14.805   3.683  0.6879 -0.2638  0.1153
21097W        W36228   4.450  10.561  16.621  0.0280  0.1076 -0.0845
21098W        W36229   6.218   8.362   2.290 -0.1445 -0.0285  0.3462
21099W        W36230   9.928   5.169  14.510  0.0328  0.0842 -0.0601
21100W        W36231  14.850   7.703  14.757 -0.3454  0.0256 -0.0729
21101W        W36232   3.093   4.086  13.236  0.0129  0.2393  0.1119
21102W        W36233  15.221  17.615   5.348  0.2277  0.0986  0.3002
21103W        W36234   9.407  14.415  16.623 -0.0713  0.2582  0.1395
21104W        W36235   1.840  17.647   0.171 -0.0649 -0.2568 -0.0662
21105W        W36236   6.012   9.594  16.524  0.0123 -0.2782  0.0783
21106W        W36237  16.546   9.339  13.495 -0.1794  0.1382 -0.0517
21107W        W36238   7.085  16.073  16.447 -0.1424 -0.1170 -0.2649
21108W        W36239   3.310  11.518  14.406 -0.0334  0.0952 -0.3751
21109W        W36240   2.088   3.683  15.972  0.1523 -0.2491  0.1643
21110W        W36241  15.341  15.278  15.432 -0.0273 -0.4916 -0.0971
21111W        W36242   6.124  12.510  14.528 -0.3023 -0.2268  0.0648
21112W        W36243   4.995   6.023  14.519  0.1110  0.1046 -0.0679
21113W        W36244  16.963   2.781  10.965 -0.0198 -0.1000  0.1332
21114W        W36245   2.312  11.864   0.401  0.2338  0.0237  0.0440
21115W        W36246   4.331  12.514   1.295 -0.0675  0.2840  0.2796
21116W        W36247   3.663   6.918  12.107 -0.2305  0.2004 -0.0967
21117W        W36248  15.320   7.927  15.473  0.2520  0.2286 -0.0587
21118W        W36249  15.568   0.786  12.368 -0.1157  0.2171  0.4355
21119W        W36250  12.271   2.962  15.491  0.0383  0.1775  0.1821
21120W        W36251   7.999   1.672  16.579  0.1975 -0.5038  0.3266
21121W        W36252   7.462   5.723  11.655 -0.3451 -0.0331 -0.0956
21122W        W36253  12.206  12.402   0.101  0.0547 -0.1649  0.1950
21123W        W36254  12.921  11.716  12.578 -0.0760  0.2333 -0.1597
21124W        W36255   4.458   7.596   5.059  0.0094 -0.0129 -0.0678
21125W        W36256   1.547  13.060  12.942 -0.1872 -0.5064  0.0106
21126W        W36257   4.160   1.899  14.158 -0.3273  0.1940  0.3614
21127W        W36258   1.982   2.273  14.252  0.1338 -0.1769 -0.0581
21128W        W36259   9.469  11.254   5.830  0.1095 -0.0420 -0.1744
21129W        W36260  14.245   3.762  11.545  0.1785  0.0604 -0.0916
21130W        W36261   3.709   0.092   0.172  0.0166  0.2536 -0.0147
21131W        W36262  14.522  10.547  15.756 -0.2442 -0.0797 -0.1346
21132W        W36263  14.273   7.072  16.885  0.0246 -0.0474  0.2063
21133W        W36264   6.972   1.140   2.467 -0.1643 -0.1028  0.3216
21134W        W36265   2.679  13.597   3.627  0.2076 -0.3214  0.0921
21135W        W36266   6.473  11.903  11.566  0.0852  0.0541  0.1152
21136W        W36267   4.032   3.199  13.340 -0.0151 -0.0458 -0.2539
21137W        W36268   6.975  11.717   5.159 -0.1906  0.0547 -0.3054
21138W        W36269   8.668   8.364   4.812  0.1670  0.1676  0.0970
21139W        W36270   9.473  14.989   0.611 -0.3237  0.0155 -0.0574
21140W        W36271  11.504   2.583   5.264 -0.0497  0.0912  0.0792
21141W        W36272   3.514   2.962  13.729  0.0228 -0.1467 -0.0701
21142W        W36273   9.533   7.955   3.984  0.0256 -0.1659  0.3416
21143W        W36274   9.378   4.546  13.045  0.3636  0.0128 -0.0410
21144W        W36275  10.706   0.397  16.086  0.1806 -0.0078 -0.2602
21145W        W36276  12.072   6.610  11.199 -0.2123 -0.0022  0.2162
21146W        W36277   9.830  10.838   0.259  0.2183  0.0849 -0.0560
21147W        W36278  13.783   5.010   2.035  0.1240  0.2444  0.0480
21148W        W36279  12.111  14.857   3.829 -0.1286 -0.1553  0.1333
21149W        W36280   6.348   9.020   5.876 -0.2791  0.0906 -0.0655
21150W        W36281  13.112   0.618  13.218  0.0615  0.1533  0.2369
21151W        W36282   1.100   3.893  16.047 -0.2842 -0.0305  0.0445
21152W        W36283   4.226  13.615  16.464 -0.0645  0.1325  0.0289
21153W        W36284  15.924   7.785  14.356 -0.0229 -0.0463  0.1124
21154W        W36285  11.877   8.488   2.343  0.0502 -0.4981  0.4483
21155W        W36286   7.647  17.181   4.632 -0.0419 -0.4442 -0.0168
21156W        W36287   4.680   0.857   4.053  0.2241 -0.0465 -0.0782
21157W        W36288  17.087   7.722   3.880  0.0784  0.1245 -0.1134
21158W        W36289  10.378   4.821  14.798  0.2791  0.0268  0.0188
21159W        W36290   6.766   2.658  12.994  0.2613 -0.0020  0.0021
21160W        W36291   2.792   8.076   5.960 -0.0620  0.1385 -0.4535
21161W        W36292  15.658   5.669   3.342  0.2636 -0.2875  0.0588
21162W        W36293   6.528   4.616  11.646 -0.2102  0.1672 -0.1995
21163W        W36294   8.139  12.544  11.954  0.3976  0.0979 -0.0458
21164W        W36295   2.185   3.251   0.388  0.2597 -0.3561 -0.0508
21165W        W36296  10.989   2.190   4.822  0.2044 -0.0043 -0.0448
21166W        W36297   1.060   0.552  13.637 -0.1180  0.1003 -0.1527
21167W        W36298  15.540  13.864   3.122 -0.2240  0.0640  0.0427
21168W        W36299   6.828  12.810   2.919 -0.2388 -0.0798 -0.1103
21169W        W36300   8.574  15.870  13.784 -0.1230  0.2226  0.0683
21170W        W36301   5.367   6.489  16.060  0.1746 -0.1901 -0.2790
21171W        W36302   4.311   0.265   4.664 -0.0903 -0.3274  0.1380
21172W        W36303  13.796  12.595   3.943  0.1152  0.0015 -0.3014
21173W        W36304  12.073   3.476   5.208 -0.1243 -0.1412  0.1668
21174W        W36305  13.781   3.754   3.406 -0.1149 -0.4894  0.0739
21175W        W36306  13.349  14.892   4.402  0.0066 -0.1052  0.0221
21176W        W36307   9.733  12.101   1.906 -0.0866 -0.2557  0.2418
21177W        W36308  13.054   0.749   6.223 -0.0405  0.0007  0.0615
21178W        W36309  17.512  12.481   2.770  0.0382 -0.0983  0.2772
21179W        W36310  17.614   3.946  16.184 -0.1408  0.1249  0.0374
21180W        W36311   3.200   9.669   2.297 -0.1314  0.0294 -0.1107
21181W        W36312   9.179  17.117  11.619 -0.2220 -0.0967  0.1338
21182W        W36313   6.424   7.080   2.995 -0.2000  0.5680  0.2446
21183W        W36314  16.495   7.711   4.769 -0.3132  0.0481  0.1328
21184W        W36315   7.809  14.089  13.887 -0.1212  0.0576  0.0410
21185W        W36316   3.923  15.267   2.657  0.0007  0.0769 -0.2820
21186W        W36317   8.203  15.646  12.011  0.0289  0.1736  0.1726
21187W        W36318  12.471  16.676  13.918 -0.1317 -0.0772 -0.4996
21188W        W36319  14.381   2.317  11.500 -0.1003  0.2537 -0.1185
21189W        W36320  17.249   5.293   4.180  0.1710  0.0283  0.0169
21190W        W36321   2.360   0.471  14.587 -0.2758  0.2105  0.0502
21191W        W36322   6.815   1.462  13.120 -0.3491  0.1136 -0.0051
21192W        W36323  10.425   4.216  11.525  0.2263  0.4074 -0.0544
21193W        W36324   0.281  16.758   4.084  0.0149 -0.0790  0.3053
21194W        W36325   4.718  13.614  13.405 -0.1216  0.1582  0.4362
21195W        W36326   0.942   9.059  12.033 -0.0579 -0.0610  0.2670
21196W        W36327   5.239   8.141  12.931  0.0678 -0.2499 -0.0152
21197W        W36328   9.013   6.507   1.427 -0.4214  0.1099  0.3096
21198W        W36329  12.919  12.467   5.798 -0.0023 -0.0683 -0.1464
21199W        W36330  13.992   1.619   1.494  0.2249  0.1399  0.0705
21200W        W36331   8.540   9.110  13.358 -0.0943 -0.2939  0.0243
21201W        W36332   3.606  10.830  15.222  0.2754 -0.2533 -0.0829
21202W        W36333   9.819  12.289  14.565  0.1769  0.2107  0.2613
21203W        W36334  15.640   4.217   4.723  0.2026 -0.1343  0.1349
21204W        W36335  16.308   9.104   4.323 -0.0064  0.1891  0.1619
21205W        W36336   5.287   2.386  12.819  0.1544 -0.0143 -0.1358
21206W        W36337   3.276   6.424   3.774  0.0661  0.1229 -0.0215
21207W        W36338   8.497   9.823  12.435  0.1559  0.1736  0.2653
21208W        W36339   2.875   2.723  14.193  0.0223  0.2646 -0.0123
21209W        W36340  17.549   7.968   2.605 -0.3029  0.1315  0.3384
21210W        W36341  16.999   7.617  16.097  0.3733 -0.0697 -0.1037
21211W        W36342  12.875   4.620   0.125 -0.0205  0.1265 -0.0022
21212W        W36343  16.031   0.977  14.102  0.1210 -0.0820  0.1848
21213W        W36344  12.427  10.450  10.737 -0.0493  0.2661 -0.0182
21214W        W36345  12.967   5.238   1.484  0.3565  0.0769 -0.2667
21215W        W36346   9.758  10.341  13.303 -0.3588 -0.0951  0.0995
21216W        W36347   8.194   9.465   3.063 -0.1422 -0.3569 -0.1760
21217W        W36348   1.536  12.031  14.447 -0.1220  0.0571  0.1646
21218W        W36349  10.197   7.131   0.695  0.0135  0.1689  0.1344
21219W        W36350  12.304  16.546  14.417  0.0759  0.0097  0.0165
21220W        W36351  15.448   2.599  15.843 -0.1654  0.0794  0.1454
21221W        W36352  16.852  10.604  10.488  0.0062  0.0747 -0.1303
21222W        W36353   9.772   6.884   4.098  0.0832  0.0162  0.1862
21223W        W36354  14.312  14.924  14.113  0.1052  0.2012 -0.0083
21224W        W36355   4.219  14.466  14.440  0.0035  0.0642 -0.0598
21225W        W36356  15.843  16.136  14.364 -0.0900 -0.0757  0.3638
21226W        W36357   8.227  16.427   4.733  0.1920  0.0557  0.3008
21227W        W36358  12.296   5.230   2.579 -0.0788  0.0690  0.0521
21228W        W36359  11.770   1.017   0.176 -0.1882 -0.1436 -0.0289
21229W        W36360   8.734   5.279   1.663  0.1891 -0.2577  0.0327
21230W        W36361  14.735   9.922  16.208  0.1534  0.2818 -0.0211
21231W        W36362   4.471   9.362   5.345 -0.1031 -0.0044 -0.1022
21232W        W36363  12.489  15.190   3.959  0.5537  0.1840 -0.1740
21233W        W36364   0.211  16.833  12.302 -0.1627  0.1014  0.0757
21234W        W36365   1.148   8.515  12.153 -0.3115 -0.0173  0.3914
21235W        W36366   7.133  10.051   4.449  0.3390  0.1340 -0.1972
21236W        W36367  13.914   5.433   5.435  0.0363 -0.0839  0.0603
21237W        W36368  15.268  16.472   6.483 -0.1169  0.5809  0.0623
21238W        W36369  10.651  16.393   4.048 -0.1536 -0.0601 -0.1447
21239W        W36370  13.050   8.554   0.533  0.3174  0.1067  0.0021
21240W        W36371   1.799   7.874   6.200 -0.1290 -0.0001  0.0567
21241W        W36372  13.370   4.102   3.472 -0.0264  0.0667 -0.0899
21242W        W36373   6.026   8.440   1.695  0.1713 -0.2426 -0.0537
21243W        W36374   9.955   9.522   5.680 -0.0679 -0.1689 -0.0765
21244W        W36375  14.046  11.132   2.133  0.0585  0.3662  0.2547
21245W        W36376   7.302   1.925   3.945 -0.0531  0.0514  0.0940
21246W        W36377   3.604   4.530  13.183  0.1830 -0.2183 -0.0900
21247W        W36378   4.722  15.210  14.431  0.4411 -0.1303  0.2032
21248W        W36379   4.190  10.377   1.064  0.5533 -0.0201  0.1584
21249W        W36380  16.983  11.002  13.091  0.0998 -0.0434 -0.0610
21250W        W36381  10.829  13.729   3.724 -0.0193 -0.2859 -0.2382
21251W        W36382  13.138  14.101   3.971 -0.1149  0.0859 -0.0983
21252W        W36383  11.645   9.780  16.309  0.3491 -0.1937  0.0696
21253W        W36384   1.492  14.041   4.656  0.2430  0.1466 -0.0276
21254W        W36385   2.902  16.719   1.470  0.1499  0.0280 -0.3619
21255W        W36386   2.974   1.979  14.701 -0.0240 -0.1697 -0.0861
21256W        W36387  16.985  13.456  12.726  0.2472 -0.2014  0.1674
21257W        W36388   0.839   0.278   0.066  0.2690  0.0303 -0.1636
21258W        W36389   1.367   5.582  16.145 -0.1155  0.6054 -0.2916
21259W        W36390   4.547   0.885  16.214 -0.0099 -0.2465 -0.0507
21260W        W36391  11.847  17.459   4.440 -0.0504  0.0492  0.1782
21261W        W36392   6.896  14.483  15.671  0.1108  0.1215  0.0673
21262W        W36393   6.647  11.431   5.506  0.1463 -0.0030 -0.0464
21263W        W36394  14.701   4.954  10.629 -0.2657  0.0624 -0.1143
21264W        W36395  12.336  12.929   4.500  0.1729  0.0062 -0.0200
21265W        W36396  14.812  11.884  15.060  0.0956 -0.0512  0.2483
21266W        W36397  13.362   4.682  13.010 -0.0287  0.0783 -0.0684
21267W        W36398   4.561  13.209  16.584 -0.0950 -0.1158  0.0051
21268W        W36399   6.352  14.676  15.671  0.2756 -0.3842  0.0293
21269W        W36400   9.048   3.224   1.607 -0.2010 -0.2812  0.1661
21270W        W36401  12.617  16.193  14.161  0.1655  0.0278 -0.2984
21271W        W36402   4.059  13.243  16.820  0.1370  0.0909  0.2738
21272W        W36403   0.730   0.251   2.811 -0.1062  0.0830 -0.0477
21273W        W36404  14.814   4.139  16.648  0.2057  0.0704 -0.0032
21274W        W36405  13.720  13.183   1.857 -0.3606  0.1143 -0.3073
21275W        W36406   3.376   6.198  16.215  0.0543  0.0213 -0.0428
21276W        W36407  14.662   5.815  14.892  0.0182 -0.0376  0.0132
21277W        W36408   5.307  13.858   4.526 -0.1904  0.0547 -0.0182
21278W        W36409  14.446  16.794  14.715 -0.0781 -0.0377  0.1326
21279W        W36410   3.715  12.814  12.725 -0.0571  0.0091 -0.0819
21280W        W36411  10.070   2.983  13.507 -0.1882  0.0161  0.1337
21281W        W36412   1.934  16.168  13.072  0.0547  0.2037  0.2319
21282W        W36413  11.568  12.473   1.655  0.1983  0.1337 -0.0163
21283W        W36414   2.204  12.247   5.626 -0.1762 -0.1059 -0.2068
21284W        W36415  10.242   8.228   3.380 -0.0400 -0.1167  0.0222
21285W        W36416   4.940   1.949   1.477  0.0152  0.0670 -0.0766
21286W        W36417   6.057   0.839   4.346 -0.0315 -0.0819  0.1107
21287W        W36418   2.851   6.647  11.204 -0.1421 -0.0423 -0.0727
21288W        W36419  15.841   4.378   1.444  0.0771 -0.0097 -0.1363
21289W        W36420   3.945  13.812  11.902  0.1561  0.0336 -0.0631
21290W        W36421   7.553   5.353  11.327  0.0370  0.4290  0.0435
21291W        W36422   7.886  10.531  11.362 -0.1477  0.0261  0.0060
21292W        W36423  13.969  10.683   2.011  0.3139  0.0725  0.1927
21293W        W36424   8.757   0.873   0.288  0.3368  0.2868  0.2311
21294W        W36425   0.197   1.097   3.711 -0.0711 -0.2082  0.1115
21295W        W36426   7.176   7.874   3.998  0.2880 -0.2703  0.2216
21296W        W36427   2.216   4.853  11.593  0.1841  0.0414 -0.2177
21297W        W36428  12.261   2.318   3.931  0.0400 -0.0058 -0.2310
21298W        W36429   0.377   9.748   1.566 -0.0708 -0.0757  0.1298
21299W        W36430   1.969   4.913  10.221 -0.1016 -0.2375 -0.0752
21300W        W36431   3.615   9.000  16.347  0.1161  0.0365 -0.2270
21301W        W36432  12.274   9.749   0.685  0.1353  0.0764  0.2406
21302W        W36433   6.317   3.947  16.390  0.1032 -0.1561  0.4539
21303W        W36434  15.079  13.090  15.366 -0.1759 -0.2290  0.0873
21304W        W36435   7.933   6.998  11.925  0.0784  0.0859  0.0265
21305W        W36436  11.750   7.864   4.921  0.3317  0.3961  0.0829
21306W        W36437   9.039  15.863  15.728 -0.2327  0.1244 -0.0485
21307W        W36438   8.177  17.446   0.441  0.0325  0.1961  0.0218
21308W        W36439   4.054   7.072   3.409 -0.1197  0.0273  0.3659
21309W        W36440  12.153   0.361   1.484 -0.0640 -0.0518 -0.0557
21310W        W36441   6.463   6.843   0.051  0.1576  0.3778  0.1663
21311W        W36442  10.273  16.038  13.366  0.3280  0.4832 -0.1795
21312W        W36443   2.067  10.432  16.739  0.0635 -0.1842 -0.0190
21313W        W36444  17.463  11.765  11.906 -0.0474  0.2255 -0.0703
21314W        W36445   3.954  11.677  13.670 -0.1608  0.2120 -0.0539
21315W        W36446   1.269   1.641  15.261  0.1135  0.0108  0.4775
21316W        W36447   6.121  11.770   1.367  0.0356  0.1204 -0.2922
21317W        W36448  11.047   2.196  14.166 -0.3111 -0.2229  0.0513
21318W        W36449   0.735   7.119   2.263  0.0295  0.0519  0.0021
21319W        W36450   6.096  12.065  16.028 -0.0892  0.1503  0.0047
21320W        W36451   1.568  14.533   4.631 -0.0507 -0.2557 -0.2368
21321W        W36452  13.947  11.035   4.481  0.1788 -0.1309  0.1465
21322W        W36453   4.905  16.134   3.397  0.0114 -0.0531 -0.0187
21323W        W36454   5.726   5.241  11.931  0.1126  0.0726  0.2808
21324W        W36455  10.090   3.101  14.071 -0.0364 -0.2686 -0.1797
21325W        W36456  13.940   3.386  15.753  0.0201 -0.0498  0.1324
21326W        W36457  16.998  13.380   4.636 -0.0124  0.2292  0.2101
21327W        W36458  15.258   8.487  16.244 -0.1685 -0.1403 -0.2103
21328W        W36459   5.161   0.057   2.841 -0.0791  0.0736 -0.1114
21329W        W36460   0.602  12.424   2.882  0.1198 -0.2007 -0.1996
21330W        W36461   7.486   3.064  11.488 -0.2603 -0.0662 -0.1390
21331W        W36462   2.673  13.503   4.650  0.0714  0.0595  0.1910
21332W        W36463   0.751   1.163  15.914 -0.0122  0.1443  0.0320
21333W        W36464  13.997   9.009   0.595  0.0203 -0.0489  0.1357
21334W        W36465   2.117  11.098  15.748 -0.2625 -0.0209 -0.2325
21335W        W36466  17.014   7.375   1.171  0.4057  0.1336  0.0484
21336W        W36467   3.001   4.587  11.061  0.1553  0.2351  0.0096
21337W        W36468   0.362   4.297   3.291  0.0100 -0.0972  0.0563
21338W        W36469   5.837  12.640  15.835  0.1055  0.0040  0.1409
21339W        W36470   8.622  11.733  16.740  0.2120  0.2765  0.2240
21340W        W36471   3.823  14.414   4.738 -0.0818  0.0815 -0.0650
21341W        W36472   4.264   7.356   1.735 -0.3976  0.1134  0.1099
21342W        W36473   6.496  14.096  15.697 -0.0290  0.1664 -0.0649
21343W        W36474   4.488  12.488   1.841  0.2450  0.1773  0.0577
21344W        W36475   1.945   9.514   2.302  0.0027  0.0661  0.3813
21345W        W36476  16.903   3.562  14.287  0.2471  0.0160  0.1445
21346W        W36477  12.999  16.713   5.813 -0.1366  0.2345 -0.3613
21347W        W36478   8.208   3.638  11.799 -0.1709 -0.0399  0.2556
21348W        W36479  11.091  10.183  11.969  0.0632 -0.0460  0.1558
21349W        W36480  17.460  17.466   1.437 -0.0145 -0.2308 -0.2871
21350W        W36481  14.548  11.386   0.553 -0.0923 -0.0121  0.1585
21351W        W36482   5.043   3.112   3.023  0.1652  0.0818 -0.0046
21352W        W36483  16.248  16.416  11.567 -0.1633 -0.2288 -0.1292
21353W        W36484   8.141   3.911   4.430  0.0556  0.1112 -0.2491
21354W        W36485   3.201   6.151  16.686  0.0055 -0.2088 -0.2071
21355W        W36486  10.912  17.359   2.871  0.0228  0.1882  0.0855
21356W        W36487  15.484  11.862  15.538  0.0875 -0.0708  0.1143
21357W        W36488  17.576   9.342   2.421  0.0371 -0.0633 -0.0346
21358W        W36489  14.202  12.138  13.155  0.1085  0.0324 -0.5024
21359W        W36490  11.119  11.960   5.518 -0.0618 -0.2926  0.0234
21360W        W36491  17.432   0.306   4.627 -0.0651  0.2355  0.2983
21361W        W36492   8.695   8.936  14.364  0.3872  0.0063  0.1008
21362W        W36493  13.838  17.261   1.929 -0.1827 -0.0696 -0.0129
21363W        W36494  10.128  11.641  13.722  0.0295 -0.0584  0.0437
21364W        W36495   5.740  11.837  14.125  0.1384 -0.1855 -0.0780
21365W        W36496  17.202   6.319  13.015  0.2025 -0.1022 -0.2624
21366W        W36497  12.670  15.275   2.980  0.0319 -0.1866 -0.2351
21367W        W36498  14.425   6.128  15.204  0.1147  0.2528  0.1828
21368W        W36499   5.064  17.295  13.943 -0.1214  0.1039 -0.2975
21369W        W36500   9.837   5.274  16.898 -0.2599 -0.1512  0.3045
21370W        W36501   2.308   9.205  11.797  0.2227  0.0317 -0.0623
21371W        W36502  14.852   5.315  11.043  0.2450 -0.1390 -0.0128
21372W        W36503   8.615  15.298   5.009 -0.2268  0.1034  0.5838
21373W        W36504   4.369   3.300  12.980 -0.0482 -0.1565 -0.0203
21374W        W36505  14.165   0.304  12.221 -0.0865 -0.4966  0.1996
21375W        W36506  14.942   7.030  14.382 -0.0463  0.4694  0.0481
21376W        W36507   4.309   3.901   4.161  0.0977  0.2374  0.1417
21377W        W36508   1.234   6.385  14.333 -0.3420  0.0509  0.0944
21378W        W36509   8.137   0.189   1.137 -0.1528  0.1190 -0.0412
21379W        W36510   4.342  10.127  12.370 -0.1844  0.4193  0.1145
21380W        W36511   7.446   8.721   2.817 -0.0776  0.0754  0.1238
21381W        W36512   0.233  10.727  14.623 -0.1139  0.0939 -0.1001
21382W        W36513   4.693   3.663   3.649 -0.3358  0.0502  0.0516
21383W        W36514   0.991   8.870  12.605  0.3539 -0.0518 -0.0280
21384W        W36515   7.901   3.451   5.308 -0.0404 -0.0273 -0.2408
21385W        W36516  15.753   4.798  13.954  0.2096 -0.1028 -0.2026
21386W        W36517   3.946   1.463  13.830  0.2625 -0.2118 -0.0539
21387W        W36518   9.690  17.381   0.849  0.1441  0.4635 -0.1073
21388W        W36519   4.580  16.627  15.966 -0.0323 -0.0695 -0.0569
21389W        W36520  16.563   3.109   2.032  0.0432  0.0262 -0.0017
21390W        W36521  15.493  16.492   1.857  0.1937  0.0338 -0.0584
21391W        W36522  16.770  11.288   5.186 -0.3354  0.2179  0.0295
21392W        W36523  17.528  11.692   3.411 -0.1559 -0.3517 -0.2737
21393W        W36524   2.469   4.962  16.407  0.3110 -0.1292  0.1655
21394W        W36525  16.483   1.307   2.788 -0.1013 -0.1992 -0.2465
21395W        W36526  17.641   5.206   1.178  0.0074 -0.1636 -0.1968
21396W        W36527  11.212   4.386  12.232  0.1843  0.0812  0.2577
21397W        W36528   5.204   1.426  15.879 -0.4248  0.0641  0.1738
21398W        W36529  10.327  16.197  16.777 -0.0718  0.3328  0.0150
21399W        W36530   1.903   8.753   0.379 -0.0792  0.2624 -0.2075
21400W        W36531   3.728  13.273   3.402  0.2796  0.0859 -0.3811
21401W        W36532   1.784  15.920   2.114 -0.0808  0.0214  0.0917
21402W        W36533   4.188   9.579  16.927 -0.2102  0.2403 -0.1202
21403W        W36534  15.534   1.948   1.224 -0.2046 -0.1404  0.1345
21404W        W36535   8.058  17.380  15.805  0.2444 -0.2473  0.1124
21405W        W36536   7.389   7.745  12.214 -0.2966  0.1926  0.2984
21406W        W36537   1.152  15.543  12.081  0.0181  0.0255  0.0135
21407W        W36538  14.721  14.205   6.732 -0.2198  0.0716  0.0380
21408W        W36539   4.848   8.505  15.062 -0.1510 -0.0165 -0.1468
21409W        W36540   7.784   2.664   5.906  0.2239  0.0032 -0.2202
21410W        W36541   8.994   4.391  15.322 -0.2452 -0.0120  0.0010
21411W        W36542   2.183  11.096   3.327 -0.1121  0.0485 -0.1142
21412W        W36543  17.133  15.782  16.395 -0.3816 -0.0441 -0.3029
21413W        W36544  10.010  12.408   4.020  0.2417  0.2475  0.1334
21414W        W36545   6.867   8.235  13.807  0.0597 -0.0400  0.1848
21415W        W36546   4.314   9.653   3.088 -0.1029  0.0944  0.2414
21416W        W36547   2.929   7.113  11.090 -0.1592 -0.1457  0.0195
21417W        W36548   1.283   5.640   1.430 -0.1668 -0.6264  0.1412
21418W        W36549  11.027   7.647   3.620  0.1771 -0.0577 -0.1279
21419W        W36550   8.315   6.837  12.751 -0.1908 -0.0886  0.2925
21420W        W36551  10.393  12.048  16.634 -0.0886  0.2013 -0.3373
21421W        W36552   4.952  16.973  16.082 -0.1558 -0.2037 -0.0485
21422W        W36553   3.290  14.143  12.902  0.3048 -0.0334 -0.2073
21423W        W36554   0.488   8.020   1.837 -0.2238  0.1717  0.2083
21424W        W36555   4.691   8.476  11.316 -0.0910 -0.2202 -0.1432
21425W        W36556   4.267   8.092  12.800  0.1874  0.1766  0.0820
21426W        W36557   7.582   0.029  13.732 -0.0988  0.1616  0.1198
21427W        W36558  14.563  13.363  14.468 -0.2101 -0.3470  0.2528
21428W        W36559   3.134   0.031  14.018  0.2675 -0.0162  0.1798
21429W        W36560   0.848   4.268  15.462  0.0145  0.2640  0.0039
21430W        W36561  15.292  15.509   4.061  0.1162  0.0440  0.4096
21431W        W36562   0.487   4.550  15.115 -0.0111  0.0443  0.0473
21432W        W36563   0.240   4.943   5.341  0.2650  0.4270 -0.4008
21433W        W36564   9.966   6.507   2.503  0.1192 -0.2661 -0.0977
21434W        W36565  12.110   3.967  16.602 -0.1444  0.1677 -0.3207
21435W        W36566   3.832   5.697   0.376 -0.1248  0.1066 -0.3617
21436W        W36567  11.950   4.288   5.445 -0.0283  0.0820 -0.1247
21437W        W36568  17.618   3.005  16.112  0.2609  0.1376 -0.3405
21438W        W36569   9.322   0.064   0.733 -0.0779  0.0298 -0.1200
21439W        W36570   2.741  13.401   1.557  0.1784 -0.2140  0.3721
21440W        W36571  16.017   4.563  15.136  0.1300 -0.1747  0.2466
21441W        W36572   5.015   0.972   3.748  0.1119 -0.2480 -0.0116
21442W        W36573  16.617   2.073   5.339 -0.0909  0.1445 -0.0359
21443W        W36574  13.349   6.788  12.900 -0.2028  0.1396 -0.2193
21444W        W36575   0.497   7.238   2.710 -0.0692 -0.0046  0.0019
21445W        W36576   7.350   3.520  13.274 -0.0244 -0.0715  0.1229
21446W        W36577   6.356   8.676  15.543 -0.0935 -0.4200  0.0436
21447W        W36578   6.371   6.317  12.922 -0.0737  0.0784 -0.1523
21448W        W36579  15.828  13.150   0.955  0.2059 -0.3030 -0.2324
21449W        W36580  14.762   2.583   0.048 -0.1644 -0.2570  0.0742
21450W        W36581   9.369   6.432  13.091 -0.1343  0.0895  0.0629
21451W        W36582   2.140  12.193   1.325  0.2005  0.0799 -0.1248
21452W        W36583   1.315   6.983   5.430  0.0907  0.3367 -0.0202
21453W        W36584  17.585  12.956  11.757  0.3953  0.1208  0.0043
21454W        W36585  14.556  15.376   0.688 -0.1162  0.1221 -0.1909
21455W        W36586   0.454  11.905   2.726 -0.0161 -0.1698  0.2816
21456W        W36587  10.101   1.681   0.636 -0.1792 -0.3292  0.1962
21457W        W36588  11.152  15.050  13.970 -0.0292 -0.1242  0.1152
21458W        W36589   2.663  15.299  15.210  0.0625 -0.1444  0.1941
21459W        W36590  14.145  13.844  11.730  0.3907 -0.0685  0.0749
21460W        W36591   2.598   3.025   0.732 -0.0518 -0.2341 -0.1470
21461W        W36592   0.804   1.539   1.169  0.2756 -0.0659  0.4527
21462W        W36593  14.971  13.243   4.468  0.2770 -0.4195 -0.0948
21463W        W36594   8.236   4.411   1.611 -0.2292 -0.1372  0.0405
21464W        W36595   9.591   9.823   6.779  0.4542 -0.1163 -0.3133
21465W        W36596   5.992   7.344   5.253  0.3104 -0.3225  0.2893
21466W        W36597   4.746  11.067  15.695 -0.0248  0.0207 -0.0579
21467W        W36598  11.668  14.020   2.360 -0.1303  0.1332  0.1471
21468W        W36599   6.852   5.428   0.585  0.1614 -0.2313 -0.2112
21469W        W36600  12.720   2.927   1.794 -0.0101  0.0030  0.2693
21470W        W36601   8.040  10.172   0.611 -0.1969 -0.0879 -0.2265
21471W        W36602  11.568  14.737  15.741 -0.0939 -0.0603  0.1238
21472W        W36603  12.298  14.929  13.198 -0.2012  0.0258  0.2005
21473W        W36604   7.797   2.220  16.474  0.2784  0.0804 -0.0439
21474W        W36605   2.403   9.743  13.546 -0.0116  0.2558  0.1631
21475W        W36606   4.301  13.653   5.436 -0.3341 -0.1586  0.2308
21476W        W36607  16.915   4.364  15.260  0.0756  0.1397  0.0107
21477W        W36608  12.271  14.437  15.053  0.1846 -0.1234 -0.0689
21478W        W36609  15.176   7.881   2.238 -0.0871  0.0315  0.0094
21479W        W36610  11.341   1.889  11.955  0.1496  0.0634 -0.0727
21480W        W36611   4.770  13.794  12.816  0.1223 -0.2057  0.2271
21481W        W36612  13.314   8.364  10.856 -0.1760 -0.1457  0.0731
21482W        W36613   9.928   6.771   0.285 -0.1544 -0.2096 -0.3152
21483W        W36614  14.566  10.115   0.925 -0.4084 -0.1574 -0.0542
21484W        W36615  16.060   0.355  15.624  0.1644  0.0476 -0.1169
21485W        W36616  12.491   3.662   0.046  0.0155 -0.0014 -0.2444
21486W        W36617   0.039   9.568   3.004 -0.1042 -0.1318 -0.0262
21487W        W36618   5.791   1.035   5.395  0.3168 -0.1116  0.2897
21488W        W36619   9.794  14.570   0.678 -0.1089  0.1887 -0.1035
21489W        W36620  16.602   7.569   0.969 -0.2642  0.0226  0.1680
21490W        W36621   8.507   8.537   3.710  0.1302  0.0606  0.3802
21491W        W36622  11.861   6.103   4.288  0.3695 -0.2884  0.0427
21492W        W36623  11.332  15.747  15.827  0.0363  0.4404  0.1988
21493W        W36624  10.624  11.098  15.719  0.0147  0.0031  0.0411
21494W        W36625   8.666   0.737   4.219  0.0245  0.6747  0.0583
21495W        W36626   1.450  16.532   4.659 -0.2585  0.1554 -0.0800
21496W        W36627   6.825  16.198   2.826  0.0608 -0.2060  0.0122
21497W        W36628  13.815   4.085  14.154  0.0822 -0.0730 -0.3650
21498W        W36629   9.408  12.989   0.987  0.1740  0.0857  0.0083
21499W        W36630   7.950   0.141   5.935  0.0892  0.1034  0.0586
21500W        W36631   1.818  14.956   3.404  0.2938 -0.1827 -0.0896
21501W        W36632   0.617   3.823   2.503  0.1477 -0.0493 -0.2893
21502W        W36633   2.186   5.869  11.448 -0.4229 -0.2285 -0.1960
21503W        W36634  17.541   9.714  16.726 -0.0617  0.2278 -0.3774
21504W        W36635   6.183   2.551   1.755  0.2457  0.0045 -0.0941
21505W        W36636  14.436   1.567  11.854  0.1313  0.2095  0.0573
21506W        W36637  12.262  12.529  13.389 -0.0181 -0.0731 -0.0545
21507W        W36638  16.555   7.314   5.516 -0.1168 -0.2411 -0.1938
21508W        W36639  17.501   8.225  16.597  0.0216  0.1394  0.0057
21509W        W36640   1.099   7.688  15.412 -0.4030  0.0448 -0.0764
21510W        W36641  13.245   7.030  14.886 -0.0562 -0.2015  0.1619
21511W        W36642   3.885  14.072  14.433  0.0812 -0.0098  0.1629
21512W        W36643   5.555   7.026  13.844  0.0672  0.1462  0.2597
21513W        W36644   2.971  14.728  13.856  0.1117 -0.2072  0.1123
21514W        W36645  15.992  15.224  15.614  0.0638 -0.0763 -0.0256
21515W        W36646   3.548   1.131   5.610  0.1785 -0.0469  0.2403
21516W        W36647   2.584  11.383  15.902 -0.1088  0.1071 -0.0169
21517W        W36648   6.100  13.433  12.874  0.1896  0.2861 -0.0085
21518W        W36649  12.148   4.470  16.894 -0.0221  0.3790  0.0140
21519W        W36650   5.927  14.792   4.538 -0.2720 -0.2685  0.1305
21520W        W36651   3.587  14.201  15.295  0.1794 -0.0386 -0.1074
21521W        W36652  12.740   8.438   1.740  0.0325 -0.0192  0.0187
21522W        W36653  12.131  10.346   0.091  0.1767 -0.0901 -0.1346
21523W        W36654   2.699   1.269   2.213 -0.1207 -0.4749  0.0982
21524W        W36655  10.368   4.827  13.784 -0.3974  0.3537 -0.2629
21525W        W36656   9.888   1.601  13.054 -0.0116  0.1030  0.3357
21526W        W36657   4.023  11.058   6.407  0.1609  0.0117  0.2974
21527W        W36658   0.846  10.933  12.175  0.1565  0.3204 -0.0795
21528W        W36659   7.064  10.829  15.485 -0.1046 -0.3242  0.2575
21529W        W36660  14.112   9.810  12.970 -0.2586 -0.2259 -0.0115
21530W        W36661  14.917  15.299  12.134  0.1648  0.0696  0.1164
21531W        W36662  13.726  13.385  15.654  0.1024 -0.2141  0.1811
21532W        W36663  17.407   5.927  13.980 -0.1828  0.0172  0.0706
21533W        W36664   5.991  16.240   3.436 -0.0227 -0.0208  0.0279
21534W        W36665  14.328  10.547   2.355 -0.0087 -0.0185  0.0816
21535W        W36666   9.652   0.883   5.604 -0.0822 -0.0618  0.1003
21536W        W36667  15.224   4.719  12.349  0.0442 -0.1082  0.2876
21537W        W36668  16.386  14.797  13.505  0.1358 -0.2778 -0.1701
21538W        W36669   7.974   8.579  11.814  0.5502  0.0543 -0.0930
21539W        W36670   5.681   2.400   1.593  0.1556 -0.1287  0.1671
21540W        W36671   3.077  16.718  15.272  0.0913 -0.0119 -0.1227
21541W        W36672  10.661  12.054   2.552 -0.3309  0.0943 -0.0045
21542W        W36673   8.839   0.552  13.179  0.1201  0.0498 -0.0414
21543W        W36674  15.384  15.825   4.753  0.1381  0.2832 -0.2296
21544W        W36675   3.477  15.642   4.114  0.0409  0.2687  0.5370
21545W        W36676  14.502   1.848   5.662 -0.1737 -0.0217  0.0659
21546W        W36677   3.396  14.061   2.228  0.1807 -0.0883  0.2249
21547W        W36678   5.307   8.323   3.487  0.0632 -0.0347 -0.0799
21548W        W36679   6.602   2.210  13.216  0.0251  0.0325 -0.0667
21549W        W36680   0.117   2.653   3.103  0.0369 -0.0693 -0.2183
21550W        W36681  10.655  15.347   5.008 -0.3115  0.0831 -0.0125
21551W        W36682   3.922  12.021  15.833 -0.2307 -0.0706 -0.1796
21552W        W36683   5.508   0.659  15.444 -0.0057 -0.1776 -0.0869
21553W        W36684   3.801   3.495  16.392  0.0029 -0.0758 -0.2284
21554W        W36685  16.937  11.351  13.664 -0.1591 -0.0270  0.2056
21555W        W36686  12.659   1.998  13.177  0.1037 -0.1134  0.2449
21556W        W36687  10.011   6.961  12.191  0.2118 -0.3457 -0.1517
21557W        W36688   9.901  15.287  13.888  0.0378  0.0363  0.2117
21558W        W36689   8.225   8.932   2.695 -0.3109  0.1109 -0.1598
21559W        W36690  15.220  16.386   0.913 -0.0805 -0.0469 -0.0399
21560W        W36691   2.704   4.596  16.750 -0.2655 -0.1593 -0.0996
21561W        W36692   8.380  15.747   5.200  0.1265 -0.1815  0.0394
21562W        W36693  10.512   1.055   5.810  0.1771 -0.1141  0.2022
21563W        W36694  10.975   0.030   5.937 -0.0922  0.4623  0.0567
21564W        W36695   6.506   7.504  12.217 -0.1595  0.0613  0.1442
21565W        W36696   1.574   9.950   1.383 -0.3431  0.0220  0.0272
21566W        W36697   7.844   0.134   4.000 -0.1693  0.1387 -0.0650
21567W        W36698  10.215   5.499  11.031 -0.0864  0.1618 -0.0683
21568W        W36699  14.556  17.696   6.416  0.0033 -0.3618  0.2075
21569W        W36700   5.388   3.316  13.325  0.2785 -0.2218  0.1291
21570W        W36701  15.677   8.757  15.183 -0.3718 -0.0664  0.0698
21571W        W36702   2.786  10.725  12.602 -0.3044  0.2698  0.4633
21572W        W36703   9.165   2.388  12.713 -0.1810 -0.1699  0.4236
21573W        W36704  10.151   3.039   1.085  0.0853  0.1129  0.1369
21574W        W36705  11.194   8.820  12.206 -0.0954  0.1299  0.0441
21575W        W36706   8.573  15.774  13.010 -0.0203 -0.1769 -0.2871
21576W        W36707   9.814  10.465   0.895 -0.1943  0.1256 -0.2097
21577W        W36708   2.570   7.280  16.140 -0.1671 -0.2066 -0.1265
21578W        W36709   7.470  14.054   5.279  0.2323  0.0016  0.0619
21579W        W36710   5.934   0.777   4.818  0.1116 -0.1517  0.1171
21580W        W36711   7.890  17.400   3.604 -0.1131 -0.2828  0.1254
21581W        W36712  16.580  10.589   1.975  0.1042 -0.0980  0.0057
21582W        W36713   5.445  10.055   1.622 -0.1140 -0.3172 -0.0374
21583W        W36714  10.006   3.126  16.582  0.1060  0.0059  0.0364
21584W        W36715   5.596  16.702   3.333 -0.2313  0.0639  0.1142
21585W        W36716   7.795  13.305  11.851 -0.2084 -0.0982  0.2052
21586W        W36717   5.003  14.822  15.962 -0.1175  0.0675 -0.1829
21587W        W36718  17.701   5.108   1.724 -0.0350  0.2407 -0.1431
21588W        W36719   8.746   2.504  11.603 -0.1346  0.2499 -0.1608
21589W        W36720   8.790  10.725  16.516 -0.2547  0.0704 -0.1388
21590W        W36721   0.012   5.501   2.061 -0.0107 -0.0405 -0.1432
21591W        W36722  10.965  10.982   5.396 -0.0509  0.3955 -0.0907
21592W        W36723  12.315  11.717   5.986 -0.1190 -0.4145  0.2654
21593W        W36724   7.963  11.595   1.928 -0.1968  0.2763  0.2215
21594W        W36725  10.868  17.670  12.595  0.3279  0.2180  0.4279
21595W        W36726  12.889  11.782  13.060  0.1718  0.2964 -0.0228
21596W        W36727   3.086   4.995   4.294 -0.1621 -0.0145  0.0185
21597W        W36728   1.924   7.710   0.723  0.1815 -0.0905  0.2064
21598W        W36729  15.708   1.250  14.389 -0.0792  0.0915 -0.2461
21599W        W36730   3.202  13.801   1.751 -0.2161 -0.0062  0.1782
21600W        W36731   3.952   1.955  14.626  0.0237 -0.0970  0.0327
21601W        W36732   0.618   3.409  10.787  0.1627  0.0534 -0.1058
21602W        W36733   2.607   1.444  16.805 -0.1578  0.2304  0.1159
21603W        W36734   3.478   8.845  13.796 -0.0103  0.0782 -0.0003
21604W        W36735   2.292   6.985  16.415 -0.0688 -0.1539  0.1912
21605W        W36736  14.552  11.695   0.053  0.2176 -0.0822  0.0860
21606W        W36737   2.822  16.742  10.870  0.1564 -0.1293 -0.0023
21607W        W36738   7.836   2.618  12.681  0.1055  0.0494  0.0047
21608W        W36739   4.597   8.640   4.184 -0.0759  0.4114 -0.1661
21609W        W36740  16.061   4.488  14.219  0.3492 -0.0242  0.4097
21610W        W36741  11.974   5.509  12.368  0.1623  0.0845 -0.1889
21611W        W36742  10.814  11.049  11.666  0.0200 -0.2190  0.0388
21612W        W36743  15.102   2.471   2.509  0.1351  0.1151 -0.0116
21613W        W36744   0.617   5.087  14.454  0.0422  0.0542  0.5713
21614W        W36745  15.010   4.514  11.078 -0.3265  0.1467 -0.3174
21615W        W36746   6.700   0.125   5.309 -0.1642  0.0866 -0.2973
21616W        W36747  15.780   7.785  15.162  0.1296  0.2950 -0.2704
21617W        W36748   6.390   9.977  12.486 -0.0456 -0.2676  0.0231
21618W        W36749  15.549  11.748   2.641 -0.1098  0.3795 -0.0342
21619W        W36750  10.543   1.388  12.251 -0.1575  0.0525  0.1405
21620W        W36751   7.115  17.287  14.178 -0.0374 -0.0067  0.1098
21621W        W36752   6.490   9.768  14.073 -0.1343  0.0091 -0.0362
21622W        W36753   1.776  10.359   3.846 -0.0303  0.1414 -0.0883
21623W        W36754  17.557   3.387   1.271  0.4371  0.0592  0.0604
21624W        W36755   7.466  17.700  15.172  0.0144 -0.0597 -0.0897
21625W        W36756   5.888   5.500   1.047  0.3974  0.1612  0.0680
21626W        W36757   9.407  14.861  12.911  0.0094  0.3528 -0.0895
21627W        W36758  15.913  16.795  13.296  0.1533  0.3088 -0.1120
21628W        W36759   8.323   5.769  14.915  0.1596  0.0507  0.0890
21629W        W36760  15.512  11.559  14.447 -0.0019  0.1017  0.2328
21630W        W36761   1.920  15.439  16.853  0.2899  0.2123 -0.1095
21631W        W36762   4.356  14.710   4.988 -0.0974  0.0000  0.1396
21632W        W36763  15.008  15.530   4.617  0.0800 -0.3673 -0.1704
21633W        W36764  13.992  17.136   0.011  0.1729  0.0852  0.1926
21634W        W36765  11.232  12.078  13.295  0.2699 -0.2993  0.2036
21635W        W36766  15.335   0.174  16.349  0.0784  0.1206 -0.4489
21636W        W36767  13.836   2.478  14.506 -0.0730  0.3302  0.1688
21637W        W36768   4.590   4.878   3.429  0.1560  0.0566 -0.4398
21638W        W36769   2.717   2.038  13.398 -0.0956  0.1145 -0.1636
21639W        W36770   4.317  12.086   4.640 -0.1704 -0.2454  0.2318
21640W        W36771   5.893  13.936  16.210 -0.1164 -0.0888 -0.1787
21641W        W36772   6.100  17.400  15.806 -0.0924 -0.0078  0.2080
21642W        W36773   3.701  15.985   0.317  0.0503 -0.1104  0.2152
21643W        W36774  10.757  14.380  16.499  0.1342  0.3088  0.0522
21644W        W36775   3.489   5.207   3.423 -0.2109  0.0342 -0.0509
21645W        W36776  17.466  17.600  14.096 -0.2195 -0.1540 -0.5105
21646W        W36777  15.715   1.117   5.469  0.0077  0.0791 -0.2316
21647W        W36778   1.683   3.162  15.883  0.0062  0.0702  0.1122
21648W        W36779   8.490   6.258   0.743  0.1830  0.2921 -0.1791
21649W        W36780   0.928   2.124  16.534 -0.0381  0.3169 -0.0869
21650W        W36781   6.316  17.404  12.455  0.3185 -0.1960 -0.0014
21651W        W36782  13.502   9.209  12.529  0.3347  0.0041  0.2333
21652W        W36783  10.133  10.717   3.958 -0.3202 -0.0045  0.0252
21653W        W36784   3.320   8.429  16.112  0.0921  0.3877 -0.2360
21654W        W36785   6.329   5.259  12.430 -0.0147 -0.1396  0.0105
21655W        W36786   6.240   7.001   4.280  0.1000 -0.0939  0.0977
21656W        W36787   3.548   2.812   0.730  0.0990  0.0250 -0.1760
21657W        W36788   0.419   3.220   5.174 -0.0982  0.0313  0.2249
21658W        W36789   5.301   5.281   0.474 -0.2804 -0.1957 -0.0957
21659W        W36790  12.233  17.072   3.868 -0.1154 -0.0669 -0.2776
21660W        W36791   1.012   2.041  14.410 -0.0400  0.1506 -0.1882
21661W        W36792  12.470  11.450  12.322 -0.2439  0.0034 -0.2036
21662W        W36793  14.664   4.029  15.903 -0.0312 -0.1597  0.2357
21663W        W36794   8.646   8.959  12.892 -0.1251  0.0957  0.0203
21664W        W36795  15.910   6.161   2.146  0.0180 -0.1519 -0.1862
21665W        W36796   0.030   8.401  13.125 -0.2449 -0.0189  0.0322
21666W        W36797  17.458   7.335  16.323  0.1362  0.2021 -0.1866
21667W        W36798   4.839   5.476  12.825  0.0067  0.0878 -0.0181
21668W        W36799   8.421   1.949   5.400  0.1378 -0.1933 -0.0872
21669W        W36800  16.730   0.166  16.125  0.1681 -0.1060  0.0493
21670W        W36801   2.625   9.251   0.821 -0.1392 -0.2980 -0.1680
21671W        W36802  11.499   9.762   4.209 -0.1708 -0.0471 -0.0899
21672W        W36803  14.412   1.472   3.355 -0.1381  0.0782 -0.1817
21673W        W36804   3.929   3.651  13.494  0.2244 -0.1997  0.0849
21674W        W36805  14.201   9.392  12.042 -0.0411 -0.1559  0.1382
21675W        W36806   9.907   1.162  12.798 -0.2086 -0.4059 -0.0033
21676W        W36807  14.100  12.705   4.817 -0.2884 -0.1717 -0.3973
21677W        W36808  12.657   6.013  13.856  0.0890  0.0761  0.0707
21678W        W36809   3.900  14.116   0.839  0.1145  0.1061 -0.0225
21679W        W36810   6.079  10.626  14.103  0.2690 -0.0854 -0.0071
21680W        W36811   7.092  10.028   2.069 -0.2436  0.2330  0.0038
21681W        W36812  16.262  15.931   0.532 -0.0146  0.2568 -0.3793
21682W        W36813   2.232  10.552   5.852 -0.2863  0.0747  0.0557
21683W        W36814  10.122   5.370   3.087 -0.0756  0.1101  0.0943
21684W        W36815   4.893   2.770   1.611 -0.1938 -0.0102 -0.2256
21685W        W36816   9.526  11.782   0.031 -0.0141  0.4574  0.2899
21686W        W36817  14.382  14.946   2.154 -0.5160  0.1648 -0.2164
21687W        W36818   7.159  15.028  16.183  0.0606 -0.3614  0.1101
21688W        W36819   3.223  11.448   3.934 -0.2055 -0.2190 -0.0185
21689W        W36820   7.135  16.614   2.396 -0.0786  0.0790 -0.1394
21690W        W36821  13.534   0.625   5.505 -0.4197 -0.0209 -0.1053
21691W        W36822   8.614   2.023   3.396  0.2122 -0.1754 -0.1613
21692W        W36823   2.757  10.371   2.210 -0.1330  0.1311 -0.1452
21693W        W36824  17.346   5.491  11.976  0.1849  0.3291  0.2821
21694W        W36825  17.444  13.572  16.538  0.1523  0.0020  0.0817
21695W        W36826   0.913   2.448   4.352 -0.1501 -0.0384 -0.0059
21696W        W36827  10.377   3.744  15.297 -0.1868  0.0494 -0.1114
21697W        W36828   7.065  14.167   5.917  0.1315  0.0030 -0.0031
21698W        W36829  12.530   0.412  15.860 -0.1389 -0.0652  0.1535
21699W        W36830   8.366  12.407   1.413 -0.2030 -0.2703 -0.2940
21700W        W36831  10.069   2.260  13.986  0.0017 -0.1926  0.0649
21701W        W36832   5.468   5.952   1.637 -0.1792 -0.0477  0.0473
21702W        W36833   7.624   5.919  10.321  0.1115 -0.0285 -0.1835
21703W        W36834   5.822  16.695  14.904  0.1801  0.1516  0.0454
21704W        W36835   9.324   6.031   0.422  0.2886 -0.0316 -0.1229
21705W        W36836  10.592   9.773   3.607 -0.1028 -0.2491 -0.0989
21706W        W36837   8.722  15.902   2.156  0.0837  0.1487  0.0908
21707W        W36838  11.041  11.614  11.589  0.1004  0.0259 -0.2737
21708W        W36839  12.231   0.625   5.086 -0.0713 -0.0191 -0.0535
21709W        W36840   2.558  17.713   4.808  0.0392  0.0064 -0.3322
21710W        W36841   1.889   9.961   0.527 -0.2373 -0.1869  0.0809
21711W        W36842  14.884   9.825   6.271  0.1831 -0.0071  0.2589
21712W        W36843   7.274  14.649   5.788  0.3353  0.1418  0.1545
21713W        W36844  11.124   4.868  12.214  0.0178 -0.1956  0.0656
21714W        W36845  13.181  17.458   4.470 -0.2511  0.0276  0.0396
21715W        W36846   2.159   3.700   0.145 -0.0452 -0.0576  0.3773
21716W        W36847  15.793  15.669  15.760 -0.1590 -0.1290 -0.1250
21717W        W36848   6.167  13.881   4.510  0.0183  0.2996  0.2111
21718W        W36849   9.113  16.989   0.085  0.1631 -0.0626 -0.1504
21719W        W36850   1.264  11.712   4.693 -0.1375  0.0106 -0.2100
21720W        W36851  16.406   4.958  13.378 -0.1110  0.2948 -0.3352
21721W        W36852  16.115   6.411   3.597 -0.2344 -0.3497 -0.2429
21722W        W36853  17.343  12.412  15.754  0.0508  0.0689 -0.1536
21723W        W36854   9.962  11.185  12.275  0.2436 -0.2847 -0.1577
21724W        W36855   8.423  13.869  12.988 -0.4644  0.0693  0.1143
21725W        W36856   1.074   4.725   0.755 -0.1156 -0.0608 -0.0665
21726W        W36857   9.339  15.800   1.005  0.0734 -0.2157  0.0937
21727W        W36858   4.871  17.037   2.810  0.2005 -0.0189  0.2355
21728W        W36859  15.159  14.561   1.833 -0.1039 -0.0413 -0.1293
21729W        W36860   4.978  14.813   4.720 -0.0392  0.0714  0.4094
21730W        W36861  15.993  12.407   4.097  0.3264 -0.0850 -0.2655
21731W        W36862   3.888   1.302   3.686 -0.0171 -0.3087 -0.1224
21732W        W36863   9.016   1.546   2.628  0.0018  0.2271 -0.1560
21733W        W36864  14.112  10.368  13.234  0.2356 -0.0751 -0.0036
21734W        W36865   4.493  13.398   0.397 -0.3622  0.2183 -0.0157
21735W        W36866   6.501   8.066   4.812  0.1551  0.0817  0.4076
21736W        W36867   3.318   8.690  16.664  0.0008  0.0317  0.0137
21737W        W36868   3.560  10.028   4.506  0.1313 -0.4271  0.1549
21738W        W36869  13.302   3.344  13.053 -0.1527  0.0260  0.1262
21739W        W36870  15.496   1.661   2.907  0.1657 -0.1308  0.1415
21740W        W36871  11.158   5.188  16.875  0.0926 -0.2899 -0.1727
21741W        W36872   0.334   4.253  16.152  0.2262 -0.0910 -0.1045
21742W        W36873   3.359  11.915  11.339 -0.0468  0.0276  0.2462
21743W        W36874   4.093  14.825  15.098  0.3054 -0.1402  0.2009
21744W        W36875  13.188   5.961   5.979  0.1539  0.0153  0.1090
21745W        W36876  17.425   4.272   1.104 -0.3735 -0.1372  0.2296
21746W        W36877   7.194   6.065   6.060  0.0265  0.3285 -0.1038
21747W        W36878   5.051   8.051  15.234  0.1191  0.0127  0.0458
21748W        W36879   2.230   0.508  15.135  0.0410 -0.1609  0.0653
21749W        W36880  15.282   0.961   5.771  0.4977  0.2396  0.0683
21750W        W36881   2.068  10.015  15.766  0.1265  0.0526  0.2013
21751W        W36882  10.918   2.231   1.440 -0.0598 -0.3031  0.1351
21752W        W36883  12.361  11.788   4.856  0.0929 -0.0788 -0.1120
21753W        W36884   1.491  10.855  13.849  0.2255 -0.2459 -0.0112
21754W        W36885  12.222  12.540  13.923 -0.2221  0.1325  0.4613
21755W        W36886   3.088  12.964  14.117  0.0167 -0.1005 -0.2048
21756W        W36887   9.275   2.192   5.301  0.0993  0.2122 -0.2485
21757W        W36888   9.455  11.795   3.610 -0.0087  0.0459 -0.1377
21758W        W36889   3.109  10.644  11.631  0.3571 -0.0494  0.0488
21759W        W36890   3.591   5.035  14.189  0.1222 -0.1685  0.1998
21760W        W36891  16.504  11.659  14.418  0.3586  0.3626  0.0968
21761W        W36892   6.823  16.770   4.712 -0.2799 -0.0675 -0.1634
21762W        W36893  16.921   0.385  11.290  0.1406  0.1402  0.4137
21763W        W36894   6.694   7.364  14.019 -0.3356  0.0416 -0.4674
21764W        W36895   4.358  10.961  12.639 -0.5465 -0.1375  0.2594
21765W        W36896  14.187   9.829   2.680  0.0593 -0.0924 -0.0669
21766W        W36897   7.095   6.270  14.503  0.1202 -0.0277  0.0347
21767W        W36898  12.757  11.724   5.159 -0.1997  0.0026 -0.1853
21768W        W36899   7.607  10.709  12.087 -0.0131  0.0757 -0.1186
21769W        W36900   7.149   6.431   1.676 -0.0280 -0.1918  0.4342
21770W        W36901   2.190   0.013   5.303  0.1428 -0.1518 -0.0227
21771W        W36902   8.236  16.859   1.054 -0.0849 -0.1464  0.2029
21772W        W36903   0.635  10.048   2.486 -0.2093  0.0047 -0.0331
21773W        W36904   4.313   8.684  15.020 -0.0145 -0.1514 -0.1945
21774W        W36905  11.769  10.535   2.427 -0.1174 -0.2197  0.0128
21775W        W36906  14.573  12.874   3.646  0.1140  0.1100  0.0599
21776W        W36907   2.865  15.408   4.926  0.3856 -0.3822  0.1939
21777W        W36908  16.977   5.020  15.860  0.1376  0.1017 -0.1937
21778W        W36909   4.744   4.556   0.933  0.0487  0.0786 -0.1124
21779W        W36910  14.165   0.126  14.938  0.0742 -0.1956 -0.0418
21780W        W36911  14.056   5.464  11.912 -0.1176 -0.3096 -0.0124
21781W        W36912  17.499   8.775   5.473 -0.0734  0.0117  0.1267
21782W        W36913  14.928   3.672   1.719 -0.0860  0.1168 -0.0129
21783W        W36914  17.369   8.050   3.178  0.0064 -0.4500 -0.0291
21784W        W36915  11.497   6.806  13.733 -0.0573  0.0801  0.1350
21785W        W36916  13.308  11.140   3.917  0.0438 -0.2680  0.1834
21786W        W36917   9.534   1.134   3.160  0.1033  0.1017  0.0578
21787W        W36918  13.195   8.699   5.530 -0.2131 -0.2552 -0.1540
21788W        W36919   4.015  15.018   1.567  0.1231  0.0691 -0.0752
21789W        W36920  16.880   5.528  13.926 -0.2287  0.2860 -0.2447
21790W        W36921  15.958  12.791   0.551  0.3369 -0.1198 -0.2610
21791W        W36922   5.698   7.768   5.339 -0.0944  0.0767  0.0588
21792W        W36923   2.958  11.057   5.254  0.2560  0.2072  0.2139
21793W        W36924   7.970   9.998  15.069 -0.1821  0.4027 -0.3418
21794W        W36925   8.353   6.305  12.670 -0.1745 -0.0821 -0.0384
21795W        W36926   6.103   3.235   4.544 -0.0941 -0.1969 -0.2673
21796W        W36927   8.596   4.933   4.093 -0.1407 -0.0993  0.2685
21797W        W36928   6.234   8.009  14.537 -0.2495  0.0828  0.2635
21798W        W36929   5.440   0.475  13.803 -0.0303  0.1270  0.3315
21799W        W36930  14.569  14.730  13.659  0.2299  0.0256 -0.2393
21800W        W36931  11.304   0.351   2.018  0.3276  0.2135 -0.3015
21801W        W36932  11.492   7.475   0.254 -0.2221 -0.0772  0.0342
21802W        W36933  14.715  15.634   3.170 -0.0938 -0.3533 -0.0827
21803W        W36934  15.621   6.937  14.997 -0.1578 -0.0488  0.0336
21804W        W36935   4.526   8.216  16.512 -0.0376  0.0263 -0.0399
21805W        W36936  16.811  14.150  12.851  0.2495 -0.0636 -0.3288
21806W        W36937  10.642   6.129   2.212 -0.2926  0.0629  0.0076
21807W        W36938  15.955   2.397   4.538  0.2244  0.3604  0.3646
21808W        W36939  11.471  15.477   3.498 -0.2681  0.0177 -0.0802
21809W        W36940  17.497   6.154   0.964 -0.4264 -0.1258  0.0347
21810W        W36941   9.905   8.199  15.862 -0.1660  0.0028  0.4894
21811W        W36942  17.563   9.182   1.846  0.1924 -0.0569  0.0873
21812W        W36943  14.813   6.422  16.504  0.3003  0.1140 -0.2578
21813W        W36944  10.629   0.966   4.602 -0.2562  0.0915  0.2656
21814W        W36945   6.030  14.952  13.291  0.0354  0.0207  0.2030
21815W        W36946  11.297   3.055   2.066 -0.3202  0.0019  0.5453
21816W        W36947  11.692   2.833   1.771  0.0079 -0.3557 -0.1423
21817W        W36948   8.113  16.045  14.458  0.0150 -0.0694  0.0342
21818W        W36949   9.147  13.948   2.467  0.2073  0.2069  0.2401
21819W        W36950   4.660   9.622  16.656 -0.0633 -0.4565 -0.1381
21820W        W36951   8.923   3.955  15.637  0.1741  0.0928 -0.0214
21821W        W36952  11.320  10.660   2.244  0.1554  0.0998 -0.2517
21822W        W36953   8.495   5.656   0.297  0.0161 -0.0935  0.0175
21823W        W36954   3.775  16.164  11.067  0.0029  0.3267  0.1776
21824W        W36955  14.313   0.575  11.776 -0.1058 -0.1611  0.1690
21825W        W36956   6.890   3.868  11.352  0.0784  0.2171 -0.2995
21826W        W36957   8.603   0.106   0.220 -0.1669 -0.2508 -0.0683
21827W        W36958   2.192   0.536   2.994 -0.1173  0.4463 -0.0169
21828W        W36959  15.537  12.347  12.053 -0.0254 -0.2094 -0.2773
21829W        W36960  16.036   2.830   0.260 -0.3885 -0.0386 -0.1273
21830W        W36961   6.584   4.964   4.121  0.1121 -0.1035  0.0699
21831W        W36962  14.381   6.776  14.412  0.1129 -0.1259  0.2144
21832W        W36963   0.527  16.362   1.387  0.1312 -0.3330  0.0085
21833W        W36964  10.126  15.669   3.623 -0.1350 -0.0452  0.2471
21834W        W36965   2.305   2.194   2.852  0.1735  0.0697  0.1837
21835W        W36966   5.390   2.756   5.786 -0.1640  0.1460  0.0218
21836W        W36967  16.130  12.198  16.755  0.2173 -0.0457  0.0272
21837W        W36968  11.262   0.260  12.627 -0.0172  0.1171  0.1077
21838W        W36969  13.591   4.543   2.527  0.1177  0.2886 -0.1068
21839W        W36970   2.973   0.990   3.140  0.0742  0.0305  0.2015
21840W        W36971  16.688   7.718   6.206  0.0994  0.0332 -0.0268
21841W        W36972   3.391  15.800  14.504  0.0574 -0.0345  0.2592
21842W        W36973   9.659   4.447   1.048 -0.1006 -0.0407 -0.0867
21843W        W36974   9.930   5.691   5.442 -0.1290 -0.3109  0.0609
21844W        W36975  14.797   8.088   5.805  0.1652  0.0408 -0.2269
21845W        W36976   0.430   4.353  15.636  0.1667 -0.2973 -0.1039
21846W        W36977  16.600  11.389   3.467 -0.2759  0.1770  0.0732
21847W        W36978  17.670   2.051   1.149  0.0813  0.2670 -0.0172
21848W        W36979  10.425  11.556   0.630 -0.1704 -0.0261  0.1939
21849W        W36980  17.287   2.729   3.221  0.0246 -0.2135 -0.1168
21850W        W36981   8.705  10.491  14.766  0.0731  0.2207 -0.1567
21851W        W36982  10.258  16.161   3.524 -0.2474 -0.0254  0.2995
21852W        W36983  11.194   6.314   0.763  0.1976 -0.0506  0.0480
21853W        W36984  14.258   0.347   2.374  0.0441  0.0655  0.0139
21854W        W36985  15.028   2.197   1.947 -0.0668 -0.1009  0.0029
21855W        W36986   5.750   9.678  12.722  0.1139 -0.0503 -0.1110
21856W        W36987  17.626   1.556   1.183 -0.4250  0.0045 -0.0053
21857W        W36988  10.015   0.002  14.884 -0.2133 -0.0204 -0.1487
21858W        W36989  10.572   3.984  14.151 -0.1723  0.1447  0.0503
21859W        W36990  13.317   4.605   3.367  0.3061 -0.1897  0.1272
21860W        W36991   7.398  17.666   2.829  0.0850  0.1411  0.2478
21861W        W36992  17.201  10.413  14.071  0.3663  0.0839 -0.0669
21862W        W36993   9.723   8.929  11.318  0.1781  0.1976  0.0907
21863W        W36994  10.359   6.113  11.932 -0.1690 -0.1262 -0.1376
21864W        W36995   5.695  10.112   2.083  0.1994  0.0575  0.1468
21865W        W36996   5.252   9.297   2.022 -0.3135  0.0504 -0.0898
21866W        W36997   0.138   9.746   2.554 -0.2440  0.2460 -0.0634
21867W        W36998   9.107  12.850  15.846  0.0064 -0.1167  0.2233
21868W        W36999  10.263   6.411   0.131 -0.0916 -0.0395 -0.2425
21869W        W37000  12.514   2.717   0.182 -0.1071 -0.0120 -0.2192
21870W        W37001   8.247  16.877  14.938 -0.2325 -0.2348  0.2893
21871W        W37002   9.169   0.098   1.604  0.2650 -0.0601 -0.0272
21872W        W37003  13.664   5.461   1.481  0.2576 -0.1669  0.0208
21873W        W37004   3.157   4.002   0.680  0.0120 -0.0786 -0.1680
21874W        W37005   9.098   9.833  13.091  0.1584  0.0142  0.0388
21875W        W37006   1.132   1.192  11.790  0.1051  0.0749 -0.1147
21876W        W37007  13.169   4.166   2.391  0.0123 -0.2628 -0.0079
21877W        W37008  11.725   6.039   2.623  0.0284 -0.0276  0.2142
21878W        W37009  15.223   1.180   2.814 -0.0271  0.0085 -0.0193
21879W        W37010  10.414  13.811   0.382  0.0106  0.1632 -0.3974
21880W        W37011  11.332   5.001  11.326  0.0942  0.1828 -0.0240
21881W        W37012  11.531  15.447   4.446  0.0442  0.1926  0.1184
21882W        W37013   3.199  15.760  12.855  0.2899  0.1156  0.6915
21883W        W37014  10.007   5.746  11.858 -0.0278  0.0753 -0.0213
21884W        W37015   3.646  11.219  14.764  0.0476  0.2883  0.4112
21885W        W37016   6.279  11.114   2.182 -0.1240 -0.2550 -0.0513
21886W        W37017  11.503   6.161   1.360  0.0312 -0.0068  0.2250
21887W        W37018   3.710   2.276  12.392 -0.1156 -0.1020 -0.3874
21888W        W37019  17.429   7.176  11.400 -0.2335  0.1146 -0.0986
21889W        W37020  11.419  15.983   3.650  0.2316  0.2262  0.0685
21890W        W37021  16.417  16.254   2.671 -0.0869 -0.0219 -0.0965
21891W        W37022   0.207   4.870  11.548  0.1478 -0.3039 -0.0612
21892W        W37023  15.295   3.930  14.082 -0.2183  0.1033 -0.0014
21893W        W37024  16.871   2.406  15.553  0.1130 -0.0455  0.3051
21894W        W37025   3.762  17.285  14.745 -0.0027  0.0907  0.2482
21895W        W37026   2.546   4.119   4.053 -0.1304 -0.0169 -0.0109
21896W        W37027  10.389   1.324   5.333 -0.2343 -0.0597 -0.0678
21897W        W37028   8.906   7.995   6.030  0.2122 -0.2672  0.0437
21898W        W37029   4.522   6.287  14.478 -0.0542  0.1048  0.0258
21899W        W37030  13.290   3.089   3.602  0.0762 -0.0971 -0.0082
21900W        W37031   4.739   0.649   3.428 -0.1594  0.0845  0.0559
21901W        W37032  15.583   6.616   5.000 -0.0653 -0.0031 -0.0280
21902W        W37033  13.926  15.251  12.504 -0.0098  0.1594  0.1883
21903W        W37034   0.928  12.063  15.848  0.0834  0.0337  0.0508
21904W        W37035  16.003   5.768  13.544 -0.2441 -0.3552 -0.3279
21905W        W37036  11.743   6.603  11.821  0.0919 -0.0892  0.1915
21906W        W37037   4.400  12.580   2.434 -0.0456  0.0270  0.0651
21907W        W37038   4.006   6.439  14.870 -0.1356  0.1694  0.1453
21908W        W37039   0.528   6.264   1.515 -0.1531 -0.0270  0.0939
21909W        W37040  12.073  12.790   6.192  0.0531 -0.1271  0.2973
21910W        W37041  11.630  15.066  13.791  0.0091  0.1296 -0.2093
21911W        W37042   8.465   4.115   5.164  0.2315  0.2457  0.0820
21912W        W37043  12.695  16.601  14.826 -0.0439  0.1908 -0.0690
21913W        W37044   5.580  12.659   0.373  0.0131 -0.0077  0.0155
21914W        W37045   1.042  10.199   5.963 -0.0050  0.2226 -0.0343
21915W        W37046   3.651  15.221   6.054  0.1355  0.0555  0.0098
21916W        W37047   2.062  13.331   4.238 -0.1658  0.0168  0.0515
21917W        W37048  15.694  12.359  12.534 -0.1265  0.0422 -0.0751
21918W        W37049   6.262   4.959   2.927  0.1063  0.0739 -0.1272
21919W        W37050  14.611   8.554  12.621 -0.1204 -0.1425 -0.1564
21920W        W37051  16.440   4.864   3.150  0.2569 -0.2545  0.1469
21921W        W37052  11.648   7.332  16.697 -0.2203  0.3182 -0.0396
21922W        W37053  12.115  13.281   3.575 -0.0357 -0.1520 -0.1624
21923W        W37054   4.617   9.303  16.131  0.0953  0.0198 -0.1270
21924W        W37055   8.177   6.251  13.553  0.2364  0.0987 -0.0748
21925W        W37056   5.234   6.137  12.330  0.0617 -0.1260 -0.2142
21926W        W37057   6.521   4.106   3.078  0.0497  0.1594  0.2674
21927W        W37058   8.162   2.008   4.254 -0.1285  0.0310 -0.0464
21928W        W37059  13.890  14.436   5.438 -0.2116  0.0358  0.0053
21929W        W37060   4.813   4.662  14.521  0.1045  0.1305 -0.1681
21930W        W37061   1.687  15.305   5.357  0.1222 -0.1097 -0.0578
21931W        W37062  11.542  17.471   1.425 -0.2975 -0.2122 -0.5498
21932W        W37063  17.579   2.228   2.965  0.2007  0.2757  0.1589
21933W        W37064  15.658  12.084   4.874 -0.0223  0.2097 -0.3514
21934W        W37065  16.833  11.773  13.899  0.2153 -0.3491 -0.1159
21935W        W37066   8.627  11.498   5.057 -0.1288 -0.1003 -0.0356
21936W        W37067   6.821   6.392  14.874 -0.0547 -0.1380 -0.0612
21937W        W37068  15.775   8.009   2.096 -0.0174  0.4828 -0.0739
21938W        W37069   4.243   3.498   0.319  0.1503 -0.2974  0.0836
21939W        W37070  12.070  16.941   3.403  0.1405  0.0333  0.0614
21940W        W37071  14.460   9.163  10.444  0.3083 -0.2817  0.0230
21941W        W37072  10.924  10.079  15.621  0.0640  0.0406 -0.0504
21942W        W37073   6.709  16.024   1.748  0.0096  0.0113 -0.1684
21943W        W37074  15.346   5.718  12.348 -0.2063  0.1047  0.3900
21944W        W37075  10.889  13.433  16.468 -0.1235 -0.2928  0.2670
21945W        W37076   6.146  13.779   3.963  0.1400 -0.0212  0.0645
21946W        W37077   9.444   5.363   1.082 -0.2931 -0.1785 -0.1172
21947W        W37078  14.223  12.911  13.596  0.1770  0.1754  0.0937
21948W        W37079   9.478  16.096   0.351 -0.0341  0.3038  0.0449
21949W        W37080   4.314  10.088  14.317 -0.1713 -0.0052 -0.0027
21950W        W37081  13.455   5.731  16.765  0.0470 -0.0688  0.1088
21951W        W37082   6.088   5.694   0.643  0.1203  0.5311  0.1720
21952W        W37083   6.114   5.936  10.800  0.3365 -0.0631 -0.0200
21953W        W37084  15.252   0.525  15.973  0.2480 -0.1897 -0.0402
21954W        W37085   6.691   0.517   2.782  0.0478 -0.5055  0.0073
21955W        W37086   9.463   3.175  13.198 -0.1770 -0.3744 -0.1801
21956W        W37087  13.177  13.122  14.225 -0.1143  0.0214  0.0287
21957W        W37088   9.087   4.783  12.065  0.0943 -0.1080 -0.0844
21958W        W37089   7.435  11.497   3.809  0.0435  0.0742  0.3868
21959W        W37090   6.282   8.120  15.924  0.1404  0.0102  0.2566
21960W        W37091  13.409   3.804  12.967 -0.2859  0.2400  0.2549
21961W        W37092   7.501  16.454  11.189  0.0446  0.2956  0.1909
21962W        W37093  10.492   9.937   4.114 -0.0998  0.0953 -0.1881
21963W        W37094  16.904  13.889   3.822  0.2535 -0.1252 -0.1482
21964W        W37095   0.345   6.947   4.233  0.1267 -0.1087 -0.0536
21965W        W37096   6.126   1.408   5.540  0.0661  0.2296  0.2346
21966W        W37097  15.804  11.373   0.137  0.1438  0.3420  0.1867
21967W        W37098  14.879  17.084  12.577 -0.0483  0.1173  0.1815
21968W        W37099   7.718   9.289   5.551  0.0029  0.0587 -0.1040
21969W        W37100  11.750   2.430  16.293  0.3485 -0.0452 -0.0576
21970W        W37101  16.038   3.636  15.414 -0.0254  0.0727 -0.0313
21971W        W37102  16.566  10.328   4.184  0.1425 -0.0552 -0.0033
21972W        W37103   3.484   5.578   1.356  0.1187 -0.1786 -0.3727
21973W        W37104  14.675   8.584   1.986 -0.2183  0.2924  0.0506
21974W        W37105   1.895   9.038   1.990  0.1428  0.1664 -0.1538
21975W        W37106   3.432  10.295  15.435 -0.0193  0.2497  0.1072
21976W        W37107  13.366  13.358   2.091 -0.0467 -0.0445  0.0920
21977W        W37108   1.171   5.850   5.199  0.0814 -0.1880 -0.1228
21978W        W37109  11.135   6.617  12.930 -0.0549 -0.1512 -0.0374
21979W        W37110  17.271  14.626  13.991 -0.1705 -0.0352  0.0650
21980W        W37111   9.859   6.594  11.144 -0.1520 -0.0863 -0.0573
21981W        W37112  12.843   2.185   2.231  0.0347  0.1675  0.1339
21982W        W37113  15.769   0.309  11.479  0.2375  0.1816  0.0766
21983W        W37114   0.390  14.053  14.071  0.0370  0.0297  0.2094
21984W        W37115  11.775  10.340   2.942  0.3592  0.0548  0.0386
21985W        W37116  15.439  17.627  12.288 -0.1789 -0.1965  0.1739
21986W        W37117  14.580  17.556  15.115  0.0113  0.0222 -0.1383
21987W        W37118   7.455  14.862  13.429  0.0544  0.0500 -0.1272
21988W        W37119  15.039  14.245  15.775 -0.0012  0.0062 -0.0953
21989W        W37120   3.002   1.715   4.249  0.1878 -0.0292 -0.0306
21990W        W37121   0.521  15.893  16.524 -0.0795  0.3140 -0.2766
21991W        W37122  12.854   6.822  13.778 -0.1415 -0.2617  0.0876
21992W        W37123  13.711   6.057  11.300  0.4423 -0.2457  0.1760
21993W        W37124   8.881  11.120  14.105 -0.3079 -0.1320 -0.0062
21994W        W37125   9.330  14.158   2.069  0.1232 -0.0909 -0.1547
21995W        W37126  14.205   8.963   3.746 -0.1435  0.1089  0.0354
21996W        W37127  14.983   7.443  12.111  0.1889  0.0006  0.1882
21997W        W37128  10.937  14.988   2.860  0.2090 -0.2109 -0.1970
21998W        W37129   6.301  13.106   0.871  0.0399 -0.1195  0.2053
21999W        W37130   7.898  14.914   1.765  0.0846 -0.2871  0.0543
22000W        W37131  13.922   6.499  16.075 -0.0772  0.1444 -0.0286
22001W        W37132   5.244   9.040  13.381 -0.1427 -0.1356  0.1413
22002W        W37133   8.474   4.602  12.899  0.2056 -0.2499  0.0160
22003W        W37134   9.045   9.366   0.843  0.1050  0.4545 -0.1455
22004W        W37135   7.880  15.971   6.170  0.2735  0.1651  0.1590
22005W        W37136   9.710   8.949   3.939 -0.0334  0.0141  0.1057
22006W        W37137  15.966   4.411  16.874  0.1006 -0.3780 -0.1104
22007W        W37138   2.753   9.042   2.216 -0.1637  0.2840 -0.3005
22008W        W37139   7.722  14.223  16.661 -0.0112 -0.1699  0.0116
22009W        W37140   0.161  15.954  14.246  0.4483 -0.3328 -0.1748
22010W        W37141   4.482   8.328   3.810 -0.3370  0.1061  0.4323
22011W        W37142   4.696   6.503   1.189  0.2176 -0.1170 -0.0788
22012W        W37143  11.073  15.391   0.901 -0.0167  0.0273 -0.0170
22013W        W37144   2.681  10.422  16.596  0.1050 -0.0978 -0.0017
22014W        W37145   8.599   9.144  10.810  0.1058 -0.1707  0.2883
22015W        W37146   3.114  10.527   3.743 -0.5502 -0.0765 -0.0809
22016W        W37147   0.087   6.340   5.492  0.0462 -0.0243  0.0254
22017W        W37148   6.464   3.364   5.022  0.0239  0.0455 -0.2712
22018W        W37149   5.816  14.546  12.964 -0.1568  0.0279 -0.0809
22019W        W37150  10.787   9.808  16.198  0.2072 -0.1965  0.3491
22020W        W37151  14.887  16.201  12.285 -0.0270 -0.1997 -0.0953
22021W        W37152  14.800  11.022  14.624 -0.2604  0.1776 -0.0564
22022W        W37153  15.899  11.136   0.589 -0.0233  0.1339  0.0706
22023W        W37154   0.217  13.368  11.744 -0.2004 -0.1589 -0.3369
22024W        W37155   0.127   3.653   1.648  0.0446  0.0116 -0.1514
22025W        W37156   7.443  13.380  16.446 -0.1153  0.0940  0.3812
22026W        W37157  16.593   6.066  12.260 -0.0395  0.0707  0.0145
22027W        W37158   6.356  12.579  13.999  0.0654  0.0458  0.2768
22028W        W37159  14.502   0.545  16.761 -0.1383 -0.1324  0.1271
22029W        W37160   2.950  10.192  16.894  0.0833 -0.0077  0.0331
22030W        W37161   4.575   8.701  15.527  0.0954  0.0032  0.1084
22031W        W37162   3.827   4.117   0.888  0.1659  0.4072  0.0048
22032W        W37163  11.636   8.831  15.339 -0.0298  0.4178 -0.1603
22033W        W37164  15.135  15.316  13.003  0.1105  0.0110  0.1896
22034W        W37165  14.613   8.976   5.376  0.0619  0.3113 -0.1261
22035W        W37166   5.077  10.176  11.446 -0.0608 -0.0203  0.0944
22036W        W37167   0.868  15.591   3.172 -0.1260  0.0669  0.0583
22037W        W37168  16.978  16.057  13.600  0.2236 -0.0938  0.3268
22038W        W37169  14.153  13.293   3.422  0.2641 -0.0669  0.1651
22039W        W37170   2.930  16.236  13.015 -0.1651 -0.1197  0.0014
22040W        W37171  10.380   1.932   2.926  0.0478  0.0312 -0.1202
22041W        W37172   3.061   5.539  15.473  0.0158 -0.1222 -0.0510
22042W        W37173   0.313   1.502  15.265  0.2636  0.1260  0.4022
22043W        W37174   4.776  16.760   0.674  0.1005  0.3401 -0.1949
22044W        W37175   1.422  16.705  15.792  0.1916  0.2175 -0.1224
22045W        W37176   6.724   7.168   4.635  0.1049 -0.2692  0.3601
22046W        W37177   9.236  12.664   5.388 -0.0872 -0.2053  0.2908
22047W        W37178  13.730   1.257  13.745 -0.1207 -0.2147 -0.0518
22048W        W37179  13.897   4.800  15.139  0.0530  0.0999 -0.0766
22049W        W37180   1.305  14.365   0.447  0.1455  0.1785  0.2154
22050W        W37181   8.757  17.112  10.773 -0.0043 -0.1424  0.0196
22051W        W37182   3.241   9.678  12.479  0.1333 -0.1387 -0.2549
22052W        W37183  12.628  12.659   5.451  0.0700 -0.0103  0.0834
22053W        W37184  10.343  12.386   0.118  0.0328 -0.1662  0.1537
22054W        W37185  11.059   6.836  15.438  0.2010  0.0096  0.0798
22055W        W37186  12.501   7.548   2.221 -0.0773 -0.1029  0.1790
22056W        W37187   0.962  10.474  12.502 -0.0312  0.0427 -0.0888
22057W        W37188   6.035   4.747   5.615 -0.2046  0.1633 -0.1194
22058W        W37189  11.399   1.488  14.838 -0.1105  0.1598 -0.2295
22059W        W37190  15.871  14.309   5.331  0.1235 -0.0011 -0.0332
22060W        W37191  17.643  16.073   3.236 -0.1183 -0.1705  0.0923
22061W        W37192  11.395   6.133  15.579  0.3721  0.0035  0.1344
22062W        W37193   6.936   9.056  15.396  0.0072  0.0896 -0.0156
22063W        W37194   6.848  12.797  16.657 -0.0900 -0.2306  0.4102
22064W        W37195   7.309   3.961   3.135 -0.1260  0.0407 -0.1988
22065W        W37196   8.192   3.733  12.738  0.3707  0.1654 -0.2481
22066W        W37197  17.297   0.543   0.669  0.1648 -0.1630 -0.1807
22067W        W37198  16.781  11.423  14.789  0.2357  0.1418  0.1295
22068W        W37199  17.466  10.260   3.162 -0.1332  0.0860  0.2214
22069W        W37200  11.867  15.744  15.786 -0.0684  0.0214 -0.1447
22070W        W37201  15.196   6.550   3.365  0.1098 -0.2831  0.3557
22071W        W37202  10.269  12.677   1.249  0.0925 -0.0179  0.0047
22072W        W37203   4.939   4.852  16.281 -0.0190 -0.0904  0.0056
22073W        W37204   0.131  14.615   1.346 -0.1908  0.1604  0.0566
22074W        W37205  11.685   2.171   4.135  0.1569  0.2037  0.1142
22075W        W37206   9.248  11.705   1.841 -0.1723 -0.1811 -0.0786
22076W        W37207   0.515   3.590  11.930  0.3201  0.0825  0.0320
22077W        W37208   7.075   3.364  14.720 -0.1431 -0.1410 -0.0813
22078W        W37209   6.855   2.147   3.937 -0.2202  0.3604 -0.3662
22079W        W37210  12.667   4.159  16.841 -0.1021 -0.1865 -0.1645
22080W        W37211  13.487   5.105   4.252 -0.2261  0.0726  0.0181
22081W        W37212  13.951  10.113   0.367  0.3076 -0.1052 -0.0469
22082W        W37213   6.252   2.004  16.430 -0.3166 -0.0522  0.1138
22083W        W37214  10.638   3.428   2.726  0.1424  0.1775 -0.1854
22084W        W37215   5.859  17.204   1.239 -0.0037 -0.0099 -0.0547
22085W        W37216   3.830   4.765   5.424  0.0082 -0.0584  0.0506
22086W        W37217  15.248   1.719  12.742  0.4065  0.2269 -0.0587
22087W        W37218  15.219   9.239   0.004  0.1043  0.1296  0.2215
22088W        W37219  16.010  10.796  11.541  0.0463 -0.0144 -0.0688
22089W        W37220   1.443   4.791  11.026 -0.1838 -0.0178 -0.0733
22090W        W37221   2.617  11.800   4.977 -0.0319  0.2290  0.0439
22091W        W37222   5.629   9.663   3.000 -0.3181 -0.2093 -0.0711
22092W        W37223  14.689  15.367   1.956  0.0890 -0.0871 -0.2410
22093W        W37224   0.956   6.994   3.192  0.2539  0.0974  0.2104
22094W        W37225  12.001  14.048   5.482 -0.0904 -0.3149  0.0707
22095W        W37226   5.439   5.647  11.622  0.0520 -0.1877  0.0341
22096W        W37227  11.711   3.684  15.602  0.0405  0.0041  0.3527
22097W        W37228  15.315  10.797   6.384 -0.1750  0.0509  0.0863
22098W        W37229  13.341  15.285   0.330 -0.1992  0.2545 -0.2303
22099W        W37230   4.267   1.172  15.089 -0.0855 -0.3263 -0.0319
22100W        W37231   6.652  17.108   5.640  0.0428  0.2636 -0.0159
22101W        W37232   9.914   2.130   1.408  0.2804  0.0819 -0.0165
22102W        W37233  16.603   9.276  11.221 -0.0893 -0.0904  0.0998
22103W        W37234  10.473  14.427  13.456  0.1920 -0.2992  0.0590
22104W        W37235  16.871   2.984   3.398  0.2914 -0.1107 -0.1387
22105W        W37236  14.920  12.431   0.381  0.1642  0.0641  0.5396
22106W        W37237  13.781  13.949  12.237 -0.1939  0.1078  0.0368
22107W        W37238  11.121   4.009   3.897  0.0676  0.1058 -0.0498
22108W        W37239   3.866  14.633   3.822 -0.0524 -0.0810  0.3751
22109W        W37240  11.402   2.965   0.607  0.0466 -0.1143  0.0008
22110W        W37241   5.558  10.171   3.182 -0.2340 -0.1972  0.1228
22111W        W37242   8.928   7.199  14.883  0.0151  0.1449 -0.0379
22112W        W37243   6.659  17.056   0.360 -0.1257  0.0037 -0.0967
22113W        W37244  16.675   0.492   2.622  0.0125 -0.1318  0.0633
22114W        W37245   3.776  17.049  13.138 -0.1899 -0.0684 -0.2262
22115W        W37246  10.010  16.308  14.482  0.1469  0.1687  0.1718
22116W        W37247  10.537   0.065  12.215  0.2039  0.3614  0.0426
22117W        W37248   8.380  14.988  16.607  0.4107 -0.2443 -0.0915
22118W        W37249  11.246   8.415   5.595  0.1116 -0.0422  0.0007
22119W        W37250   8.456   5.651   3.070 -0.1751  0.0354  0.0850
22120W        W37251   7.854   1.723   4.550  0.0253 -0.1487  0.0509
22121W        W37252   4.688  11.533  16.469  0.1371 -0.0803  0.3113
22122W        W37253  12.823   5.987   0.456 -0.1037  0.1947 -0.2155
22123W        W37254  12.766   5.494  13.613 -0.1114  0.0754 -0.4931
22124W        W37255  15.631  13.491  11.216  0.0092  0.2062 -0.3156
22125W        W37256  17.067   7.639   2.098 -0.1187  0.2662 -0.1662
22126W        W37257  17.065  16.634   0.756 -0.2727 -0.4934  0.1708
22127W        W37258  11.110   0.655  15.948  0.0709 -0.1664  0.2201
22128W        W37259   5.511   3.044   0.275 -0.0666 -0.1058 -0.0843
22129W        W37260   5.526   3.397   5.363  0.0500  0.2332  0.1126
22130W        W37261  16.853   2.194  13.459  0.1147 -0.0719 -0.2021
22131W        W37262  13.451   5.940   1.411  0.0091  0.0722 -0.0081
22132W        W37263   7.160  16.768   3.799 -0.0003  0.0203 -0.1275
22133W        W37264  12.759   9.035  11.556 -0.0858  0.0195  0.1321
22134W        W37265   9.026  10.824   5.571 -0.1306 -0.1008 -0.0384
22135W        W37266   7.636   3.288  15.027  0.0699 -0.1618  0.0120
22136W        W37267   7.194   1.964   5.438  0.2142 -0.2680  0.1775
22137W        W37268   9.961   3.042   5.765 -0.0249 -0.2091  0.0174
22138W        W37269  16.022   6.017   5.707 -0.1062 -0.1147  0.0140
22139W        W37270   2.684   0.603   3.025  0.0858 -0.5120 -0.2361
22140W        W37271  13.176  14.890   5.291 -0.0508 -0.0648 -0.1095
22141W        W37272  17.713  11.979   2.972  0.1381 -0.2878 -0.1727
22142W        W37273   9.792  15.441  14.955 -0.1170 -0.1617 -0.2189
22143W        W37274   5.947   3.132   4.087 -0.0102  0.2086 -0.2172
22144W        W37275  11.384   4.613  10.983  0.0414 -0.1232 -0.0151
22145W        W37276   6.037   9.011  15.491 -0.2512  0.3153 -0.0492
22146W        W37277   8.388  14.964   4.574  0.2073 -0.1445 -0.1450
22147W        W37278   9.494  12.470   3.969  0.3222 -0.1046  0.0383
22148W        W37279  17.192   5.579   2.015  0.2693 -0.2956  0.0143
22149W        W37280   8.657  11.733   3.607 -0.0551  0.1002 -0.0100
22150W        W37281   0.921  15.514  14.999  0.2550 -0.3447 -0.2024
22151W        W37282  14.937  16.697   5.438 -0.0696 -0.0510 -0.0111
22152W        W37283   7.729  17.480   3.150  0.1916  0.0718  0.0731
22153W        W37284   1.433  11.255   3.812  0.2158 -0.0593 -0.0625
22154W        W37285   3.249   0.826   5.316 -0.1566 -0.2136  0.2773
22155W        W37286  10.999   7.868  13.651 -0.2359  0.1523 -0.2389
22156W        W37287   7.055  13.432  16.740 -0.1086 -0.0752 -0.0013
22157W        W37288   8.822  14.057  14.126 -0.2051 -0.0793  0.0211
22158W        W37289   4.489   1.488  13.977  0.1475  0.0311 -0.1805
22159W        W37290   1.351  17.377   2.441 -0.0604  0.1267 -0.0756
22160W        W37291   3.464   6.335   1.620  0.0002 -0.1794 -0.2843
22161W        W37292   0.108   4.204   0.238 -0.0265 -0.3160 -0.0381
22162W        W37293  16.171   2.201   3.386  0.1746 -0.1317 -0.0869
22163W        W37294   6.831   9.469  13.802  0.1570 -0.1328  0.2537
22164W        W37295   2.413  10.195  12.952 -0.0228  0.3083  0.1181
22165W        W37296   3.423  16.681   1.779 -0.2068  0.0580  0.2363
22166W        W37297  14.402   4.012  10.138  0.4133  0.0327  0.0470
22167W        W37298   7.545   3.263  15.924  0.0608  0.1308 -0.3057
22168W        W37299   7.741  10.912  12.590  0.1165  0.4960 -0.1246
22169W        W37300  15.695   9.567   4.737 -0.1685  0.3282  0.0381
22170W        W37301  16.562  12.534  13.597  0.1008 -0.0604  0.1684
22171W        W37302   7.528  15.133   2.765  0.1389  0.1524  0.2965
22172W        W37303  12.842   4.418  11.116 -0.1906 -0.0881  0.0726
22173W        W37304   7.356   7.302   1.451  0.0651  0.1248 -0.0036
22174W        W37305  12.841   4.285   2.845  0.2200 -0.0488  0.2576
22175W        W37306  11.323   6.799  11.492  0.2844  0.0931 -0.1067
22176W        W37307  14.376   4.868   2.465 -0.3974 -0.1375  0.2972
22177W        W37308   0.654  14.439  14.676 -0.0761  0.1715  0.1242
22178W        W37309  15.439   3.247   4.555  0.0243 -0.2118 -0.3336
22179W        W37310   8.651  12.257   1.881  0.0410  0.1964 -0.0381
22180W        W37311  17.126   1.208  14.787  0.1316 -0.2964 -0.0757
22181W        W37312  16.921   4.182  14.795  0.2217 -0.0184  0.0650
22182W        W37313  16.567   6.162   0.882  0.0449 -0.0523  0.2646
22183W        W37314   0.069   5.905   3.129 -0.1800  0.0046 -0.1511
22184W        W37315  11.978  15.613  12.161 -0.2976  0.1200 -0.0942
22185W        W37316   4.136  14.947   3.221 -0.2789 -0.0478 -0.1377
22186W        W37317  13.946   6.713  11.713  0.0221  0.0944 -0.4449
22187W        W37318  14.457   4.446   1.962  0.0175 -0.0472 -0.2341
22188W        W37319  17.580   0.481   4.053 -0.2726 -0.1186 -0.0874
22189W        W37320   5.939   0.041  11.918  0.1737 -0.0753 -0.0857
22190W        W37321   3.138  13.723   5.560  0.2058 -0.0876  0.0432
22191W        W37322   0.159   2.099  14.621  0.0861  0.1547 -0.0421
22192W        W37323  15.312  16.920  14.606 -0.3709 -0.0316  0.1494
22193W        W37324   6.771   5.325  11.929  0.0945  0.0033 -0.0110
22194W        W37325   3.150   4.775  14.392  0.0647  0.0316 -0.2923
22195W        W37326   5.164   8.132   5.368 -0.1089  0.3084 -0.1204
22196W        W37327  13.892  12.461   0.141  0.1712 -0.2479  0.2501
22197W        W37328   5.991  15.008  12.778  0.0861  0.0727  0.0819
22198W        W37329   2.366  17.587   2.408 -0.0065  0.1154 -0.0049
22199W        W37330   7.686  10.185   2.646 -0.0514  0.0823 -0.1875
22200W        W37331   5.648   3.742  14.096  0.0940  0.0010 -0.0920
22201W        W37332   3.326   7.668   4.660 -0.3432 -0.2212 -0.0845
22202W        W37333   6.885  12.168  16.765 -0.2431 -0.3358 -0.1791
22203W        W37334  12.741  14.157  12.266  0.0595 -0.1670 -0.0970
22204W        W37335   2.830   9.329  15.982  0.1827 -0.1068  0.1294
22205W        W37336   0.862   0.857  15.093  0.0538 -0.1268  0.1650
22206W        W37337  11.098  16.704   6.276 -0.0697  0.1414  0.0767
22207W        W37338   0.527   9.526  10.724 -0.1287 -0.2357 -0.1147
22208W        W37339   6.752   5.758   0.995  0.1072  0.0423 -0.1422
22209W        W37340  14.145   1.725  12.762  0.1912  0.0199 -0.2693
22210W        W37341  17.420   1.133   2.917  0.1326 -0.0430 -0.0646
22211W        W37342  12.524  17.004   4.325 -0.3200  0.0534 -0.1582
22212W        W37343  16.284   1.310  16.656 -0.2717 -0.2633  0.1116
22213W        W37344  13.617  12.101  13.555 -0.3751 -0.1005  0.0156
22214W        W37345  16.027   2.693  15.116 -0.1317  0.0301 -0.2257
22215W        W37346  13.218  16.097   2.013  0.0626 -0.0192  0.2326
22216W        W37347  14.520  13.350  13.756 -0.0629  0.0824  0.0873
22217W        W37348  13.084  10.089   3.798  0.0402 -0.0223 -0.0100
22218W        W37349   6.549  14.198   0.201 -0.1835  0.1378  0.3974
22219W        W37350   6.542   2.932  11.645 -0.1275  0.2217  0.1129
22220W        W37351   5.262  10.529  11.746  0.3005  0.0788 -0.1126
22221W        W37352   4.457   9.092   3.989  0.0988  0.0372 -0.1419
22222W        W37353   1.535  17.547  15.359 -0.1489 -0.2639 -0.1305
22223W        W37354   9.134  11.225   4.231  0.2616  0.1500 -0.0435
22224W        W37355   0.566  16.614  13.487  0.2738 -0.0650  0.1201
22225W        W37356  16.045  10.321   3.696  0.1508  0.3742  0.2617
22226W        W37357  13.170   9.782  12.926 -0.2233 -0.3478  0.1219
22227W        W37358  16.981  14.755   2.267  0.0454  0.1110 -0.1830
22228W        W37359   3.384   9.719  14.537 -0.1718 -0.1001  0.2303
22229W        W37360   9.638  15.037   0.125  0.0066  0.1947 -0.2073
22230W        W37361  16.485  13.467  15.980  0.0542 -0.0901 -0.0260
22231W        W37362   7.503  14.786   4.872 -0.0678 -0.1961 -0.1432
22232W        W37363   9.196  10.400   1.858  0.2498  0.2365 -0.0754
22233W        W37364   9.754   5.614  16.064  0.0226 -0.0898 -0.0926
22234W        W37365   1.941  15.576  14.014  0.1887 -0.2714 -0.2216
22235W        W37366   0.414  17.329  12.337 -0.1571 -0.0301  0.1588
22236W        W37367   5.673  16.261  13.160 -0.0690  0.0368  0.3607
22237W        W37368  15.017   6.306  12.994  0.0381 -0.1237  0.2443
22238W        W37369   5.876   9.875  14.384 -0.2144 -0.0312  0.1519
22239W        W37370  11.676   1.430   5.080 -0.1097  0.0427 -0.3268
22240W        W37371  12.362  14.007   2.864  0.2318 -0.3093 -0.2901
22241W        W37372  17.117  13.554   0.300 -0.2129 -0.2077  0.0073
22242W        W37373  15.010  17.486   1.218  0.1888  0.0209 -0.3921
22243W        W37374   5.385   8.451   0.212 -0.0205  0.1994 -0.1754
22244W        W37375  11.767  13.187  13.744 -0.2198  0.3650  0.0211
22245W        W37376  11.530  12.165  12.900  0.2187 -0.2030 -0.2475
22246W        W37377  12.425   6.581   3.499  0.1132  0.0018  0.0254
22247W        W37378   1.377   2.423   5.697  0.0169 -0.2439  0.1751
22248W        W37379   8.271  12.948  14.000  0.1887 -0.1214  0.0785
22249W        W37380   5.567  11.676   4.475  0.0085 -0.3184 -0.0491
22250W        W37381  16.749   9.941  15.721 -0.1270 -0.4922  0.0035
22251W        W37382  10.291  15.503  16.604  0.2102 -0.0833  0.0838
22252W        W37383  16.444   0.068   5.517  0.2691 -0.1686 -0.1676
22253W        W37384  17.000   7.842  13.297 -0.3714 -0.1769 -0.0696
22254W        W37385   5.239   7.423  13.707 -0.1618 -0.1623 -0.0080
22255W        W37386  10.130   6.643   4.435  0.1671 -0.0243  0.0679
22256W        W37387  17.360  11.270  13.283 -0.1374 -0.0487 -0.2137
22257W        W37388   3.285   4.872   3.040  0.0464 -0.1100 -0.1455
22258W        W37389  17.298   7.190   0.659  0.2065  0.0006 -0.1521
22259W        W37390   6.763  16.653   3.054 -0.1876  0.2132  0.4701
22260W        W37391   1.337   8.118   3.819 -0.1707  0.1385 -0.1032
22261W        W37392   3.775   3.411  16.923  0.0918 -0.1047 -0.2515
22262W        W37393  15.881   1.093   3.928 -0.2111 -0.1106  0.2035
22263W        W37394   5.770   5.670   2.959 -0.0182  0.0494  0.2495
22264W        W37395   4.988  16.640  14.674  0.2333  0.0630  0.0687
22265W        W37396   2.408  11.650  16.376  0.0789  0.0457  0.1786
22266W        W37397  12.619   1.956   3.075  0.0872  0.1461 -0.0217
22267W        W37398   6.120  14.204   2.230 -0.0977 -0.2677 -0.2140
22268W        W37399  14.259   8.156   1.212  0.1852 -0.0556  0.2851
22269W        W37400  16.214   3.719  12.230 -0.0708  0.0903 -0.0333
22270W        W37401   2.963  15.538   2.783 -0.1703  0.2727 -0.3600
22271W        W37402  12.772   1.319   4.815 -0.1554 -0.3877 -0.1062
22272W        W37403  11.963   7.445   3.541  0.1824  0.2010 -0.1810
22273W        W37404   9.177  16.432   6.243  0.2716  0.0525 -0.0241
22274W        W37405  11.610   8.226  16.576 -0.1274  0.1292  0.4202
22275W        W37406   8.406   7.198  15.720 -0.3189  0.3135 -0.0813
22276W        W37407  10.118   9.897   3.498  0.2654  0.1535 -0.1664
22277W        W37408  12.309  10.208  13.446  0.2221  0.0878  0.0338
22278W        W37409   1.525   3.747  11.927 -0.0274 -0.3032  0.1705
22279W        W37410   5.081  17.073  15.458 -0.2527 -0.0640 -0.1587
22280W        W37411   9.146   1.507  12.624  0.4113 -0.0644  0.1388
22281W        W37412  14.384   4.563  12.777 -0.1308  0.0371 -0.0297
22282W        W37413  12.252   8.651   3.065 -0.1995 -0.0312  0.1332
22283W        W37414  10.300   3.647  12.865 -0.1207  0.2113 -0.0201
22284W        W37415   6.056   2.225  15.399 -0.3632 -0.0035 -0.3262
22285W        W37416   5.180   4.003  15.804 -0.0041 -0.0118  0.2183
22286W        W37417   5.786   9.317  14.572 -0.0211 -0.4042 -0.0091
22287W        W37418  12.968  12.126  12.250  0.1412 -0.2164 -0.0416
22288W        W37419   7.877   8.071  15.417  0.0386  0.1559  0.1402
22289W        W37420  15.344   8.989   1.415  0.1260 -0.1439  0.0516
22290W        W37421   8.331   1.514   5.568  0.1934 -0.0598  0.0723
22291W        W37422   0.734   3.433  16.014 -0.2234  0.1524 -0.1568
22292W        W37423   9.305  11.715   1.102 -0.0399 -0.2148 -0.1443
22293W        W37424  11.892  13.711   0.182 -0.1438  0.1133  0.0058
22294W        W37425  15.407  10.088   2.186 -0.2784 -0.0854 -0.0280
22295W        W37426   9.451   2.470   0.151  0.1484  0.2231 -0.0182
22296W        W37427   8.051   7.963   0.549  0.2964 -0.1529  0.0240
22297W        W37428  12.963   3.792   0.205  0.1487  0.5574  0.0554
22298W        W37429   0.262   3.517   3.523  0.0865 -0.0884  0.0465
22299W        W37430  12.977   4.812  12.664  0.0508  0.0188  0.0707
22300W        W37431   5.249   5.583  13.189 -0.0410  0.0910 -0.0721
22301W        W37432   0.285   2.876   5.479 -0.0621  0.0337  0.0643
22302W        W37433  14.392   9.145  13.649  0.0329  0.0864 -0.2265
22303W        W37434   5.190   6.787   4.386  0.1351  0.0574 -0.0395
22304W        W37435   7.390   6.003  13.517  0.0179 -0.2100  0.3725
22305W        W37436   1.436   3.285   2.812 -0.1533  0.1126 -0.1468
22306W        W37437   6.669  14.196   4.200  0.1170 -0.2994  0.2319
22307W        W37438   2.667   6.340   0.018  0.1659 -0.1009  0.3514
22308W        W37439  12.650  12.117  11.749 -0.1211  0.1272 -0.2172
22309W        W37440   8.060   6.652  12.288  0.1336 -0.0050 -0.2141
22310W        W37441   9.241   4.412   4.544 -0.1467  0.0710  0.3518
22311W        W37442  11.252   4.441  13.408  0.1928 -0.4067  0.1169
22312W        W37443   4.691   7.649  10.589 -0.0634  0.0724 -0.0450
22313W        W37444   0.097  13.675   4.494 -0.1165 -0.1929 -0.0587
22314W        W37445  15.787   8.851   4.286 -0.1051 -0.0063  0.0835
22315W        W37446   7.137  12.156  15.105  0.0499 -0.0199  0.2685
22316W        W37447   7.145   1.387   6.516 -0.4964  0.0919  0.0933
22317W        W37448  12.169   9.015  16.897  0.0608  0.2207  0.0941
22318W        W37449  14.995  13.529  15.096  0.0319 -0.0162  0.4284
22319W        W37450  13.627   6.001  13.551 -0.1660  0.1087 -0.1112
22320W        W37451  14.938  12.630   5.892  0.2539  0.2030 -0.0987
22321W        W37452   9.868   5.157   0.447 -0.3885 -0.3415 -0.1339
22322W        W37453   8.445  12.177  11.784  0.1454 -0.0649  0.2410
22323W        W37454  13.841   9.042  12.169  0.3683  0.1802 -0.2021
22324W        W37455  17.112   6.870   4.506  0.0142 -0.1577 -0.1820
22325W        W37456  15.117   9.990   3.656 -0.3087  0.3309  0.0028
22326W        W37457  14.651   9.790   4.966 -0.2248 -0.2925  0.0010
22327W        W37458  14.731   8.992   3.835 -0.2822  0.1724  0.4680
22328W        W37459   8.063  16.884   4.597 -0.0687  0.0834  0.0246
22329W        W37460   0.681  11.217  15.641 -0.2689  0.1461  0.1289
22330W        W37461   4.663  15.485  13.634 -0.1463 -0.3519  0.0304
22331W        W37462  10.401   1.895  13.701  0.1022  0.1462 -0.0878
22332W        W37463  12.506   5.216   3.746  0.1847 -0.4677  0.3280
22333W        W37464  11.955   2.717   4.156  0.2158  0.4350 -0.1241
22334W        W37465   0.333  11.553  13.298  0.1923  0.2103 -0.1166
22335W        W37466  10.618  10.466   1.523 -0.0557 -0.0863  0.0100
22336W        W37467   3.401  14.861  16.696  0.1525  0.2400  0.5239
22337W        W37468   5.746   0.246   4.638 -0.0724 -0.1078  0.1166
22338W        W37469   2.742  16.797   5.984 -0.1270  0.2425 -0.0586
22339W        W37470   9.917   0.262  12.514 -0.1339  0.1987  0.0421
22340W        W37471   0.773  17.131   4.437  0.2179 -0.1249  0.2563
22341W        W37472  17.560   4.197  15.677 -0.0392 -0.1311  0.3319
22342W        W37473  15.453   8.445   4.389  0.1347 -0.0262  0.0532
22343W        W37474   2.533  13.534   0.070  0.1568  0.0897  0.1080
22344W        W37475  16.281  16.627  14.165  0.0381  0.1966 -0.0772
22345W        W37476   2.697  10.630  15.275  0.2193 -0.2540  0.0542
22346W        W37477   4.268  17.693  13.008 -0.2206  0.0245 -0.0967
22347W        W37478   5.762   4.384   4.158 -0.4719 -0.0224  0.2153
22348W        W37479  11.577  13.874  13.200  0.1756 -0.0433 -0.0324
22349W        W37480   8.185   2.871   4.598  0.0588  0.2366  0.1220
22350W        W37481   2.318   9.180   0.440  0.0371  0.1236 -0.2703
22351W        W37482  17.590   9.947  16.287  0.0878 -0.1558  0.0776
22352W        W37483  10.002   3.025  15.190  0.0957  0.1660  0.4038
22353W        W37484   6.889   0.363  13.686  0.1361  0.0033  0.1837
22354W        W37485  13.441   8.231   0.511 -0.0424 -0.1691  0.1419
22355W        W37486  14.515   1.238  13.137  0.0894 -0.2604  0.2033
22356W        W37487   9.260  14.508   0.625  0.0162 -0.2695 -0.2330
22357W        W37488   6.865   4.340  16.056 -0.1272  0.1576 -0.0994
22358W        W37489   5.038   5.245   3.615 -0.2394 -0.1412  0.1194
22359W        W37490   1.819   6.730   2.571 -0.0635  0.0023 -0.1168
22360W        W37491  15.306   6.224  15.956  0.0153  0.2199  0.0003
22361W        W37492   5.208  16.423   4.599  0.5067 -0.0292 -0.0222
22362W        W37493   3.280  17.566   0.374 -0.0945  0.0613  0.1013
22363W        W37494   6.720   0.907  14.309  0.1679  0.4220 -0.0770
22364W        W37495  14.589  10.222  13.796  0.1121  0.4911 -0.2133
22365W        W37496  15.834  12.451   0.870  0.0732 -0.2071 -0.0838
22366W        W37497   5.958  16.451   4.646  0.0338 -0.0164  0.0918
22367W        W37498   2.475   6.244   1.439 -0.2892 -0.0130 -0.0363
22368W        W37499   0.115  17.550  12.703 -0.1000 -0.2315 -0.1435
22369W        W37500  12.929   2.918   3.249  0.2401  0.0499  0.1377
22370W        W37501   8.235  11.717  11.976 -0.0290 -0.0093 -0.0422
22371W        W37502   0.142  17.083   0.097  0.0399  0.0172 -0.1353
22372W        W37503   8.033   3.695  15.917  0.0301  0.1155  0.0262
22373W        W37504  12.996   1.045   0.533  0.0086  0.0199  0.0918
22374W        W37505   0.151   9.449  16.547 -0.2410  0.1330 -0.1924
22375W        W37506   7.589   3.945  11.912 -0.2622 -0.1070  0.0444
22376W        W37507   5.656  12.337   3.839 -0.0291 -0.1417  0.1421
22377W        W37508  15.020   5.831  14.095 -0.2105 -0.3371  0.0372
22378W        W37509   6.094   8.631  13.044  0.0615 -0.0436 -0.1514
22379W        W37510  14.479   2.251  15.930 -0.1181 -0.0962 -0.2723
22380W        W37511   0.473   0.442   5.355 -0.0460  0.0098  0.0498
22381W        W37512  15.938   7.280  11.220 -0.3732 -0.1861  0.0317
22382W        W37513   1.538  11.311   4.535 -0.2493 -0.1326  0.1902
22383W        W37514   2.377   8.802   0.175  0.0161  0.2333 -0.1848
22384W        W37515  17.296   8.880   2.281 -0.1498 -0.2297 -0.1610
22385W        W37516   7.307  15.529  16.917  0.3312  0.0942  0.0556
22386W        W37517   3.139   3.618   5.592  0.1226  0.4280  0.1216
22387W        W37518   2.121   5.013  15.493  0.0576  0.1369  0.1103
22388W        W37519  15.880   0.004  16.406  0.0717  0.1261 -0.1201
22389W        W37520   0.337  11.920   0.890  0.1256 -0.0679  0.1665
22390W        W37521   0.366  11.687  16.453  0.0328  0.1269 -0.1208
22391W        W37522   0.437   0.101  15.444  0.0922  0.0545  0.0845
22392W        W37523   6.959   1.983  13.508  0.0813 -0.2563 -0.2348
22393W        W37524   9.601   6.924   5.103 -0.0115  0.3513  0.0881
22394W        W37525   4.716   0.227  13.178  0.0691 -0.2063  0.1115
22395W        W37526  13.533  10.339  13.355 -0.1565 -0.4199 -0.0759
22396W        W37527  16.060   9.970  13.834  0.0201  0.1413  0.0007
22397W        W37528   9.186  14.233   4.614  0.1338  0.1666 -0.1022
22398W        W37529   2.472  17.290   5.356 -0.1407 -0.1980  0.0216
22399W        W37530  12.912  10.715   1.036 -0.0864 -0.0457 -0.1971
22400W        W37531   1.163  10.526  16.179  0.1742  0.1194 -0.0164
22401W        W37532   0.849   3.547  11.469  0.3351  0.1243  0.2613
22402W        W37533  12.651   3.562   2.964  0.2510 -0.0547 -0.5502
22403W        W37534  12.984  12.391   3.851  0.2066 -0.2371  0.0779
22404W        W37535   7.867   0.401  14.422 -0.1986  0.0832 -0.0504
22405W        W37536  14.107   5.560  16.101  0.0003 -0.0704  0.0406
22406W        W37537   7.021  11.122   0.771 -0.1033 -0.0626 -0.0467
22407W        W37538  16.485   2.869  11.928 -0.1492  0.2443 -0.1232
22408W        W37539  14.714  13.825  13.701  0.1205  0.2274 -0.1085
22409W        W37540  14.077   9.634   3.173  0.2365 -0.0740 -0.2992
22410W        W37541  11.347  10.928   3.743  0.0553  0.0171  0.3490
22411W        W37542   4.045   1.031   0.365  0.1672 -0.0537  0.1176
22412W        W37543  10.575  16.943  12.077  0.0962  0.1320  0.0832
22413W        W37544  11.586  12.417   4.454  0.0893 -0.0643 -0.2542
22414W        W37545  11.721   9.719  12.282 -0.0905  0.0680  0.0847
22415W        W37546   1.518  16.407   2.981  0.0097 -0.1927  0.0582
22416W        W37547   6.455   4.847   5.931 -0.0384  0.1972 -0.0507
22417W        W37548  17.024   9.575  14.382  0.1561 -0.3482 -0.0545
22418W        W37549  14.104   0.942  15.550 -0.1227  0.1146 -0.1267
22419W        W37550  12.590  14.797  14.938  0.1512 -0.0951  0.0373
22420W        W37551   8.930  15.372  11.914 -0.2214  0.0586 -0.0317
22421W        W37552   2.392  16.574  15.669 -0.1421 -0.1250 -0.0306
22422W        W37553   7.744   0.206   1.421  0.1302 -0.0250 -0.0773
22423W        W37554  10.060  16.396   1.853 -0.1006 -0.0802  0.2257
22424W        W37555  10.960   6.109  15.125 -0.1205 -0.3342 -0.0262
22425W        W37556  14.686  14.763   5.940 -0.2667 -0.1083 -0.2860
22426W        W37557  17.208   5.234   0.864 -0.2245 -0.2492 -0.0610
22427W        W37558  11.035   7.014   5.386  0.0112  0.2369 -0.1900
22428W        W37559   5.266  10.128  14.189  0.2588 -0.0738 -0.1232
22429W        W37560   4.746   2.086  16.665  0.1358  0.0266  0.0314
22430W        W37561  12.703   3.766  11.762 -0.3083 -0.1346 -0.0953
22431W        W37562   6.153   8.635  12.533  0.2725 -0.1994  0.1726
22432W        W37563   0.156  11.529   3.045 -0.3887  0.3213  0.2020
22433W        W37564  14.810  10.010   0.481  0.0781  0.2698 -0.1114
22434W        W37565  11.273  16.974   0.319 -0.2551  0.1394 -0.1034
22435W        W37566   9.015   4.201  12.792  0.0168  0.4807  0.0863
22436W        W37567  14.248   6.559   0.096 -0.0077  0.2366  0.0606
22437W        W37568   4.354  15.747   1.025  0.0785  0.2144 -0.1018
22438W        W37569   9.572   2.304   0.990  0.4099  0.0104  0.1844
22439W        W37570   8.632  17.042   4.502  0.1314  0.0677 -0.1226
22440W        W37571   6.747  16.271   4.933  0.1178 -0.2176 -0.0125
22441W        W37572  17.515   5.784   5.327  0.0210  0.1478 -0.0844
22442W        W37573  13.069  10.949  13.842  0.0631  0.2732  0.1502
22443W        W37574   5.317  10.493   0.190  0.1266 -0.2590 -0.0941
22444W        W37575   3.156   4.475   2.795 -0.0742  0.0294  0.1180
22445W        W37576   4.755  10.622  10.644  0.0271  0.0743  0.3092
22446W        W37577  10.317  13.220   4.892 -0.1758 -0.2848 -0.1019
22447W        W37578   1.792   5.152  13.668 -0.1080  0.0616 -0.2425
22448W        W37579  12.771   2.504  14.758 -0.3762 -0.2010  0.0704
22449W        W37580   7.919  12.444   6.292 -0.2001 -0.0753  0.0753
22450W        W37581  13.437  11.186   5.066 -0.0856  0.0866 -0.1435
22451W        W37582   3.508  14.229   1.773  0.1078 -0.0779  0.3687
22452W        W37583   8.484   1.234   2.015 -0.4037  0.0397  0.2132
22453W        W37584   4.294  11.954   1.693  0.0952 -0.0747 -0.1600
22454W        W37585   6.620  16.620   2.427  0.1598 -0.0807  0.1432
22455W        W37586   4.476  13.584  14.391  0.1485 -0.0057  0.0979
22456W        W37587  11.549  10.269   2.022  0.1349 -0.0022  0.1404
22457W        W37588   6.528  14.659   0.473 -0.0797 -0.0367  0.1227
22458W        W37589  11.865  12.918   0.719  0.0143 -0.0498  0.1182
22459W        W37590  10.960  15.455  15.900 -0.0685  0.3011  0.2048
22460W        W37591  13.286  11.965   1.310 -0.0186 -0.2812  0.0137
22461W        W37592  14.085  12.117  14.507  0.0082  0.0276 -0.1833
22462W        W37593   1.482   2.971  12.624  0.1483 -0.0739  0.1162
22463W        W37594   9.628  11.563  12.055 -0.0556 -0.1260 -0.0452
22464W        W37595  17.135  11.683   1.202  0.0677 -0.2982  0.1063
22465W        W37596   0.168   8.996  11.422  0.1152  0.1632  0.0825
22466W        W37597   5.533  15.407   3.810  0.2080  0.1522 -0.2330
22467W        W37598  13.829   3.673   2.263  0.1767 -0.1113 -0.1342
22468W        W37599  16.461   5.475   4.516 -0.2099 -0.1098 -0.1660
22469W        W37600   7.588  14.077   2.209 -0.2701 -0.1348  0.0347
22470W        W37601  13.194   8.226  11.381 -0.2398 -0.2831 -0.0136
22471W        W37602  11.261  13.483   1.793  0.3190 -0.1290  0.1972
22472W        W37603  10.253   2.220   0.388  0.0848 -0.1693  0.0940
22473W        W37604   4.391  12.650  15.312  0.0071 -0.0618  0.1238
22474W        W37605  13.418   4.552  14.352  0.0598 -0.0054 -0.1762
22475W        W37606  12.408   7.090   2.357 -0.0442 -0.0136 -0.3259
22476W        W37607  17.585  11.154   4.010 -0.1965 -0.0986 -0.2921
22477W        W37608   4.820   3.951  13.373  0.0053  0.3131 -0.0615
22478W        W37609   7.943  11.276  16.316 -0.0558 -0.1144  0.0778
22479W        W37610  11.892   0.825  16.204 -0.1537 -0.0310  0.1163
22480W        W37611  13.914  14.551   6.704  0.0399  0.2385  0.2556
22481W        W37612   0.938   1.436   3.053  0.6017 -0.1366  0.0188
22482W        W37613  12.614   6.534   5.399 -0.0656  0.0425  0.0822
22483W        W37614  10.073   6.895   4.907 -0.4504 -0.0478  0.0476
22484W        W37615  17.258   0.911   3.339 -0.3231 -0.1330 -0.1182
22485W        W37616   5.964  11.466   2.415 -0.0220 -0.1400 -0.2061
22486W        W37617  12.950   2.834  13.001  0.3051  0.0289  0.1799
22487W        W37618   2.870   5.559  14.160 -0.0751 -0.0693 -0.2338
22488W        W37619   0.583  12.224   0.525 -0.0492 -0.0403 -0.2614
22489W        W37620  13.543   6.562  12.405  0.1203  0.3475  0.0089
22490W        W37621  13.763  15.824   4.353  0.2043 -0.0705 -0.2711
22491W        W37622   4.012  10.405  16.869  0.2360  0.1451  0.1506
22492W        W37623   0.656   4.608  14.614  0.0928  0.0393  0.0199
22493W        W37624  17.189   1.509  16.713 -0.2414 -0.1737 -0.2073
22494W        W37625   6.315  17.529  13.796  0.0830 -0.4881 -0.0084
22495W        W37626   3.693  16.353   2.966  0.0081  0.3698 -0.3554
22496W        W37627  12.602   7.358  15.549 -0.0158  0.0244  0.2151
22497W        W37628  10.957   2.795   2.246 -0.0455  0.1477 -0.1843
22498W        W37629   7.781   1.855   6.209  0.3897 -0.0483  0.2163
22499W        W37630   9.233  17.251   6.278 -0.0805 -0.3031  0.3038
22500W        W37631  11.493   7.482  12.977  0.0341  0.2071 -0.2533
22501W        W37632   1.819  14.831  14.620 -0.1162 -0.1896  0.0012
22502W        W37633   1.714  12.368   5.391 -0.0323  0.1652  0.1648
22503W        W37634  10.023   2.597   5.252 -0.0243 -0.0798  0.1577
22504W        W37635   2.516   7.190   2.271 -0.0266  0.2143  0.0260
22505W        W37636   2.755  12.471   1.021  0.0878 -0.0141 -0.0867
22506W        W37637   1.363   4.983  14.944  0.1101 -0.0540  0.0973
22507W        W37638   4.969   3.949   1.405 -0.0685 -0.2946 -0.1341
22508W        W37639   3.794  16.068   1.139  0.1112 -0.2528  0.3988
22509W        W37640  14.108  13.467  16.657 -0.0097  0.0071  0.0049
22510W        W37641   0.145   2.429   2.652  0.0863  0.0246 -0.0667
22511W        W37642  11.391   3.989   2.880 -0.1940  0.4085  0.1608
22512W        W37643  13.418   5.100   1.747  0.1657 -0.0963 -0.0482
22513W        W37644   6.912   6.921   1.971  0.0956  0.0972  0.1902
22514W        W37645  15.755   5.214   0.860  0.2110  0.0719 -0.2175
22515W        W37646   2.307  15.967   5.488 -0.1106 -0.4414  0.2784
22516W        W37647   3.642   0.715  16.454 -0.1584  0.1487  0.1865
22517W        W37648   0.316  15.279   5.574 -0.0476 -0.1244  0.5599
22518W        W37649  14.286   2.424   3.376  0.0721  0.3097  0.0328
22519W        W37650   0.409  15.554  14.049  0.4322  0.3869 -0.0058
22520W        W37651   8.477   4.107  15.900 -0.3572  0.1824  0.0566
22521W        W37652  13.435  16.631  12.239  0.0014 -0.2386  0.1610
22522W        W37653   2.604   6.186   2.643  0.1323 -0.0681 -0.1640
22523W        W37654  15.124  10.626   1.853  0.1671  0.0812  0.2220
22524W        W37655   1.695  10.036   5.147 -0.0079 -0.0223 -0.1365
22525W        W37656  17.698   7.140   2.844 -0.4553  0.1284  0.3556
22526W        W37657  12.173   2.628   0.961  0.1663 -0.1923 -0.0708
22527W        W37658  12.755  14.300  13.681  0.0105  0.0379  0.2381
22528W        W37659  15.661  11.113   3.339  0.0521 -0.2374  0.0825
22529W        W37660   6.495   9.880   4.780  0.2594  0.0557 -0.1170
22530W        W37661  13.057   5.551   0.094 -0.2174  0.2330  0.2031
22531W        W37662   0.952   0.132  11.192 -0.0587 -0.2341 -0.0544
22532W        W37663  13.371  13.366   1.554 -0.0791  0.1672 -0.1534
22533W        W37664   7.566   7.096   4.735 -0.4979  0.2894  0.0750
22534W        W37665   1.458  13.843   3.930  0.0513 -0.0977 -0.3600
22535W        W37666   2.742   3.400   5.769  0.0717  0.0551  0.0728
22536W        W37667  16.488   7.581   0.358 -0.4011  0.1340  0.1241
22537W        W37668   1.072   0.799   4.724  0.0295 -0.0401 -0.1419
22538W        W37669   9.724   2.721   3.228  0.0750 -0.1133  0.0235
22539W        W37670   0.700   9.380   1.334  0.0171  0.0197  0.1180
22540W        W37671  14.382  14.210   2.227 -0.1012  0.2037  0.1453
22541W        W37672   1.290   5.851  12.996  0.0330 -0.1428  0.3060
22542W        W37673   5.242  16.151   4.081  0.0771 -0.0381  0.1191
22543W        W37674  10.416   8.684   4.975 -0.1144  0.0078 -0.0431
22544W        W37675  10.212   9.142  11.002  0.0143 -0.0437  0.0767
22545W        W37676   8.266  10.609   5.670 -0.2970 -0.2051 -0.0413
22546W        W37677   3.475  11.623   4.830  0.3197  0.3796  0.1140
22547W        W37678   1.542   9.236   5.292  0.0426 -0.0362  0.0100
22548W        W37679   6.992   9.409  11.159 -0.3489 -0.0287  0.2795
22549W        W37680  11.394  16.734   2.126 -0.0889  0.2940  0.1751
22550W        W37681   5.774   5.415  14.277 -0.2604  0.2231 -0.1304
22551W        W37682  15.022   6.825  13.047  0.1373 -0.0273  0.1197
22552W        W37683   1.717  12.694   2.639  0.2076  0.0355 -0.0273
22553W        W37684   7.335  15.866   4.512  0.3351  0.2678 -0.1530
22554W        W37685  11.895   8.726   1.505 -0.0111  0.1963 -0.0831
22555W        W37686  11.363   4.834  13.790 -0.2668  0.0335 -0.4109
22556W        W37687  16.813   7.735   1.443 -0.0763  0.0459  0.0246
22557W        W37688   8.554  15.614   1.627 -0.3315 -0.2988 -0.2849
22558W        W37689   3.780   4.879   2.088 -0.1536  0.0324 -0.2422
22559W        W37690  14.470  11.740  13.382 -0.0731  0.3224 -0.0938
22560W        W37691   6.951  12.944  15.308  0.1465 -0.1031 -0.1282
22561W        W37692   2.454   6.264   1.969 -0.1630  0.1424 -0.2677
22562W        W37693   1.591  17.684   4.393  0.3610 -0.5020  0.3067
22563W        W37694  13.565   9.992   4.444  0.1059 -0.1604  0.1065
22564W        W37695   3.542  16.668  12.955  0.0969  0.1461  0.3587
22565W        W37696   8.495  15.234  12.075 -0.0721  0.0011 -0.3121
22566W        W37697  11.127  16.257  16.334 -0.2203  0.0668 -0.1547
22567W        W37698  13.159  12.472  15.752 -0.1564  0.2130  0.2081
22568W        W37699   0.494   6.423  13.762 -0.0287 -0.0249  0.0642
22569W        W37700  13.460  13.207   2.856 -0.1629  0.3468  0.4006
22570W        W37701   1.441   3.131   4.140 -0.1950 -0.1701 -0.1108
22571W        W37702   3.546  11.683   0.553 -0.2817 -0.0880 -0.2257
22572W        W37703   0.737   1.963  12.864  0.0497 -0.2035  0.4236
22573W        W37704  12.264   7.217   3.169 -0.3964 -0.1703  0.0566
22574W        W37705  10.188  11.199   5.067  0.0219 -0.0432 -0.0301
22575W        W37706   4.368  14.084   2.519  0.1637 -0.2004  0.1928
22576W        W37707   3.787   7.028   0.497 -0.0340 -0.0386 -0.1969
22577W        W37708   5.350   2.847  13.121  0.1420  0.0450 -0.1525
22578W        W37709  14.645  12.064   1.977  0.1243  0.0300 -0.2433
22579W        W37710  15.308   8.230   3.966 -0.0308  0.2348  0.0353
22580W        W37711   2.704   7.777   3.540  0.1200 -0.4499 -0.1425
22581W        W37712   3.782   5.268   2.423 -0.2648 -0.0498  0.3169
22582W        W37713   8.658   5.025  14.270  0.0314  0.3808 -0.1233
22583W        W37714   2.910   6.552  13.366  0.1424  0.0117 -0.4080
22584W        W37715   4.956   5.561  14.222 -0.4762  0.1561  0.1180
22585W        W37716  15.082   8.172   3.181 -0.0815  0.4112  0.1154
22586W        W37717   3.971   3.072   3.665 -0.2323  0.0385  0.4010
22587W        W37718   1.332  14.303  13.540 -0.1891  0.0272 -0.0975
22588W        W37719  15.036   0.325   5.046 -0.0974 -0.2659  0.1092
22589W        W37720   0.841  12.640  16.165  0.0436  0.1235  0.0222
22590W        W37721   6.329  13.606   5.082  0.1899 -0.0261  0.1878
22591W        W37722   4.772  15.736   4.880  0.0611 -0.2631 -0.1392
22592W        W37723  12.697   6.317  15.573  0.1555 -0.2320  0.2806
22593W        W37724  14.970  13.874   2.924 -0.1566 -0.2316  0.3166
22594W        W37725  11.458   1.615   1.845 -0.1894  0.0972  0.0057
22595W        W37726  14.284   9.728  13.886  0.1528  0.0609 -0.0300
22596W        W37727   4.190   8.690  12.543 -0.0070 -0.0325  0.0236
22597W        W37728   8.833   5.351  13.035  0.1490 -0.0456  0.1788
22598W        W37729  13.725  13.641   2.836  0.0415 -0.0712 -0.2162
22599W        W37730  14.801   0.766  11.649 -0.0395 -0.0653 -0.1269
22600W        W37731  10.154   4.039   5.521 -0.3623  0.0876 -0.0469
22601W        W37732   0.823   4.393   3.560 -0.0402  0.2371  0.3662
22602W        W37733   6.095   6.542  16.288  0.1345  0.3210  0.1130
22603W        W37734   0.550   5.409  12.240  0.1551 -0.0565 -0.1107
22604W        W37735   6.812  10.940   4.276 -0.0078  0.0069  0.0700
22605W        W37736   4.501  15.815   6.087 -0.1749 -0.0366 -0.2817
22606W        W37737   4.893  15.062  13.875 -0.1516  0.1708 -0.0753
22607W        W37738  11.716  16.307  11.803 -0.0066 -0.0288  0.0012
22608W        W37739   6.518   8.321   5.273 -0.1486  0.0102 -0.2028
22609W        W37740   0.421   1.253  14.849  0.2975 -0.0380  0.2636
22610W        W37741   4.265  12.394  14.840 -0.0138 -0.1167  0.1104
22611W        W37742  13.504   1.831  14.336 -0.1858 -0.1787 -0.0161
22612W        W37743  10.924  14.668  13.800  0.1386  0.1486 -0.2820
22613W        W37744   8.679  10.386   5.575 -0.1688  0.1010  0.2296
22614W        W37745   7.530   1.762  16.680 -0.0599  0.0874 -0.0903
22615W        W37746   3.803  15.003   4.187 -0.2918 -0.3680  0.2339
22616W        W37747   6.406   9.810   1.573 -0.0516  0.0770  0.2457
22617W        W37748  16.606   3.113   4.419 -0.2341  0.1126 -0.0051
22618W        W37749   0.511  12.955   1.056 -0.0223 -0.1008  0.1352
22619W        W37750  17.339   9.862  15.001 -0.3340 -0.0405 -0.2093
22620W        W37751   5.483   3.813   0.715 -0.0412  0.2110 -0.1680
22621W        W37752   0.821   8.587   2.437 -0.0219  0.3133 -0.1377
22622W        W37753  13.149   7.327  15.650 -0.0420  0.2666  0.0493
22623W        W37754  11.978   5.596   4.325  0.2876  0.2500 -0.4021
22624W        W37755  15.324   5.129   2.686  0.1977 -0.1790 -0.2517
22625W        W37756  15.180   4.658  15.574 -0.0290  0.2022  0.0898
22626W        W37757  16.733  10.331  15.390  0.2533 -0.1229 -0.0749
22627W        W37758   4.734   7.094   1.884  0.2065  0.1994 -0.0370
22628W        W37759   2.188  15.834   2.965  0.1564  0.2184  0.0639
22629W        W37760  11.865   8.043  15.441  0.1906  0.1306  0.1361
22630W        W37761   8.190  13.284   1.660 -0.1771 -0.0046 -0.3253
22631W        W37762  15.718  11.679  11.369 -0.0927  0.3115 -0.0703
22632W        W37763   0.756  17.023   4.946  0.1450 -0.4207 -0.3089
22633W        W37764   5.960   8.822   3.061  0.3352 -0.2000  0.3956
22634W        W37765   3.614   6.950   4.384 -0.0567 -0.2315  0.5466
22635W        W37766   7.872  14.018  14.702 -0.1408 -0.0934 -0.3232
22636W        W37767   6.556   3.639  14.992 -0.1430 -0.1022 -0.1853
22637W        W37768  13.768   0.598  12.014  0.3149  0.0414  0.2802
22638W        W37769   4.325   5.619   0.054 -0.0732 -0.2012 -0.0526
22639W        W37770   2.064   8.110  13.299 -0.5300 -0.0317 -0.3005
22640W        W37771   8.636   3.137  16.039  0.0126 -0.0560  0.2902
22641W        W37772   9.122   3.920  11.956 -0.2192  0.0124 -0.0440
22642W        W37773  11.116   6.882   4.782  0.0384 -0.1519 -0.1111
22643W        W37774   3.183   9.921  15.010 -0.1463 -0.0204 -0.1693
22644W        W37775  10.193   4.778  15.224  0.4426  0.0562  0.1414
22645W        W37776  12.404   8.725  11.280  0.0517 -0.1687  0.0276
22646W        W37777   5.718  11.749  14.716  0.0809  0.0409  0.0149
22647W        W37778  16.669   6.973   4.344 -0.0152  0.0086  0.0383
22648W        W37779   8.100   4.703   0.107 -0.0672  0.0793 -0.2033
22649W        W37780   6.733  13.341   1.109  0.1909  0.4004 -0.0719
22650W        W37781   6.111   3.020   3.644 -0.1457  0.0573 -0.2604
22651W        W37782   5.870   7.410  12.918  0.1457  0.0511  0.1781
22652W        W37783   2.288   6.727   2.318 -0.0557  0.1299  0.0040
22653W        W37784   5.633   2.933  12.299 -0.0924  0.0843 -0.0324
22654W        W37785  16.644   1.557   0.010  0.1415  0.1746  0.2767
22655W        W37786   6.485  10.529   0.567 -0.0741  0.1630  0.2607
22656W        W37787  13.597   9.288   0.787  0.1922  0.0602 -0.0473
22657W        W37788   0.992   3.612  15.450  0.1967  0.1124  0.1965
22658W        W37789  16.676   2.299   6.335 -0.0391 -0.1888 -0.1337
22659W        W37790   9.671  16.887   6.181  0.2784  0.1629 -0.0812
22660W        W37791   1.236   8.199  13.591 -0.0743  0.2845 -0.2508
22661W        W37792  13.064   9.936  11.282 -0.0144  0.0236  0.1226
22662W        W37793   7.734  10.682   4.020  0.3341  0.0505 -0.1501
22663W        W37794  10.933  17.385  15.653  0.0367 -0.1205 -0.0371
22664W        W37795   7.730   9.824   0.365  0.0090  0.2112  0.0330
22665W        W37796  12.788  17.022   1.176  0.2405  0.2137 -0.2123
22666W        W37797  15.212   6.817  14.042 -0.1449 -0.0323  0.1957
22667W        W37798  10.433   2.047   3.463  0.2918  0.0283 -0.1906
22668W        W37799   8.105   8.489  13.527  0.0514 -0.0229 -0.1135
22669W        W37800  15.349   9.422   0.783  0.1695  0.0122 -0.4858
22670W        W37801  12.324  10.704   0.417 -0.0811  0.0864  0.1726
22671W        W37802   5.981   5.167  15.064 -0.1550  0.2597  0.2179
22672W        W37803  13.906   4.831   5.328  0.1455 -0.4317  0.1156
22673W        W37804   4.292   9.546   0.577 -0.0224  0.1807 -0.1216
22674W        W37805  11.772  10.030  14.724  0.1082 -0.0404 -0.0376
22675W        W37806  16.765   3.644   4.690 -0.2594  0.0632  0.2129
22676W        W37807   2.676   8.310   3.503  0.1058  0.2688  0.0845
22677W        W37808   2.705   5.227  13.823  0.1417  0.2977 -0.0949
22678W        W37809  16.844  12.980  12.398  0.1199  0.0724 -0.2968
22679W        W37810   3.401   9.639   4.759 -0.0243 -0.0665  0.0908
22680W        W37811  15.221  15.884   2.456 -0.0159  0.3588 -0.2339
22681W        W37812  16.248   4.488   1.723 -0.1156 -0.1060  0.3056
22682W        W37813   5.455  10.409  12.174  0.0649  0.0455 -0.4490
22683W        W37814  13.604   3.232   2.168 -0.0848  0.0916 -0.2112
22684W        W37815  16.419   2.902  11.055 -0.3246 -0.0780  0.2429
22685W        W37816   4.756  10.629   3.192  0.2443  0.2844  0.0113
22686W        W37817   5.769   1.581  14.067  0.3238 -0.1125 -0.0423
22687W        W37818   9.847   7.135   3.006 -0.0375 -0.2875 -0.0972
22688W        W37819   3.123  10.174   2.604  0.2515  0.0246 -0.1206
22689W        W37820   9.963  10.750  12.071  0.1910 -0.0994 -0.0130
22690W        W37821  13.914  16.788  12.750 -0.1332  0.0152 -0.3951
22691W        W37822   1.632   5.395  11.966  0.1971  0.0619  0.1013
22692W        W37823  15.109   8.275   0.506  0.0087 -0.4765 -0.1632
22693W        W37824   7.806   8.429   5.745 -0.1484  0.1684 -0.0026
22694W        W37825   8.370   4.476  13.361 -0.0709  0.1650 -0.1554
22695W        W37826  13.839   0.986   5.750  0.0938 -0.1383  0.0554
22696W        W37827   9.068   4.874   2.415  0.2552 -0.0247 -0.2372
22697W        W37828  13.666  12.913  14.361 -0.0454 -0.2321 -0.0304
22698W        W37829  14.568   8.514   2.514 -0.1731 -0.2299  0.1250
22699W        W37830  13.698  12.194  13.076  0.2487 -0.2558 -0.3144
22700W        W37831   9.514  13.827   5.516  0.1014  0.0285  0.0249
22701W        W37832   8.683  11.468  12.037 -0.0915  0.2625  0.0022
22702W        W37833   8.748  14.561   4.503 -0.1861 -0.2803  0.0541
22703W        W37834  14.979   3.940  12.665 -0.1612  0.2150  0.1716
22704W        W37835  10.143  14.306  13.785 -0.1891  0.0434  0.0597
22705W        W37836   8.152   4.427  11.298  0.0816  0.0669  0.0920
22706W        W37837   9.735   0.481  11.118 -0.0610  0.1866  0.1218
22707W        W37838  13.168  16.197  11.994  0.2146 -0.1301  0.1083
22708W        W37839  11.029   4.901  15.705  0.0981 -0.2103  0.0761
22709W        W37840   9.210  15.115  11.559  0.2048 -0.0216 -0.1630
22710W        W37841   4.351   5.828  13.197  0.0289  0.1823 -0.1282
22711W        W37842  12.281   4.356   2.570  0.4472  0.1915 -0.0914
22712W        W37843   3.870  14.494   1.215 -0.0884 -0.3088 -0.0913
22713W        W37844  15.211  12.130  16.438 -0.0689 -0.0423  0.1900
22714W        W37845  14.565   0.950  14.921 -0.2399  0.2291 -0.0128
22715W        W37846  15.712   6.438  15.237 -0.0586  0.1573  0.2696
22716W        W37847   6.190  16.958  12.638  0.0332  0.1157 -0.0798
22717W        W37848   9.775  12.583   0.986 -0.0356  0.1187 -0.0422
22718W        W37849  12.326   8.390  11.936  0.0965 -0.1896 -0.2642
22719W        W37850   1.867  14.044  12.626 -0.0590 -0.2590  0.0555
22720W        W37851  11.452   1.397  15.449 -0.0997 -0.0617  0.2799
22721W        W37852   9.822   7.349  14.868 -0.2042 -0.0481 -0.0865
22722W        W37853  12.383  11.736   5.464 -0.1422  0.0372 -0.0357
22723W        W37854   1.846   9.629  15.540 -0.2346  0.2413 -0.1989
22724W        W37855   7.868   9.315  12.718 -0.3019 -0.1267 -0.0986
22725W        W37856   4.290  11.605  15.038  0.3138 -0.0287  0.2047
22726W        W37857  10.275  11.740   2.825  0.0918  0.3959 -0.0525
22727W        W37858  13.099  15.826   4.069 -0.0943  0.1922  0.0364
22728W        W37859   9.848  16.126  13.982 -0.1340 -0.1441  0.1735
22729W        W37860   5.695  17.639  14.416  0.1351  0.3911  0.3379
22730W        W37861   1.677   5.566  11.383 -0.1944 -0.2420 -0.0132
22731W        W37862   5.521   0.005   5.543  0.1555  0.0846 -0.0321
22732W        W37863  16.463   0.551  14.741  0.0184 -0.2262  0.0278
22733W        W37864  10.110   3.214   2.433  0.0242  0.5282 -0.1032
22734W        W37865  16.836   0.948   1.968 -0.1177 -0.0440  0.0726
22735W        W37866  15.099   6.324   1.987  0.2871  0.0072  0.0245
22736W        W37867  11.091  15.729  11.785 -0.0979  0.2864  0.0696
22737W        W37868   1.357   7.046   3.502 -0.1552  0.0624  0.1721
22738W        W37869  14.473   4.670  12.045  0.0320 -0.0033  0.0074
22739W        W37870   0.303  11.579  11.806 -0.0176 -0.1190  0.3214
22740W        W37871   9.857   1.122   1.542 -0.0616 -0.1864  0.0257
22741W        W37872  17.470  13.202  12.188 -0.3198  0.2701 -0.1318
22742W        W37873   7.447   7.829  15.272 -0.1742 -0.1448 -0.0818
22743W        W37874   6.975  12.726  12.294 -0.1447 -0.2179  0.1009
22744W        W37875  15.991  11.471  14.212 -0.0962 -0.1500 -0.1003
22745W        W37876  15.056  10.448  15.685 -0.0773 -0.0790  0.1156
22746W        W37877  15.858  12.499  14.501 -0.0081 -0.0334  0.3438
22747W        W37878   7.018  10.684  13.405  0.1677  0.0667  0.0732
22748W        W37879   1.420  10.997   5.397  0.1195  0.3778 -0.0683
22749W        W37880  17.086   0.513   1.142  0.1324  0.3370 -0.1781
22750W        W37881   1.378   9.775  12.673 -0.0190 -0.0111  0.0445
22751W        W37882   4.564  11.330  14.375 -0.1061 -0.0113  0.1443
22752W        W37883  14.502  12.545   3.104 -0.0172  0.2164 -0.0502
22753W        W37884  14.537  17.140   0.370 -0.0334 -0.0619 -0.0734
22754W        W37885   4.870   6.423  16.180 -0.1963  0.2493 -0.2795
22755W        W37886  12.510   9.851  16.264 -0.1188  0.0465 -0.1741
22756W        W37887   6.135  13.003  11.876  0.1109  0.0985 -0.1071
22757W        W37888  14.836   3.916  12.199  0.0873 -0.5195 -0.0960
22758W        W37889   1.034   9.261   0.490  0.2468 -0.2610 -0.1883
22759W        W37890   4.499  10.763  12.199  0.3966  0.2272 -0.0687
22760W        W37891   6.763  15.353  14.246  0.5633  0.0688 -0.0942
22761W        W37892  14.781   0.439  15.801 -0.0549 -0.0733 -0.2099
22762W        W37893   4.138  12.746  16.544 -0.1784  0.0744 -0.0327
22763W        W37894  16.515  13.716  12.803 -0.0261 -0.2353 -0.0531
22764W        W37895   2.280  14.171   3.552  0.1746 -0.2824 -0.4688
22765W        W37896  15.172   1.972  14.559  0.0007  0.0892 -0.0427
22766W        W37897   3.894  14.978  11.964  0.0955  0.0373  0.3062
22767W        W37898   1.132   5.298   0.045 -0.0956 -0.1769  0.1579
22768W        W37899   1.823   2.473  13.376 -0.0970  0.1012  0.1031
22769W        W37900   9.940  15.417  12.930  0.1842  0.0216 -0.2760
22770W        W37901  16.509  10.318  14.910 -0.1060  0.1296  0.1445
22771W        W37902  16.083   0.225  13.032 -0.1746 -0.0885 -0.2190
22772W        W37903  14.507   8.589   1.137 -0.1055 -0.1467  0.0457
22773W        W37904   3.325   5.933  15.331  0.0466 -0.0934 -0.1075
22774W        W37905   4.798   9.981  13.226 -0.1556 -0.0300 -0.3075
22775W        W37906   9.514   0.489   0.684 -0.1293  0.1075  0.4173
22776W        W37907  12.289   6.596   2.998 -0.1598  0.1108 -0.0861
22777W        W37908   2.371  16.294  13.816  0.1335 -0.0377 -0.0416
22778W        W37909   2.866  15.442   6.272  0.2272  0.2072  0.1130
22779W        W37910   2.186   8.288  14.156  0.0751 -0.2987 -0.0435
22780W        W37911  13.869  16.113   2.846  0.0204  0.2305  0.0971
22781W        W37912  12.367   6.595   4.430 -0.0606  0.2102  0.0879
22782W        W37913  15.018  17.213  16.043  0.0889 -0.0390  0.1386
22783W        W37914   6.880  14.724  13.463 -0.1682  0.0468 -0.0551
22784W        W37915  11.054  13.199   2.122 -0.0369  0.3718  0.2758
22785W        W37916   8.723   0.484   2.358  0.3048 -0.0649 -0.1749
22786W        W37917  14.313  11.960   5.458 -0.2577  0.3039  0.3041
22787W        W37918   5.480   4.580   4.477  0.1825 -0.0241 -0.2175
22788W        W37919   9.598  10.082  16.034 -0.0384  0.0553  0.2536
22789W        W37920  12.290   5.429  13.794 -0.2006  0.3503 -0.0820
22790W        W37921   3.845  10.094   3.247  0.1326 -0.0499  0.0109
22791W        W37922  10.137  12.043  14.287  0.1103  0.2028 -0.1719
22792W        W37923   4.877  14.459   5.663 -0.0325  0.1980 -0.1311
22793W        W37924   1.171  14.651   5.852 -0.1059  0.1535 -0.0546
22794W        W37925   0.681   4.568   4.472  0.0386 -0.0511 -0.0805
22795W        W37926   5.840   8.842   5.268  0.2942 -0.1012  0.0409
22796W        W37927   7.876   5.388  12.151 -0.0287  0.1522 -0.1315
22797W        W37928   5.868   6.642   5.594  0.2079 -0.1787 -0.0637
22798W        W37929   2.290  14.380  12.784 -0.0946  0.2431  0.2299
22799W        W37930  13.941   3.362  12.113 -0.1076 -0.1060 -0.1083
22800W        W37931   4.763   9.139   0.208  0.0127  0.2131  0.2800
22801W        W37932   4.351  14.296   1.870  0.2769  0.1480  0.0190
22802W        W37933   6.581   5.977  16.819 -0.0951  0.2677  0.0079
22803W        W37934   6.926   1.479   2.022  0.1688  0.0198 -0.0751
22804W        W37935  10.246  13.799   5.047 -0.0242 -0.1164 -0.0679
22805W        W37936   6.110  16.981  13.768  0.1443  0.0191  0.2012
22806W        W37937   5.478   9.546  14.907 -0.1208 -0.0210  0.0675
22807W        W37938   9.364  13.399   3.097 -0.0926 -0.3130 -0.0179
22808W        W37939   0.448   2.325   4.459 -0.0856 -0.0703 -0.0720
22809W        W37940   6.486   6.081   3.384  0.1132  0.2043  0.1912
22810W        W37941  12.712  14.833  11.448 -0.0202 -0.0768 -0.0978
22811W        W37942  13.316  16.287   3.713 -0.1072 -0.0283 -0.1399
22812W        W37943  11.789  10.538   3.959  0.0510 -0.0394 -0.1111
22813W        W37944  11.721   1.582   0.090 -0.2868  0.0719 -0.1803
22814W        W37945  14.093   8.246  12.615  0.0231  0.2155 -0.5153
22815W        W37946  15.291  16.847   5.973  0.0684  0.1642 -0.1392
22816W        W37947   9.754   0.444  15.011  0.2489 -0.0679  0.0552
22817W        W37948   7.861   5.121  14.335  0.3096 -0.0553  0.1336
22818W        W37949   8.088   3.958   1.815  0.0401 -0.0489  0.1385
22819W        W37950   8.773   6.053  12.413  0.1764 -0.3031 -0.3143
22820W        W37951   4.889   4.602   3.092  0.3132  0.1643  0.0559
22821W        W37952   5.380  15.808   5.588 -0.1644  0.2492 -0.1685
22822W        W37953  11.069   1.826  15.031  0.3501  0.4408 -0.1658
22823W        W37954  10.166  11.552  14.223  0.2163  0.1387  0.0603
22824W        W37955  12.543  17.363   3.138  0.0212  0.2461  0.1046
22825W        W37956   7.938   8.923   4.259 -0.0029 -0.2308  0.3171
22826W        W37957   0.579  17.651  13.915  0.1379 -0.1015  0.0378
22827W        W37958   4.787  14.717   5.274 -0.1539  0.0122  0.0490
22828W        W37959   4.923  17.340   4.773 -0.2100  0.1950 -0.0793
22829W        W37960  10.928   5.873  14.363 -0.2217 -0.0049  0.0142
22830W        W37961   0.841   3.207   4.816 -0.1746 -0.3173  0.0702
22831W        W37962   7.406   0.775  14.856  0.1408 -0.1561  0.2287
22832W        W37963  12.616   9.709   4.363  0.1925 -0.0312 -0.7015
22833W        W37964   2.797  17.607   3.857  0.0560 -0.1452  0.0868
22834W        W37965   7.513  14.289  14.866  0.2480 -0.2215 -0.0077
22835W        W37966  14.757  11.597  12.486 -0.0418  0.1672  0.0168
22836W        W37967   3.675   0.000   1.248 -0.0963 -0.1290 -0.1941
22837W        W37968   3.757   8.537  15.071 -0.1837 -0.0295 -0.3815
22838W        W37969   8.804   7.846   3.128 -0.2012  0.0404 -0.0398
22839W        W37970   1.823   9.105   3.024  0.2615  0.3070  0.0411
22840W        W37971   8.351   9.336  12.692  0.1605 -0.2361  0.0207
22841W        W37972   2.937   8.959  15.542 -0.0450  0.0780 -0.0514
22842W        W37973  15.535  10.768   1.514 -0.0366 -0.0275 -0.0451
22843W        W37974   4.466   1.529   2.399 -0.0486 -0.0842  0.0283
22844W        W37975  16.555  16.682  12.498 -0.0317 -0.0393 -0.0721
22845W        W37976   7.083   2.057  15.802 -0.0763 -0.0087 -0.1026
22846W        W37977   6.413   3.368  13.576  0.1716 -0.1173 -0.0257
22847W        W37978   8.594  15.638  14.454  0.0378 -0.0328  0.0362
22848W        W37979  13.080   7.742  16.905  0.0380 -0.2878  0.1348
22849W        W37980   6.759  12.486   2.458 -0.1181  0.2423  0.0177
22850W        W37981   6.171  16.917   5.451  0.5038  0.0222 -0.3016
22851W        W37982  11.262  15.111  15.496  0.3227 -0.1846 -0.2469
22852W        W37983   7.725  11.229   0.059  0.0935 -0.0781 -0.0244
22853W        W37984   7.874   2.901  15.736  0.2015  0.2034 -0.1531
22854W        W37985   4.105  12.775   1.961 -0.0195 -0.0182 -0.1778
22855W        W37986   3.081  10.510  12.975 -0.2856 -0.0194  0.0477
22856W        W37987  13.993   2.788  14.928 -0.1199  0.1518 -0.3248
22857W        W37988   4.369  14.477  13.762 -0.0801  0.1426  0.1239
22858W        W37989   1.768   8.013  10.733 -0.0434 -0.1389 -0.1889
22859W        W37990  17.422   0.415   3.206 -0.2216 -0.0191 -0.2116
22860W        W37991   8.479  16.827   4.880 -0.0378 -0.1681 -0.2414
22861W        W37992   0.977   8.932   3.677  0.0425 -0.1793  0.4797
22862W        W37993  11.646   2.568  13.640  0.2131  0.1871  0.3157
22863W        W37994   7.541  17.246  15.614  0.0695 -0.2748 -0.0362
22864W        W37995   7.095   4.715   4.803  0.3726 -0.0531  0.0213
22865W        W37996   8.092   8.494   4.037 -0.0778  0.0651 -0.0241
22866W        W37997   5.049   9.704   0.229  0.0052 -0.0225  0.0283
22867W        W37998  16.567   4.344  14.056  0.1824  0.0179  0.1252
22868W        W37999  17.318   8.814  12.540  0.0409  0.1372 -0.0836
22869W        W38000  14.693   3.515   2.349 -0.0465 -0.0927  0.1091
22870W        W38001  17.008  15.059  14.248  0.2926  0.0455 -0.1339
22871W        W38002   0.005  10.742  11.936 -0.0562  0.0214 -0.0366
22872W        W38003  10.941   5.587   1.617 -0.1902 -0.0638 -0.0072
22873W        W38004   2.187  11.911   0.887 -0.0854 -0.1289 -0.0648
22874W        W38005   4.365  12.905   0.090  0.0576 -0.2731  0.0324
22875W        W38006   6.368   3.129   3.201 -0.1180  0.1710 -0.1278
22876W        W38007   4.805  14.735  12.910  0.0313 -0.3209 -0.2992
22877W        W38008   1.154   0.899   4.182  0.3911  0.4324 -0.3813
22878W        W38009   1.003   3.658  13.123 -0.1339  0.1118 -0.1072
22879W        W38010  12.257   3.075  14.978 -0.1912  0.0970  0.0898
22880W        W38011   8.833  12.725   5.746 -0.0450  0.1094 -0.0659
22881W        W38012   2.430   2.564   5.139 -0.2276  0.0350  0.3122
22882W        W38013  16.151   6.979   5.690 -0.2827  0.1920  0.0685
22883W        W38014   5.827  12.264   2.434 -0.1078  0.2202 -0.2905
22884W        W38015   6.707   6.946   4.154  0.3160  0.0215  0.1118
22885W        W38016   6.227   9.781   2.103  0.0122 -0.0157 -0.0481
22886W        W38017  16.651  12.107  14.580  0.0938  0.1786 -0.0259
22887W        W38018   8.321   0.596  13.331 -0.2179  0.1547  0.4921
22888W        W38019  10.485  17.698   5.110  0.3763  0.1333  0.0799
22889W        W38020  12.946  12.297   4.405  0.1867 -0.0033 -0.1230
22890W        W38021  17.664   8.702   1.835  0.0271 -0.0820 -0.2931
22891W        W38022  17.589   8.485  12.237  0.2871  0.1633  0.1951
22892W        W38023   9.869  12.565  15.528  0.0214  0.0148  0.3379
22893W        W38024   1.856  14.502  12.937  0.1158 -0.3168  0.0808
22894W        W38025   6.222  11.994   0.662  0.1294 -0.1148 -0.1111
22895W        W38026   8.905   0.850  16.696 -0.1762  0.0079  0.0555
22896W        W38027   1.741   5.037  11.456  0.2494 -0.0498 -0.2053
22897W        W38028  12.559  11.208  16.241  0.4340 -0.1788 -0.0034
22898W        W38029  16.742   5.456  15.068 -0.1335 -0.1093  0.0174
22899W        W38030   6.576  16.978  16.606 -0.1641 -0.2268  0.3151
22900W        W38031   6.825   7.845   6.101  0.0167  0.1270 -0.0459
22901W        W38032   1.843   8.625   3.951 -0.0443  0.2558 -0.3371
22902W        W38033  16.541   1.315   4.084 -0.3534 -0.0325  0.1430
22903W        W38034   1.991   6.903   3.633 -0.1855 -0.1996 -0.2235
22904W        W38035   5.236   8.547  12.007 -0.3192  0.2077 -0.3335
22905W        W38036  13.832  14.288  13.765 -0.0750 -0.0620 -0.0930
22906W        W38037  11.589   8.560  14.326  0.1449  0.3989 -0.1097
22907W        W38038   7.118  13.727   2.885 -0.0653 -0.1906  0.1411
22908W        W38039   2.034   2.820   0.141  0.1109  0.1263 -0.1453
22909W        W38040  15.109   1.277  13.653  0.1026 -0.0326 -0.0180
22910W        W38041  12.190  11.553  16.192  0.1602 -0.2184 -0.1937
22911W        W38042   3.371   0.394   0.496  0.0418 -0.2040 -0.2452
22912W        W38043  17.528  12.156   1.180 -0.1107  0.1446 -0.3702
22913W        W38044  14.627   8.678  14.020 -0.0128 -0.0293 -0.2904
22914W        W38045   5.118   0.669   1.756 -0.0122  0.1958  0.0491
22915W        W38046   8.982  17.092  14.246 -0.0566 -0.1298 -0.0184
22916W        W38047   5.081   7.213   0.917  0.2054  0.1033 -0.1103
22917W        W38048  13.973   7.755  15.923 -0.0068 -0.1241 -0.1381
22918W        W38049   9.895   5.557  12.331  0.0710 -0.2537 -0.2124
22919W        W38050   8.755  13.693   5.150 -0.0349 -0.2113 -0.0256
22920W        W38051  15.839   0.229   4.870 -0.2647  0.2689 -0.4786
22921W        W38052  10.625   7.554   4.076 -0.1483 -0.1196  0.2276
22922W        W38053   9.516   6.702  16.839 -0.0616  0.2471 -0.1994
22923W        W38054  10.519   1.956  14.736  0.1095  0.0807 -0.0742
22924W        W38055   3.743   4.354   0.375 -0.1560  0.3435 -0.0715
22925W        W38056  11.835   2.588   2.861  0.1426 -0.2002 -0.1442
22926W        W38057  11.973   1.442   0.819 -0.0074  0.0741 -0.0798
22927W        W38058   8.158   0.188   4.707 -0.0365  0.0662  0.3440
22928W        W38059  11.140  11.287  12.543 -0.2089  0.1824  0.2542
22929W        W38060   5.181   3.259  12.230  0.1453  0.1057 -0.0454
22930W        W38061  11.326  13.652   4.050  0.0632 -0.1027 -0.2112
22931W        W38062  12.910  11.824   2.575  0.1152  0.3076 -0.0213
22932W        W38063   8.152   2.845   1.519  0.1856  0.1030 -0.0078
22933W        W38064  17.384   4.840   0.537  0.1474 -0.0748 -0.0604
22934W        W38065   8.478   1.233  13.992 -0.1607 -0.1765 -0.1516
22935W        W38066  14.763   1.820  11.525 -0.1499  0.0149 -0.0481
22936W        W38067  13.375  11.760  16.567 -0.0885 -0.0806  0.0582
22937W        W38068   8.320  14.052   2.721 -0.2825 -0.1208  0.2065
22938W        W38069  16.130   6.715  15.008  0.0205 -0.4479 -0.1009
22939W        W38070   5.341   2.121   0.253 -0.2880  0.1788  0.0371
22940W        W38071  11.502   5.872  13.510  0.1240  0.0883  0.0234
22941W        W38072  14.170  16.640  16.313 -0.0653 -0.2332 -0.2524
22942W        W38073  16.442  10.072   5.250  0.1723  0.1112 -0.0890
22943W        W38074   7.693  13.071   3.556  0.1641 -0.4356 -0.3797
22944W        W38075  13.957  14.964   1.564 -0.0151 -0.1919 -0.1930
22945W        W38076  11.046  13.350   2.651  0.1483 -0.0372 -0.0014
22946W        W38077   7.879  17.025   0.413  0.4329 -0.0000  0.2250
22947W        W38078   2.919   1.623   1.602 -0.1829 -0.0506  0.2291
22948W        W38079  10.057  17.128  16.703  0.0194  0.1101  0.3662
22949W        W38080  12.214   3.333  16.605 -0.0651 -0.3494  0.0019
22950W        W38081   8.381   7.951   6.246 -0.0043 -0.0414 -0.0399
22951W        W38082  15.525   0.888  15.793 -0.2029 -0.1538  0.1689
22952W        W38083   4.562   4.664  16.907 -0.0698  0.0135  0.0355
22953W        W38084   5.918  10.721  15.429  0.2408  0.1065 -0.0774
22954W        W38085   7.241  15.221   1.250 -0.0289  0.0743 -0.2259
22955W        W38086  15.561   1.537   0.293 -0.6637  0.0275  0.2497
22956W        W38087   7.255   0.970   0.623  0.3205  0.1671  0.2688
22957W        W38088   7.153  15.048  12.046  0.1430  0.2654 -0.3650
22958W        W38089  17.249   8.250   0.637 -0.0385  0.0812 -0.0728
22959W        W38090   8.909   7.431   2.401  0.0282  0.1462  0.0600
22960W        W38091  13.387   2.380  14.100  0.0246 -0.1132 -0.0649
22961W        W38092   8.921   5.800  13.199  0.4636 -0.0495  0.2839
22962W        W38093   4.913  12.569  12.057  0.1134  0.2679  0.0377
22963W        W38094   7.354   3.001   3.005 -0.1712  0.1360  0.1242
22964W        W38095  15.599   4.463  10.619 -0.1609  0.0935 -0.0829
22965W        W38096   7.878   2.158   5.004 -0.0476 -0.0482 -0.0926
22966W        W38097  12.697   4.144  12.106 -0.2368 -0.3387  0.3867
22967W        W38098  16.791  15.833  16.816 -0.1504  0.1732 -0.2593
22968W        W38099   0.756   8.320   4.373 -0.1977 -0.1150  0.0638
22969W        W38100   6.037  17.343  14.126 -0.0482 -0.0215  0.0736
22970W        W38101  13.547   6.096   3.312  0.0871  0.2252 -0.0186
22971W        W38102  14.504  15.191  15.855  0.1402 -0.0229  0.2906
22972W        W38103  10.821  13.289   5.684 -0.1025 -0.0696 -0.1894
22973W        W38104   8.082   5.792   4.964 -0.1295  0.1287 -0.3173
22974W        W38105  16.950   4.184   1.280  0.2651 -0.4886 -0.0401
22975W        W38106   6.123   7.527  16.921 -0.1893 -0.0085 -0.0418
22976W        W38107   1.087  15.956   5.367 -0.0369  0.0034  0.1484
22977W        W38108   9.510  14.639  13.436 -0.0058 -0.2283 -0.2437
22978W        W38109  14.564   1.847   4.370  0.2606  0.0782 -0.1655
22979W        W38110   2.029   6.162  15.920 -0.0585 -0.2643  0.0622
22980W        W38111  14.981  16.257   0.435 -0.1465  0.1331  0.5208
22981W        W38112   1.210   8.172   2.600 -0.0161 -0.0642 -0.1209
22982W        W38113  12.719  12.187   2.326 -0.2253 -0.2055 -0.0245
22983W        W38114   2.434   3.502  12.003  0.0029 -0.0559  0.0547
22984W        W38115  15.119  16.431  13.762 -0.2754  0.1739 -0.1304
22985W        W38116   9.294   1.834   2.879 -0.2202  0.0514  0.1974
22986W        W38117   1.297   8.390   1.776  0.1680 -0.0501 -0.1584
22987W        W38118   0.035   3.414  13.185 -0.0248 -0.3640 -0.3898
22988W        W38119  16.571  11.168  13.348 -0.0056 -0.1060  0.1108
22989W        W38120  10.003   7.617   0.801  0.2989 -0.2369  0.2654
22990W        W38121   5.450   9.583   0.475 -0.2040 -0.1000  0.0220
22991W        W38122   9.915   6.091   0.870  0.1416 -0.2185 -0.1442
22992W        W38123   8.748   7.274   6.578 -0.0934 -0.0032  0.2818
22993W        W38124  12.369  13.492   2.565 -0.2781 -0.0006  0.3869
22994W        W38125   6.917   1.243  12.216 -0.2602  0.0416  0.1456
22995W        W38126  10.646  15.826   5.290  0.2283  0.3192 -0.1376
22996W        W38127  17.391   1.014  13.990 -0.1934 -0.0043 -0.2748
22997W        W38128  16.434   3.709   5.947 -0.5458  0.1235  0.2089
22998W        W38129   5.832   2.669   2.589  0.1690 -0.2870  0.0212
22999W        W38130  13.722   2.210   3.649  0.1306  0.0582 -0.2521
23000W        W38131  16.930   2.087  14.506  0.0288 -0.1497 -0.1826
23001W        W38132   5.464   3.985   1.174  0.1794 -0.1951  0.0845
23002W        W38133   0.310  13.999   0.677  0.1287 -0.0155 -0.1276
23003W        W38134  14.979  10.506   0.431 -0.0591 -0.0005 -0.1354
23004W        W38135  13.801   0.131   0.438  0.0011  0.2125  0.2983
23005W        W38136   5.790  13.639   1.854  0.0777  0.1640 -0.2354
23006W        W38137   5.002  11.685   4.253 -0.0401  0.1051 -0.0482
23007W        W38138  14.648   3.645  16.697 -0.2672  0.3343 -0.2415
23008W        W38139   5.587   6.418   1.355  0.1714 -0.1001 -0.2815
23009W        W38140  16.970   4.894  13.305 -0.2071 -0.2185 -0.0780
23010W        W38141   7.725  11.833   1.529 -0.1845  0.1910  0.1506
23011W        W38142  10.780  16.532  13.445 -0.0941 -0.2146  0.0642
23012W        W38143   9.410   0.627   4.897 -0.0073  0.0165  0.2117
23013W        W38144   4.692  17.196   3.451  0.5048 -0.1227  0.2676
23014W        W38145  13.209   4.184   5.337 -0.2009  0.0199 -0.0984
23015W        W38146  14.121  10.745  13.638 -0.0969 -0.2282  0.1692
23016W        W38147   3.333   0.730   2.614  0.0296  0.0488 -0.4688
23017W        W38148   4.684   0.045  15.764 -0.1256 -0.1540  0.1995
23018W        W38149   3.430   9.844  13.800 -0.1313 -0.0049  0.1537
23019W        W38150   4.023  10.859  12.001  0.0002 -0.2287 -0.0722
23020W        W38151  15.043   1.762   4.699  0.2051  0.2024 -0.1107
23021W        W38152   5.797   5.501  12.911  0.1324 -0.2178 -0.2561
23022W        W38153  12.089  15.336  16.029 -0.2123  0.1440  0.3718
23023W        W38154  13.852   5.164  16.011 -0.1528 -0.1218  0.1366
23024W        W38155  13.684   5.079  11.490  0.0014  0.1514  0.2853
23025W        W38156  13.295   5.801   3.605 -0.0899  0.0067  0.1036
23026W        W38157   5.616   5.445   1.514 -0.1824 -0.0860  0.0353
23027W        W38158  10.747   5.235  13.134 -0.2963 -0.0117  0.1072
23028W        W38159  12.943   9.642  16.523 -0.0382  0.0416  0.2633
23029W        W38160  14.984  17.448   1.731  0.0124  0.1426  0.0441
23030W        W38161   4.381  17.337   1.232  0.1602  0.0976  0.0403
23031W        W38162  15.082  15.660   0.335  0.3548 -0.1128  0.2931
23032W        W38163   2.658   9.598   1.531 -0.3739  0.1418 -0.0408
23033W        W38164  16.320   2.976   5.926  0.1195 -0.0172 -0.2221
23034W        W38165   2.964  10.188  11.850 -0.0287 -0.1631 -0.3163
23035W        W38166   4.314  10.700   2.470  0.1653 -0.2580 -0.0444
23036W        W38167   0.042   0.761  11.399  0.0394  0.1984 -0.2828
23037W        W38168   9.280  17.052  11.114  0.3709 -0.0762  0.0279
23038W        W38169  15.996   6.592   2.342  0.1759 -0.1561 -0.0229
23039W        W38170  11.429   6.756  14.245  0.2614  0.3531  0.2360
23040W        W38171   8.161   1.238   3.213  0.1062  0.0776 -0.2394
23041W        W38172   5.620  12.190  16.142  0.0838  0.2525 -0.3013
23042W        W38173  14.711   5.305  14.944  0.1334  0.1576 -0.3146
23043W        W38174   7.420  13.021  14.005  0.1760 -0.3134  0.1092
23044W        W38175   3.220  15.583   5.962  0.0590  0.1993  0.2355
23045W        W38176   7.986   9.238  14.121 -0.0745  0.0389 -0.2037
23046W        W38177  13.299  14.001   2.692  0.0199 -0.1390 -0.1424
23047W        W38178   8.938  15.020   0.516  0.0296  0.1309  0.0324
23048W        W38179   7.990   6.081  10.822 -0.1574 -0.0119 -0.3035
23049W        W38180  17.232  16.835  16.064 -0.1966 -0.3337  0.1612
23050W        W38181  11.056   6.853  15.993 -0.1083  0.0279 -0.1497
23051W        W38182   5.113  17.495  15.767  0.0261  0.1252  0.0711
23052W        W38183   7.942   2.515   1.767  0.0386  0.1964  0.0393
23053W        W38184   4.554   3.175  16.430  0.4169 -0.1780  0.0372
23054W        W38185  16.167  12.641   0.104 -0.0219 -0.3027  0.3566
23055W        W38186  16.465  14.866   2.131 -0.0967  0.0660  0.0555
23056W        W38187   4.901  10.154   4.383 -0.3464 -0.0444  0.0484
23057W        W38188  12.549   7.976  16.235 -0.0620  0.0331 -0.2188
23058W        W38189  15.309  13.214   0.972 -0.0663 -0.1862  0.1367
23059W        W38190   2.862  13.124   3.745 -0.2381  0.1061 -0.1352
23060W        W38191  12.941   8.460  13.490 -0.2442 -0.0597 -0.3428
23061W        W38192  11.794   9.456  15.939  0.0475  0.2437 -0.1555
23062W        W38193   8.273   3.332   3.829 -0.1040  0.2312 -0.1669
23063W        W38194   1.037   9.578  16.057 -0.2145  0.1096  0.2195
23064W        W38195   5.337   1.446   0.000  0.1182 -0.0562 -0.1712
23065W        W38196  11.068   6.639   4.346  0.0926  0.0866  0.1957
23066W        W38197  17.122  16.490   4.124 -0.1181  0.1589 -0.1315
23067W        W38198   5.250  16.220  13.883 -0.0350  0.0808 -0.0472
23068W        W38199   4.161   1.000  10.902 -0.0524  0.0443  0.0353
23069W        W38200   9.957   4.484  12.257 -0.1242 -0.0998  0.0471
23070W        W38201  13.748   1.294  12.636  0.0037 -0.1969  0.1797
23071W        W38202   5.304   9.744   5.515  0.2960 -0.0243 -0.0757
23072W        W38203   3.734  11.662   1.034 -0.1433  0.2341  0.0911
23073W        W38204   7.323  16.312  14.659  0.3565 -0.0453  0.0288
23074W        W38205   9.693  12.628   4.530 -0.0874 -0.1803  0.1620
23075W        W38206   5.044   9.079  12.894 -0.2086  0.0594 -0.2985
23076W        W38207   4.643   9.000  11.475 -0.2756 -0.1055 -0.1135
23077W        W38208   7.615   4.657  16.835 -0.3046 -0.3021  0.0875
23078W        W38209  10.863   3.371   3.300  0.0325 -0.0664  0.3386
23079W        W38210  13.377   6.549   3.265  0.2036  0.0166  0.2098
23080W        W38211  14.305  16.947   2.837  0.1946  0.1055 -0.0866
23081W        W38212  17.255   8.545  15.014  0.2765 -0.1881  0.0593
23082W        W38213   5.749   4.174   2.203 -0.1903  0.1731 -0.0482
23083W        W38214   4.394  16.833  11.881 -0.4188 -0.1572 -0.0820
23084W        W38215  16.700  17.242   6.566  0.1375  0.0203 -0.0054
23085W        W38216   8.406  10.262  13.622  0.2016 -0.1050 -0.0246
23086W        W38217   7.835   4.919   4.695  0.0995 -0.0059  0.2323
23087W        W38218   4.017  15.622   6.789 -0.4062 -0.0459 -0.2884
23088W        W38219   8.826   5.614  15.733  0.1912  0.0671  0.1168
23089W        W38220  10.218  11.371  15.944  0.2084 -0.1880  0.3906
23090W        W38221   4.908  11.437   5.316 -0.0035  0.0229 -0.4369
23091W        W38222   5.159  17.018   0.771 -0.0465 -0.3279 -0.0049
23092W        W38223  13.574   1.427   4.885  0.1012  0.1419 -0.0141
23093W        W38224   3.536  10.587  12.705  0.1407 -0.2417 -0.2131
23094W        W38225  14.724  11.727   3.878  0.2763  0.0443  0.0072
23095W        W38226  11.369  16.409  14.072 -0.0472  0.1712  0.0603
23096W        W38227   3.504  14.705  15.146 -0.2733 -0.1516 -0.2010
23097W        W38228  12.562  11.592  16.583  0.1922  0.1656 -0.1407
23098W        W38229  14.787   3.937   1.332  0.1634 -0.1862 -0.1769
23099W        W38230   7.586   3.529   2.681  0.1775 -0.0596 -0.1124
23100W        W38231   6.162  10.278  11.992 -0.0092 -0.4716  0.0875
23101W        W38232   1.175   0.854  13.244 -0.0467  0.0692 -0.2113
23102W        W38233   4.058  14.225  13.211  0.1181 -0.2747 -0.0297
23103W        W38234  17.263  10.202   5.700 -0.0937  0.0470 -0.1481
23104W        W38235  13.161  12.631  16.599  0.0673  0.1434 -0.0504
23105W        W38236   2.596   4.517  16.121  0.0996  0.1581  0.1055
23106W        W38237   2.891   8.350   5.148  0.1911  0.0591 -0.0455
23107W        W38238  16.351  12.161   1.270 -0.2461  0.0140  0.0453
23108W        W38239   6.631  10.065   1.206 -0.0433 -0.2616  0.4545
23109W        W38240   5.779   8.361  11.976  0.0124  0.2318 -0.2886
23110W        W38241   5.239   7.219  16.110 -0.0987  0.2276  0.2498
23111W        W38242   2.049   8.786  14.020 -0.0671  0.2216 -0.0982
23112W        W38243  16.815  12.034   1.374  0.0420 -0.0544 -0.1646
23113W        W38244  14.827   4.564   3.951  0.1930 -0.0004 -0.1354
23114W        W38245  14.945  12.935   4.896 -0.0594  0.2822  0.0520
23115W        W38246  10.339  16.147  15.899 -0.1164  0.0400  0.1344
23116W        W38247   1.855  16.403   4.325 -0.1278  0.0738  0.1081
23117W        W38248  16.310   0.480   5.770 -0.1002 -0.0008  0.0821
23118W        W38249   5.300  15.602   5.071 -0.0043 -0.1400  0.1021
23119W        W38250   7.992  11.107   5.747 -0.1109 -0.3449  0.0351
23120W        W38251  16.030  12.427  11.810 -0.2967  0.1513 -0.1466
23121W        W38252  13.610   6.491   0.937 -0.2302  0.2235 -0.0429
23122W        W38253  17.057  14.706   2.785  0.4100 -0.3825 -0.2221
23123W        W38254  12.794  14.354  15.384 -0.0119 -0.2041  0.1438
23124W        W38255  12.409  17.276   2.189 -0.2996  0.4465  0.2280
23125W        W38256   5.603   9.567   3.752 -0.1492  0.1145 -0.1273
23126W        W38257  11.745   6.350  14.209 -0.2897  0.1386 -0.2236
23127W        W38258   3.194   7.217   4.551  0.2479  0.0855  0.2655
23128W        W38259  15.553   9.274  15.339  0.0467  0.1122  0.1544
23129W        W38260  11.200  11.664   4.293 -0.2363 -0.2223  0.1673
23130W        W38261   7.180  10.560   3.734 -0.3039  0.5331  0.1592
23131W        W38262   9.882   2.514   0.516  0.1075  0.1596 -0.1723
23132W        W38263   5.137  14.126   1.946  0.1700 -0.4910  0.2688
23133W        W38264   8.248  10.583  11.680 -0.1156  0.1159  0.0287
23134W        W38265   6.808   6.618  14.206 -0.1605  0.2913 -0.1508
23135W        W38266  17.160  14.308   4.802 -0.1207 -0.1957 -0.0337
23136W        W38267   0.305   5.483   4.463 -0.2840 -0.1312  0.2680
23137W        W38268  12.160   0.792   5.619  0.1711 -0.3466 -0.0879
23138W        W38269   7.800   7.654  16.225 -0.1176 -0.0334  0.2585
23139W        W38270  16.627  12.670   0.279  0.2304 -0.0062 -0.1809
23140W        W38271   3.716   4.419  12.666  0.0672 -0.1252  0.0417
23141W        W38272   8.246   5.362   0.704 -0.2151 -0.1460 -0.0691
23142W        W38273   6.599   6.683   4.617  0.2998  0.2422  0.1436
23143W        W38274  16.286   1.564  10.951 -0.0319  0.0225  0.1992
23144W        W38275  13.114  11.219  14.764  0.0735  0.2603  0.1959
23145W        W38276   2.792  11.159   3.225 -0.0213 -0.0293 -0.0671
23146W        W38277  16.490  13.370   3.205 -0.0711 -0.0704  0.1326
23147W        W38278   0.631  10.653  15.466 -0.0582  0.0715 -0.2346
23148W        W38279   2.098   3.822   4.190 -0.2269 -0.1008 -0.1449
23149W        W38280   2.732   0.048  12.269 -0.2891  0.3865 -0.1053
23150W        W38281  13.684   8.858   3.603 -0.1728  0.0303 -0.0274
23151W        W38282  17.516   5.553   1.630  0.1311 -0.0511 -0.1486
23152W        W38283  13.776   2.458  10.421 -0.1916 -0.1616  0.0838
23153W        W38284   4.412   8.012  11.554 -0.1022 -0.2388  0.2145
23154W        W38285   2.377  12.994   5.882  0.0462  0.2563 -0.0580
23155W        W38286   4.020   1.771   4.543 -0.3837 -0.0030 -0.0416
23156W        W38287   7.600  12.796   1.854 -0.1472  0.1368 -0.0790
23157W        W38288  12.977  12.475  11.882  0.0862 -0.1083  0.1184
23158W        W38289  14.628  11.173   5.204 -0.0342 -0.0655 -0.0249
23159W        W38290  15.456  12.799  10.479 -0.1540 -0.3008  0.2176
23160W        W38291   8.756   9.512   1.287 -0.1562  0.1938 -0.1385
23161W        W38292   9.055   3.280  16.328  0.1014  0.0416  0.3447
23162W        W38293  11.195   5.008   4.687 -0.1349 -0.2774 -0.0461
23163W        W38294  10.907  10.901   0.239 -0.0968 -0.2031  0.1022
23164W        W38295  11.093   1.029  15.627 -0.0918 -0.1049  0.0768
23165W        W38296  12.263  13.899  12.168  0.3329 -0.0159 -0.1220
23166W        W38297   6.650  15.495   1.249  0.1289  0.1001  0.2446
23167W        W38298   3.255   9.770  15.450  0.1203 -0.0864 -0.1676
23168W        W38299   4.355   2.792  13.147 -0.2314 -0.0473 -0.0305
23169W        W38300   1.413   9.281  15.452 -0.1097  0.1583  0.0920
23170W        W38301  17.685   5.531   3.995  0.1420  0.0926 -0.0844
23171W        W38302   0.725   4.686  14.090 -0.0358  0.0306 -0.0028
23172W        W38303  17.201  14.198  14.314  0.0025 -0.2529  0.3294
23173W        W38304   7.844   1.505   1.140 -0.0068 -0.0784 -0.2289
23174W        W38305   0.195   0.905  11.857  0.0113  0.0582  0.2761
23175W        W38306   1.422   9.371   2.816 -0.0517 -0.0032 -0.2521
23176W        W38307  14.729   6.733   3.046 -0.2012 -0.2852  0.1380
23177W        W38308  17.142  15.400   5.184 -0.2106  0.1992  0.3211
23178W        W38309  12.143  14.762   2.423 -0.1035 -0.1828  0.2566
23179W        W38310   7.026   6.065  13.246 -0.1712  0.1586  0.0343
23180W        W38311   7.033  15.776   0.489  0.2162 -0.1127 -0.1071
23181W        W38312   8.212  16.254  16.634 -0.2317  0.0963 -0.0274
23182W        W38313  12.632   1.305  12.660  0.1538  0.2540 -0.1439
23183W        W38314  13.656   1.968  11.084  0.0012  0.1728 -0.3152
23184W        W38315  14.728   8.582   5.081 -0.0641  0.0270 -0.0251
23185W        W38316  16.526   9.535   0.223 -0.0024 -0.1989  0.2898
23186W        W38317   5.457  12.628  16.846 -0.1686 -0.2403  0.1767
23187W        W38318   7.629  15.656   5.873 -0.1303 -0.5215  0.2175
23188W        W38319   0.853   2.995   1.388  0.1039 -0.0274  0.1602
23189W        W38320   5.499  10.613   2.465  0.0599  0.1020 -0.0169
23190W        W38321  14.302  16.119  16.273 -0.0627  0.0160 -0.1269
23191W        W38322   5.276   2.958   5.177  0.1903  0.0449 -0.0213
23192W        W38323  17.387  15.968   1.485 -0.0735  0.1618  0.0243
23193W        W38324  14.205   4.370  16.714  0.1444 -0.0421  0.1565
23194W        W38325  14.382   5.379   0.791  0.1036 -0.1774  0.2016
23195W        W38326   8.453   7.082   4.189 -0.3626 -0.0804 -0.0270
23196W        W38327   7.591   3.416   3.618  0.0512  0.0671  0.0660
23197W        W38328   0.355   1.842   5.502 -0.0189 -0.2026 -0.2186
23198W        W38329  16.152  10.064   4.194 -0.1011  0.1563  0.2622
23199W        W38330   0.467  15.860  15.992 -0.1228 -0.1447 -0.0514
23200W        W38331   2.741  15.998   0.472 -0.5165  0.1353  0.2334
23201W        W38332   1.623   4.588  15.798 -0.1940  0.3683 -0.2234
23202W        W38333   7.345   3.661  16.350 -0.0874  0.1392 -0.4036
23203W        W38334  14.166   0.003  12.653  0.1606  0.2254  0.2990
23204W        W38335  16.404  17.171   3.027  0.0098 -0.0709  0.0202
23205W        W38336  12.536  12.440   1.354  0.0376 -0.1823  0.0529
23206W        W38337   7.959  11.501   3.744 -0.0672 -0.0367  0.0660
23207W        W38338   8.996  12.287  14.158 -0.1870  0.2316 -0.2205
23208W        W38339  11.534  13.296   2.222  0.0943  0.2776  0.2296
23209W        W38340   2.223   1.404   2.823 -0.1093  0.0753 -0.3410
23210W        W38341   1.977   6.649  11.177 -0.2813 -0.2348  0.0143
23211W        W38342   8.781   6.666  12.470  0.5891 -0.0077  0.2471
23212W        W38343  13.792   0.222   2.497 -0.2563 -0.2067 -0.1431
23213W        W38344   8.365   0.612   5.887  0.0688 -0.1474 -0.2116
23214W        W38345  15.947   6.298   0.155  0.0325  0.0573  0.5636
23215W        W38346   9.677   7.536  14.399 -0.2119  0.2794  0.1631
23216W        W38347   8.144   4.743  11.899 -0.0443 -0.0531 -0.1067
23217W        W38348  14.171  11.832  11.243 -0.2318  0.1554 -0.1178
23218W        W38349   7.133   7.549   3.596 -0.0853 -0.1144  0.0276
23219W        W38350   2.675   4.891   2.959  0.2068 -0.2355 -0.2282
23220W        W38351   7.734  14.047   1.211  0.1861  0.2624 -0.1006
23221W        W38352   6.293  12.139   1.614  0.1243 -0.0837  0.0264
23222W        W38353   4.916  15.885   0.994 -0.3028 -0.1519 -0.0981
23223W        W38354   9.642  15.067   2.110 -0.0571 -0.3309  0.4579
23224W        W38355   2.062   6.339  13.083  0.0990 -0.2149  0.0321
23225W        W38356   0.832   9.607  13.835 -0.0223 -0.2177 -0.1818
23226W        W38357   3.827   8.023   4.315 -0.1284  0.1079  0.1561
23227W        W38358   5.803   2.433   4.828 -0.1907 -0.3690  0.0621
23228W        W38359  13.698   6.937   3.797  0.0142  0.1815  0.2253
23229W        W38360   2.897   5.856   5.147  0.1236 -0.0171 -0.0861
23230W        W38361  12.542   7.517   3.527 -0.1255  0.2310 -0.0186
23231W        W38362  15.747  16.777   5.076  0.0268 -0.0111 -0.1536
23232W        W38363  13.599   6.771   4.351  0.0043 -0.0887  0.5112
23233W        W38364   1.053  13.361   0.611  0.2194  0.1411  0.0284
23234W        W38365   3.152   9.148   4.675  0.0488 -0.1255 -0.4608
23235W        W38366   1.513   0.703  12.413 -0.3795  0.0542  0.0191
23236W        W38367   4.855  11.491   2.654 -0.1309  0.0732 -0.1240
23237W        W38368   7.692   8.572   0.042 -0.1599 -0.0961  0.1235
23238W        W38369   5.528  14.887   0.179  0.0163  0.0574  0.2250
23239W        W38370   5.814  16.224   0.516  0.1308 -0.0645  0.2787
23240W        W38371  16.987   6.001   1.213  0.0182 -0.0643  0.0804
23241W        W38372   0.589   3.276  13.088  0.1253 -0.2694  0.1657
23242W        W38373   8.854  11.325   3.372  0.0099  0.2082 -0.0423
23243W        W38374  14.348  15.837   1.934 -0.2277  0.1957 -0.3617
23244W        W38375  16.467   4.693   4.531  0.0176 -0.1167 -0.3101
23245W        W38376  11.926  15.753   0.887 -0.1537 -0.0099  0.1130
23246W        W38377   6.433  17.193  13.427  0.1527  0.0803  0.0878
23247W        W38378  15.214  12.719   0.150  0.0349  0.1551  0.2731
23248W        W38379  14.140  11.045   5.222  0.3576  0.2065 -0.1383
23249W        W38380   0.186   7.710   3.334 -0.0468  0.2275 -0.2010
23250W        W38381   6.173  15.685  12.621  0.2018  0.0125 -0.2574
23251W        W38382   0.388   7.229   1.316  0.2570 -0.0799 -0.2300
23252W        W38383   0.198  11.424  14.081  0.0299 -0.1689  0.0931
23253W        W38384  10.829   2.417   3.664 -0.1352  0.1204  0.0484
23254W        W38385   4.023  11.074  12.932 -0.2400 -0.2031  0.1008
23255W        W38386  13.679   8.284   2.902  0.0736  0.3885  0.0642
23256W        W38387  17.427   2.650   0.102  0.3475 -0.1477  0.1173
23257W        W38388   9.360   4.331  14.108  0.0161  0.0539 -0.2274
23258W        W38389   7.863  12.062   3.707  0.1696  0.3028  0.0260
23259W        W38390  10.533  11.247  14.594 -0.1314 -0.0017  0.0429
23260W        W38391   4.356  10.048  16.727  0.1946 -0.1837 -0.0769
23261W        W38392   8.405   9.610   5.962 -0.0860  0.1336 -0.1038
23262W        W38393  11.178  16.607  13.062  0.1354 -0.0362 -0.2316
23263W        W38394   1.609   0.403   1.672  0.3412 -0.1105 -0.2308
23264W        W38395   9.314   7.576  14.753  0.0477 -0.0049 -0.3690
23265W        W38396   5.595  14.158  12.608 -0.0698  0.0684  0.2513
23266W        W38397   2.086  13.578  12.340 -0.0295 -0.2137  0.0002
23267W        W38398   2.652   6.608  15.025  0.0002  0.2269 -0.1887
23268W        W38399   3.797   5.503   4.355 -0.3075  0.0825 -0.1358
23269W        W38400   8.897   8.383   3.273  0.2359 -0.0325  0.1043
23270W        W38401  16.800  10.094  11.397 -0.0844  0.1549  0.0182
23271W        W38402  14.088   4.112  10.970 -0.0995  0.1416  0.0178
23272W        W38403   5.454  12.702   3.186  0.2378 -0.2352 -0.0229
23273W        W38404   4.419   2.051  14.813 -0.0101  0.0590  0.0719
23274W        W38405   0.553  17.697  11.576  0.1031 -0.3360  0.2309
23275W        W38406   6.819  14.470  13.036  0.1509  0.2042  0.2162
23276W        W38407   4.012  10.971  14.394  0.0527 -0.0864  0.0161
23277W        W38408   8.927   6.379  10.183 -0.0265  0.1032  0.3378
23278W        W38409   3.879   4.574   4.517  0.0377  0.2153 -0.0958
23279W        W38410   8.559  16.917  12.556  0.4422  0.2912 -0.1902
23280W        W38411   4.122   1.768   6.666  0.3264  0.2196 -0.2395
23281W        W38412   6.448   1.920  15.702  0.0374 -0.3551 -0.2213
23282W        W38413  14.131  12.451  13.918  0.2021 -0.1555  0.3520
23283W        W38414  16.188   2.596  12.953 -0.3565 -0.2873  0.0010
23284W        W38415  12.846   8.615  14.854  0.2224  0.1405  0.2672
23285W        W38416  17.099   3.081   6.057 -0.0039  0.0104  0.1787
23286W        W38417  10.320   5.161  13.442  0.0064  0.0591 -0.2641
23287W        W38418   5.860  15.921   2.407 -0.2028 -0.0137  0.0090
23288W        W38419   1.793  13.559  15.304  0.0983 -0.4721 -0.1429
23289W        W38420  13.042   4.650  15.256 -0.0320  0.0015 -0.1063
23290W        W38421  13.696   9.033   2.220  0.2605 -0.0110 -0.0017
23291W        W38422  11.704   0.740   2.889  0.1419 -0.0611  0.0552
23292W        W38423  15.383   4.207  11.063  0.2295 -0.0478  0.1665
23293W        W38424  10.772  13.118   2.973  0.4550  0.0564  0.1689
23294W        W38425  10.230  16.777   2.663  0.3555  0.1256  0.2199
23295W        W38426   0.109  12.939  11.312 -0.0892 -0.1506  0.2221
23296W        W38427   5.819   4.640   2.062  0.1289  0.3016 -0.1980
23297W        W38428   0.409   6.502   4.523  0.1057  0.1741  0.0068
23298W        W38429  13.205  15.551  14.131 -0.1337  0.1998  0.0311
23299W        W38430   8.533   6.531  13.779 -0.0224  0.2716  0.2696
23300W        W38431   8.622   9.733   0.809 -0.0561  0.0199 -0.0127
23301W        W38432   2.483   9.246   4.582 -0.0357 -0.0542  0.0664
23302W        W38433   5.029   9.324   3.601  0.1720  0.2174  0.1589
23303W        W38434  17.319  10.902  11.713 -0.0573 -0.1436 -0.1091
23304W        W38435   8.255  15.481   0.286  0.2972  0.0144  0.0841
23305W        W38436  13.131   3.439  14.452 -0.2124 -0.1290  0.1203
23306W        W38437   7.724   9.645   1.680 -0.0453  0.1238  0.1252
23307W        W38438  16.649   4.327   0.906  0.3232 -0.1781 -0.2535
23308W        W38439   9.757  11.382   4.947  0.1655  0.0655  0.2027
23309W        W38440  16.618   7.798  12.706  0.0510 -0.1389  0.0006
23310W        W38441  16.684   8.198  15.921  0.1618 -0.0904  0.2969
23311W        W38442  11.451   9.780   2.885  0.0734  0.1427  0.3066
23312W        W38443  16.320   6.325   5.363  0.0001 -0.0095  0.0262
23313W        W38444   5.123  16.184   1.417 -0.0846  0.0268 -0.1545
23314W        W38445  12.630  11.370   4.646  0.3646 -0.0711 -0.3088
23315W        W38446   5.444   7.117  14.744  0.0263 -0.1405 -0.2158
23316W        W38447   8.480   6.818  12.030  0.1615 -0.1854 -0.3078
23317W        W38448   3.441   4.741   1.741  0.0920 -0.0198  0.0204
23318W        W38449   0.164   0.921  15.110 -0.0632  0.0572  0.0808
23319W        W38450  16.696  16.705   2.492  0.2947  0.0400  0.0438
23320W        W38451   5.195   7.566   3.001 -0.3384  0.0210  0.1020
23321W        W38452   8.930   3.209  14.100 -0.1013  0.0799 -0.5709
23322W        W38453   6.640   6.168   1.289 -0.1924  0.2132  0.0608
23323W        W38454  16.197  13.216   4.684  0.0731 -0.0470 -0.0459
23324W        W38455  11.723  17.384   0.963 -0.5621 -0.2322 -0.2299
23325W        W38456   0.626   3.783  14.443  0.1565 -0.1079  0.3017
23326W        W38457   6.427  13.470  11.959 -0.1006  0.4487  0.4473
23327W        W38458   2.542   8.090   2.645  0.0307  0.2462 -0.1196
23328W        W38459   1.621   8.972   4.193  0.1473  0.3777  0.0859
23329W        W38460  17.325  13.287   5.096  0.0764  0.0601  0.0210
23330W        W38461  16.745  15.631   4.170  0.0301 -0.1235 -0.2068
23331W        W38462   3.597  12.555  12.290 -0.4391  0.0198  0.2075
23332W        W38463   8.464  11.755   0.828 -0.0571  0.1869 -0.1720
23333W        W38464  10.056  12.159  12.499 -0.2235 -0.1205  0.3023
23334W        W38465   6.806   8.427   4.847 -0.0833 -0.3087  0.1972
23335W        W38466   8.365  12.387   4.134 -0.0943 -0.1705  0.2012
23336W        W38467   5.455   2.752  16.407 -0.0075 -0.0696 -0.3754
23337W        W38468  15.389   8.381   0.021 -0.3098  0.0196 -0.0143
23338W        W38469   1.813  15.671  12.181  0.1360  0.3014  0.3111
23339W        W38470   0.210  12.567  13.466  0.0825 -0.0792 -0.1611
23340W        W38471  16.881   1.117  12.496  0.0498  0.3833 -0.0916
23341W        W38472  11.478  12.758   2.174 -0.0191  0.0964 -0.2496
23342W        W38473   5.082  15.637  12.074  0.1377 -0.0542 -0.0242
23343W        W38474  12.610   0.845   0.187  0.0327 -0.0816 -0.1656
23344W        W38475   6.566  13.969   5.396  0.1421  0.3126 -0.1676
23345W        W38476  13.161   0.562  11.085 -0.0888  0.1577  0.2572
23346W        W38477  10.077   8.097   0.976  0.0121 -0.0067 -0.0147
23347W        W38478   6.203  16.164   5.566  0.2417  0.1845 -0.1410
23348W        W38479   9.041   4.844  15.138 -0.0233 -0.0240 -0.1204
23349W        W38480   5.310   7.714  14.725  0.1546 -0.2652 -0.1337
23350W        W38481   6.388  17.079  15.451  0.2625 -0.0003  0.0537
23351W        W38482  13.766  15.872  12.464 -0.0407 -0.2035 -0.1943
23352W        W38483  16.777   7.913  10.743 -0.2389  0.0325  0.1041
23353W        W38484  14.216  12.463  16.701 -0.0156 -0.0390 -0.1183
23354W        W38485   8.950   1.194   6.213  0.1001 -0.1930  0.2985
23355W        W38486   6.352   4.949  10.768  0.2627 -0.1691 -0.2982
23356W        W38487   8.103  15.664  16.172  0.2778 -0.0821 -0.0957
23357W        W38488  10.557   9.431   3.210 -0.0028 -0.1055 -0.0387
23358W        W38489   9.833   6.710  11.700 -0.0710 -0.3760  0.1781
23359W        W38490   9.866   9.488   3.294  0.1258  0.0185 -0.2654
23360W        W38491   2.242   1.147  12.350  0.3127  0.0610 -0.2051
23361W        W38492  12.392  13.569   6.283  0.3350 -0.0181 -0.2306
23362W        W38493  14.732   8.352  13.543 -0.2678 -0.1502  0.2109
23363W        W38494   3.524   5.720   2.332  0.3932  0.1488 -0.1890
23364W        W38495  17.109  14.903   0.072  0.0081  0.0623  0.2159
23365W        W38496   2.423   6.678   4.839 -0.1256  0.1339  0.0109
23366W        W38497  11.938   5.664  14.343 -0.1065 -0.1094 -0.0201
23367W        W38498   2.661   9.401  14.462 -0.2814  0.3974  0.1511
23368W        W38499   4.265   2.660  11.415  0.1728 -0.4266 -0.4563
23369W        W38500  10.242  10.734  10.768 -0.1371  0.3656 -0.0772
23370W        W38501  11.624   5.936   3.749 -0.0138  0.3057 -0.2452
23371W        W38502   6.707  11.710   6.570  0.0263 -0.1218 -0.1521
23372W        W38503  14.180   8.756   2.182  0.0651 -0.1926 -0.2086
23373W        W38504   6.813   8.596  15.265 -0.2847 -0.1936 -0.1163
23374W        W38505  17.571   0.819   0.277  0.1503 -0.0769  0.2003
23375W        W38506  11.381  17.678  12.198  0.2327 -0.0458 -0.0736
23376W        W38507   3.237   1.236   1.661 -0.4010  0.1140 -0.0463
23377W        W38508  12.453  11.218   5.585  0.1638  0.0278 -0.1722
23378W        W38509   7.276   8.577   4.995 -0.0634  0.0472  0.2497
23379W        W38510   0.517   5.386   4.915  0.0908 -0.1632 -0.0582
23380W        W38511  12.452   8.551   2.360 -0.4875 -0.0668  0.0694
23381W        W38512  14.990  12.737   4.406 -0.0379 -0.0853 -0.1136
23382W        W38513  12.137   6.405   1.664  0.1391  0.1619 -0.0265
23383W        W38514   4.749   7.671  13.465 -0.1213  0.3476  0.1362
23384W        W38515  10.788  11.211  16.197 -0.0085  0.1644  0.0745
23385W        W38516  14.339   7.916  16.325 -0.1362 -0.1502 -0.3496
23386W        W38517  16.229   8.977  16.695  0.1022 -0.0047  0.0260
23387W        W38518  15.949   5.457   3.677 -0.1151 -0.0651 -0.1766
23388W        W38519  11.736  16.797   0.049 -0.2102 -0.0224  0.0416
23389W        W38520   6.638   2.092   0.575  0.1316  0.1911  0.2410
23390W        W38521   0.098   1.530   4.212 -0.0021  0.1946 -0.0504
23391W        W38522   3.656  16.232   2.443 -0.0051  0.0290 -0.2353
23392W        W38523  15.630   5.279  14.099  0.3200  0.1115 -0.2946
23393W        W38524  12.731  17.617  16.438 -0.0504  0.2575 -0.1533
23394W        W38525  12.242   2.021   1.559  0.1515 -0.0892 -0.2113
23395W        W38526  12.523  17.149  13.654 -0.2954  0.0638  0.0092
23396W        W38527  16.310  15.584  15.703  0.0907  0.0735 -0.3261
23397W        W38528   2.265   4.545   3.928 -0.0696  0.2784 -0.2330
23398W        W38529   3.249  10.531   0.150  0.1420  0.0937 -0.1865
23399W        W38530   3.219  11.555  12.093 -0.0346 -0.1442 -0.1378
23400W        W38531  16.984   5.244   3.252 -0.0525  0.0269  0.1941
23401W        W38532   9.781  15.633   4.229 -0.2726  0.0924  0.5914
23402W        W38533   5.460  15.116  13.860  0.5239  0.1549  0.2230
23403W        W38534  11.245  17.090  16.408  0.0918  0.0914  0.2309
23404W        W38535   8.282   8.878   1.746  0.2155 -0.0009 -0.1898
23405W        W38536   8.543   3.132   1.447 -0.0265  0.1336 -0.0702
23406W        W38537   7.128  11.500   3.399  0.2731  0.3029 -0.3108
23407W        W38538   1.996  11.902   4.229 -0.0049  0.2571 -0.2824
23408W        W38539  13.691   9.838   5.483  0.1773 -0.1602 -0.4361
23409W        W38540   8.514  10.576   2.762  0.0233 -0.0481 -0.3529
23410W        W38541  14.719   5.964   5.202  0.1448  0.0852  0.0415
23411W        W38542   7.111   9.579  12.500  0.0038  0.3505 -0.3099
23412W        W38543   6.867  17.337  14.674 -0.1047  0.1880  0.0528
23413W        W38544  12.941   9.012  15.201  0.0313 -0.0801  0.3419
23414W        W38545   1.867  13.589   2.929  0.1526 -0.3873 -0.1484
23415W        W38546   9.995   6.458  12.146  0.0332  0.0928 -0.0358
23416W        W38547   0.208   0.514   4.545  0.0629 -0.4184  0.0756
23417W        W38548  10.961   2.272  14.720  0.1955 -0.1847  0.0837
23418W        W38549  15.078   2.106  11.725  0.0249 -0.0192  0.0844
23419W        W38550   3.815   8.068   2.943 -0.1292 -0.1715 -0.0814
23420W        W38551  12.382   7.093  13.850 -0.1519  0.0558  0.0785
23421W        W38552  15.854   5.890  12.583  0.1868  0.3380 -0.1370
23422W        W38553   8.617   7.471   2.907 -0.2230 -0.0830  0.0862
23423W        W38554  14.461  12.529  10.678  0.0529  0.0779 -0.4085
23424W        W38555  16.625   8.994   2.746  0.1026 -0.0659 -0.0235
23425W        W38556   6.397  14.246  14.255 -0.1180 -0.0608 -0.0341
23426W        W38557   4.788  14.657  13.564 -0.1440 -0.0328 -0.1514
23427W        W38558   0.162   0.898   4.825  0.0488 -0.2424  0.1107
23428W        W38559  12.866   6.105   0.960 -0.0521 -0.0649 -0.1005
23429W        W38560  14.075   7.631   0.000 -0.2787 -0.0424 -0.0195
23430W        W38561  11.605   7.323  12.448 -0.0700  0.0649 -0.0564
23431W        W38562   5.258   9.398   4.076 -0.0209  0.2182 -0.1786
23432W        W38563  11.654   9.843  11.612  0.4151 -0.1828 -0.2944
23433W        W38564   1.773   7.020   0.585  0.2408 -0.0153 -0.0979
23434W        W38565  15.105   0.672   2.836  0.1448 -0.2299  0.0663
23435W        W38566   0.975   8.944   1.049 -0.1011  0.1418 -0.2024
23436W        W38567  12.347   6.972  12.927  0.1418  0.0226 -0.1384
23437W        W38568   8.337   4.187   3.592 -0.0685  0.3296 -0.0415
23438W        W38569   7.370   2.949  14.563  0.0840 -0.2768  0.2324
23439W        W38570  17.480  12.125  11.409  0.1370 -0.1387  0.0240
23440W        W38571   7.377  10.086   6.328  0.2288  0.2742  0.1946
23441W        W38572  17.547   4.615   5.101  0.3080 -0.2806 -0.1165
23442W        W38573  16.938  11.778   6.384 -0.1525 -0.1585 -0.0739
23443W        W38574   4.574  13.786  15.171 -0.1456  0.0745 -0.0057
23444W        W38575   9.841   6.236   4.222 -0.1356  0.3245 -0.1854
23445W        W38576  11.622   7.489  15.991 -0.1365 -0.3616 -0.2132
23446W        W38577  14.814   1.776   3.392 -0.1835 -0.1695  0.0544
23447W        W38578  13.043   0.731   2.581  0.0812  0.0660  0.0181
23448W        W38579   8.570  14.373   1.306 -0.1567 -0.0950 -0.0502
23449W        W38580   2.997   8.464   2.078 -0.3005  0.0286  0.1217
23450W        W38581   6.134   7.222   2.679  0.1757  0.2002  0.1266
23451W        W38582  12.620  11.163   0.904 -0.1502  0.2535 -0.1573
23452W        W38583   8.040  16.335  15.451 -0.0547  0.3780 -0.1175
23453W        W38584  11.913   4.403  13.642  0.3105  0.3906 -0.3866
23454W        W38585   8.711   5.811   5.287 -0.0705  0.2967  0.0208
23455W        W38586  15.203   7.490  13.562 -0.1748  0.0658  0.1070
23456W        W38587   9.530   1.931  12.787  0.3581 -0.1263 -0.1742
23457W        W38588   3.903  15.695  14.084  0.0624  0.3492 -0.1153
23458W        W38589   2.256   4.817  14.606 -0.2068  0.3006  0.4676
23459W        W38590   9.225   8.511  14.375 -0.0254  0.3459  0.1604
23460W        W38591   6.712   2.446  16.716 -0.0632 -0.3460 -0.2158
23461W        W38592   9.385  13.808   1.672 -0.1348 -0.0635 -0.0100
23462W        W38593  14.967   9.034  11.497 -0.0250 -0.3662 -0.4233
23463W        W38594  14.165   9.956  14.679  0.0104  0.1856 -0.1204
23464W        W38595  11.917  10.911   1.522 -0.1893 -0.1015  0.1109
23465W        W38596  15.766   2.339  12.282 -0.0685 -0.0342  0.1514
23466W        W38597   7.284   4.152  15.276 -0.1514 -0.0515  0.1252
23467W        W38598  13.957  13.213  14.666 -0.2670 -0.1598 -0.0192
23468W        W38599   8.100  17.040   1.554  0.0427 -0.2507 -0.1757
23469W        W38600   1.859  17.371   2.621 -0.0609 -0.3644 -0.0458
23470W        W38601   3.012  11.021  12.889 -0.1599 -0.0173  0.0024
23471W        W38602   8.995  15.578   5.960  0.2236  0.1710  0.3481
23472W        W38603  11.645  11.125  16.873 -0.0289 -0.0244  0.2263
23473W        W38604  15.837   7.999   0.732  0.0511 -0.3154 -0.1236
23474W        W38605  14.508  13.721   2.261 -0.0996  0.1725 -0.2921
23475W        W38606  17.250  11.380  14.540 -0.1239 -0.0554 -0.1483
23476W        W38607   9.610  15.656   6.635  0.0201 -0.0209  0.0763
23477W        W38608  14.079   0.390  14.215  0.3883 -0.0203  0.2318
23478W        W38609   2.672   3.514  12.803 -0.2909 -0.1633 -0.1978
23479W        W38610  13.512   5.153   0.761 -0.2925 -0.0741  0.0605
23480W        W38611   0.159  17.293   1.716 -0.0246 -0.0945 -0.0438
23481W        W38612  12.438  15.843  12.311  0.1816 -0.2233  0.1934
23482W        W38613   8.862  10.947  14.570  0.0518 -0.0863  0.1127
23483W        W38614  17.694   2.978   4.023  0.0089 -0.0757 -0.4370
23484W        W38615  12.292   3.750   4.084  0.0749  0.1851 -0.1732
23485W        W38616  17.682  13.929   6.286  0.2171 -0.0803 -0.1842
23486W        W38617   4.996  17.486  12.015 -0.0745 -0.1230  0.0411
23487W        W38618   7.520  12.017  12.320 -0.0161  0.0621 -0.0219
23488W        W38619  11.069  15.603   2.171 -0.1108  0.2515  0.1319
23489W        W38620  15.477   9.030  13.809 -0.0222 -0.3263  0.1027
23490W        W38621  10.784  16.527  11.836  0.2397 -0.1101 -0.3509
23491W        W38622   3.042   8.784  12.544  0.0277  0.0490  0.1695
23492W        W38623  11.078   7.168   3.245 -0.1754  0.1521  0.2158
23493W        W38624  12.631  15.510  15.975  0.1335 -0.0185  0.0351
23494W        W38625  13.975   0.220   1.048  0.1712  0.2474  0.0999
23495W        W38626  16.867   0.579   3.285 -0.1469 -0.3615  0.0040
23496W        W38627   0.631   0.347   3.749  0.0175  0.0470  0.0772
23497W        W38628   1.657   0.670   2.097 -0.0444 -0.2983 -0.1677
23498W        W38629   2.022   2.808  16.605  0.1117 -0.0176  0.2547
23499W        W38630  16.180  11.009   2.140  0.1204 -0.0371 -0.2196
23500W        W38631   2.989   9.202  13.843 -0.1295 -0.2135  0.0728
23501W        W38632  12.286   2.041  11.619  0.1747 -0.0957 -0.1445
23502W        W38633  17.629  16.477   0.643 -0.1912 -0.1503  0.0708
23503W        W38634   6.877   0.090  16.005 -0.1263  0.1402 -0.0261
23504W        W38635   4.204   6.745   3.762  0.2160 -0.1217 -0.2262
23505W        W38636   8.639   5.167   4.575 -0.1818 -0.0871  0.0885
23506W        W38637   8.797   5.462  13.537 -0.1758  0.1767 -0.1313
23507W        W38638   1.613   9.991  11.356  0.0937 -0.1467  0.0674
23508W        W38639  13.262   4.396  11.451  0.1523  0.1460  0.1143
23509W        W38640  13.685  16.842  14.680 -0.1971 -0.1506  0.1784
23510W        W38641  14.438   0.447   0.978  0.0565  0.1050 -0.2571
23511W        W38642   2.374  12.743   5.378 -0.1043 -0.1820 -0.3148
23512W        W38643  11.803  12.129  15.667  0.4232 -0.2805  0.1391
23513W        W38644   7.579   5.158   2.296 -0.1041  0.3762  0.0482
23514W        W38645   8.248  13.049  11.894  0.1760  0.3149  0.1631
23515W        W38646  11.950   4.645   4.388 -0.2088  0.0867 -0.0873
23516W        W38647   2.701  16.842  14.926  0.0728 -0.4678 -0.1561
23517W        W38648  15.496   2.725   5.646  0.3501 -0.0500  0.0649
23518W        W38649  13.306   4.449  16.537  0.0555 -0.0376 -0.1617
23519W        W38650   9.046   9.178  12.546 -0.1483  0.1101 -0.2168
23520W        W38651   0.872   8.137  13.159 -0.0015  0.1056  0.3293
23521W        W38652  12.393  15.654  11.842  0.0419  0.0241 -0.1708
23522W        W38653   0.696   3.665  12.738 -0.1050  0.2034  0.2202
23523W        W38654  12.327   3.086  16.057 -0.2157  0.2191  0.1012
23524W        W38655  17.218   6.236  15.791 -0.0737 -0.0057  0.1717
23525W        W38656  13.389  14.467   5.649  0.0796 -0.1034 -0.1702
23526W        W38657   6.257  14.734   4.080 -0.2863 -0.0590  0.3118
23527W        W38658   8.519   7.002  13.569 -0.0264  0.3061 -0.0654
23528W        W38659   9.359   3.192  14.431  0.0475  0.1024 -0.2685
23529W        W38660   9.941   9.111  14.949  0.1223  0.2088  0.0454
23530W        W38661  14.349   8.983  15.378 -0.3054 -0.0058 -0.1119
23531W        W38662  14.793   2.638  14.718  0.0477  0.0362  0.0695
23532W        W38663   2.275  14.565  12.033 -0.2258  0.3210 -0.0066
23533W        W38664   2.621  13.979   0.578  0.0144 -0.1706  0.1639
23534W        W38665  15.775  14.592   4.300  0.1625  0.1156  0.1556
23535W        W38666   2.993  10.741   0.706  0.0472 -0.1642  0.1275
23536W        W38667   0.200   1.695  13.616  0.4874 -0.3023 -0.3241
23537W        W38668   6.765   9.435  14.749 -0.2894 -0.0813  0.0776
23538W        W38669  13.204   4.051  14.214  0.0920  0.0571  0.1771
23539W        W38670   9.903  14.790   5.600 -0.3224 -0.2138  0.0475
23540W        W38671   8.332   5.717  13.678 -0.1595  0.0654 -0.2685
23541W        W38672  16.905   5.728   1.647  0.1248 -0.1057  0.0017
23542W        W38673  11.777  10.411  13.722 -0.1668  0.1619  0.1352
23543W        W38674   5.182   7.667   1.232  0.0059 -0.0317  0.0035
23544W        W38675   1.829   0.852   1.695 -0.2346  0.2510  0.0275
23545W        W38676   5.722  11.251   0.749 -0.0240 -0.3218  0.0114
23546W        W38677  16.342  12.995  16.210  0.2920 -0.0778  0.0080
23547W        W38678  13.859  16.166   6.016  0.0207 -0.1232 -0.0931
23548W        W38679   2.884  17.692   2.233  0.0606 -0.0447 -0.0156
23549W        W38680  13.099   8.189   4.395  0.2892  0.2189  0.3146
23550W        W38681   2.569   3.726  16.753  0.0565 -0.2709 -0.1993
23551W        W38682   3.184  10.711   1.564  0.0689 -0.0001  0.0794
23552W        W38683   0.356  13.326   1.785  0.0964 -0.2294  0.1134
23553W        W38684   1.396  15.282   3.147 -0.2069  0.0607 -0.0694
23554W        W38685   8.227  16.978   5.642 -0.0343 -0.0991 -0.0479
23555W        W38686   6.451   0.101  12.793  0.2080 -0.0047 -0.0099
23556W        W38687   8.209   3.652  15.160  0.0621  0.2084 -0.1116
23557W        W38688  15.319   0.819  13.790 -0.0082 -0.1991  0.0376
23558W        W38689   9.540   1.012   2.451 -0.2928 -0.1781  0.2993
23559W        W38690   2.680   1.234  10.737 -0.0154  0.0985 -0.2104
23560W        W38691  13.873  10.762  10.826  0.0145  0.0163  0.1844
23561W        W38692   1.900   6.648  16.182  0.1972  0.0619  0.4170
23562W        W38693   6.567   5.521  13.503 -0.1292  0.1543 -0.2614
23563W        W38694   6.918   7.837  15.243 -0.0073  0.0372  0.1234
23564W        W38695   1.316  11.652   0.695 -0.0175  0.0730  0.2948
23565W        W38696   3.604   3.088   4.030  0.0115  0.1447  0.0369
23566W        W38697   7.303   7.285  13.094  0.1826 -0.0757  0.0396
23567W        W38698  12.929   7.370   3.127 -0.1812  0.1021  0.1123
23568W        W38699   9.018  12.769  11.865  0.0977  0.0766  0.0285
23569W        W38700  13.206   9.441  14.977 -0.1229  0.1358 -0.0995
23570W        W38701   2.536  14.317  15.166  0.0235  0.1822 -0.3056
23571W        W38702  14.839   0.008  13.230  0.1164  0.2297  0.1812
23572W        W38703   8.804  16.461   4.994 -0.2829 -0.1860 -0.2073
23573W        W38704  11.282   0.147   4.338  0.0032  0.0098 -0.1512
23574W        W38705   9.949   1.874   3.711 -0.1398  0.2214  0.2119
23575W        W38706   6.472  15.802   0.344 -0.2003 -0.0168  0.2365
23576W        W38707   1.348   9.539  11.305  0.2158  0.1396 -0.1184
23577W        W38708  15.267   5.542   4.328  0.1477 -0.2697 -0.1487
23578W        W38709   3.970  12.425  13.035  0.3018  0.2300  0.2324
23579W        W38710   6.772   6.628  10.042 -0.0112 -0.1460  0.2445
23580W        W38711   7.514   7.224  12.004  0.2389  0.1976 -0.1352
23581W        W38712   2.227  15.276   3.413 -0.1905 -0.1709 -0.0704
23582W        W38713   2.716   1.800   1.160  0.1484 -0.0858  0.0956
23583W        W38714  11.702   0.079  14.011 -0.0617  0.0984  0.1328
23584W        W38715   5.114  16.785   5.484 -0.2684  0.1354  0.1820
23585W        W38716  14.498   9.428   3.568  0.0987 -0.2373 -0.2631
23586W        W38717   0.016   7.228   4.989  0.1394 -0.0268 -0.1737
23587W        W38718   0.665   2.261  14.696 -0.1217  0.1298  0.2702
23588W        W38719  13.341  13.933   0.190 -0.1709 -0.1080 -0.0503
23589W        W38720   0.080   7.194   2.351 -0.0229 -0.3505  0.2714
23590W        W38721  14.300   9.593  16.079  0.0858  0.2439 -0.1940
23591W        W38722   6.459  12.985   1.381 -0.1434 -0.3631  0.0199
23592W        W38723   6.848   1.170   1.127  0.0806  0.0321  0.1250
23593W        W38724  14.738   6.088  11.708 -0.3029  0.1591 -0.4338
23594W        W38725   9.211   4.946   5.467  0.0337  0.0472  0.1371
23595W        W38726  16.031   4.640  12.054 -0.1584  0.1210  0.2380
23596W        W38727   3.419  14.115   4.600 -0.1797  0.0205 -0.3014
23597W        W38728  15.533   4.720  15.987  0.1112 -0.0599 -0.1793
23598W        W38729   6.345  16.152  11.932  0.0507  0.0768  0.1018
23599W        W38730  12.895   2.917   0.578 -0.0008  0.1678  0.0651
23600W        W38731   0.472   2.001  15.311 -0.3002  0.1849 -0.2166
23601W        W38732  12.725   7.003   1.949 -0.1643  0.1888 -0.0902
23602W        W38733  13.621   6.038  14.944  0.0449 -0.1056  0.1429
23603W        W38734  16.461   4.974  15.777  0.1047  0.2593 -0.0421
23604W        W38735   6.382  10.211  11.023  0.2033  0.1222  0.1678
23605W        W38736   5.925  15.460  16.078 -0.0321  0.0702  0.0787
23606W        W38737  10.615  12.649   2.715 -0.0613  0.0265  0.1103
23607W        W38738  15.779   2.076   0.098 -0.0588  0.0726 -0.3184
23608W        W38739   2.023  17.180  13.042 -0.0719  0.1769 -0.1102
23609W        W38740  11.325   2.709  13.988  0.0441  0.0360 -0.1629
23610W        W38741   0.045   3.223   0.766  0.0996 -0.0204 -0.0514
23611W        W38742   1.100   4.043   2.476  0.0541 -0.3649 -0.0095
23612W        W38743  16.565  14.454  15.995  0.3167 -0.1483  0.1838
23613W        W38744   9.783   9.918   4.829 -0.1051 -0.1151  0.1248
23614W        W38745  13.097  16.250  15.753  0.1326  0.0783 -0.0580
23615W        W38746  10.867   8.533  15.423 -0.0041  0.0551 -0.1353
23616W        W38747   8.584   4.092  12.549 -0.0426  0.2295 -0.4345
23617W        W38748   8.205   9.360  13.679 -0.2736 -0.3307  0.0229
23618W        W38749  13.212   3.403   0.404  0.1700  0.0346 -0.2268
23619W        W38750   9.011  14.722  13.603  0.0776  0.0135 -0.3415
23620W        W38751   9.954   3.483  15.300  0.0781  0.2730 -0.0054
23621W        W38752  14.518   4.716   1.517  0.3020  0.1660  0.1753
23622W        W38753  16.000   9.742  12.929  0.1506 -0.1108 -0.0250
23623W        W38754  17.696  16.478   5.838  0.0917 -0.0421  0.0971
23624W        W38755   9.994   7.348  13.503 -0.5791  0.0572 -0.0898
23625W        W38756  11.784   0.906  14.063 -0.0320 -0.1957 -0.3416
23626W        W38757   5.401  10.902   4.292 -0.0501  0.0524  0.2240
23627W        W38758  16.187   4.260   0.732 -0.2670 -0.3202  0.0249
23628W        W38759  10.974   0.046   4.739  0.0160  0.2732 -0.0044
23629W        W38760  10.108  13.266   2.393  0.2703 -0.1548 -0.2804
23630W        W38761   7.487   6.664   0.697 -0.1982 -0.1950 -0.3349
23631W        W38762  14.823   6.551  11.313 -0.4774  0.1266 -0.0567
23632W        W38763   0.966   4.160  13.314  0.3869  0.0335 -0.0068
23633W        W38764   8.882   3.947   2.114  0.1484 -0.1477  0.0032
23634W        W38765  12.314   1.730   0.471  0.0435  0.1115  0.2646
23635W        W38766   8.458   6.051   1.306 -0.0248 -0.3626  0.0889
23636W        W38767  11.437   2.099   5.090  0.1839 -0.1075  0.1271
23637W        W38768   1.306  10.972   6.347 -0.0164 -0.0888  0.3569
23638W        W38769   8.017   3.249  12.650 -0.0180  0.1334 -0.0113
23639W        W38770   0.186   8.117   4.222 -0.1253  0.1613  0.0439
23640W        W38771  15.039  15.439   5.460  0.1014 -0.3659 -0.4298
23641W        W38772  12.838  11.021  14.340  0.1836  0.1690  0.1644
23642W        W38773   0.613   4.022   0.408 -0.3076 -0.0993  0.1135
23643W        W38774   9.070   8.883   0.622  0.0010  0.3906  0.0582
23644W        W38775  12.691   1.276  13.649  0.1176  0.2892 -0.3353
23645W        W38776   2.341   9.193   5.036  0.3090 -0.0306  0.2231
23646W        W38777  16.682   7.913  11.524  0.1308 -0.1870  0.2033
23647W        W38778  16.380   5.843   5.415  0.2281 -0.3186  0.2576
23648W        W38779   5.921  11.955   5.759  0.0278 -0.1565  0.0290
23649W        W38780  15.069   7.699  12.597 -0.2468 -0.0603  0.2997
23650W        W38781   1.025   5.943  14.942 -0.0333  0.2161 -0.2359
23651W        W38782  16.481  11.013  11.548  0.5048 -0.0105 -0.1413
23652W        W38783   9.682   9.106   1.297  0.2946 -0.2474 -0.2356
23653W        W38784  10.037   8.304  12.630 -0.0116  0.0962  0.0502
23654W        W38785   5.712   2.192   2.853 -0.1961 -0.0218  0.0372
23655W        W38786   0.630  14.694  15.158  0.2044 -0.0892  0.0606
23656W        W38787   1.773  13.529  12.837  0.0835  0.0063 -0.0082
23657W        W38788  16.762  17.420   0.950  0.0742 -0.2789  0.0286
23658W        W38789  10.416   7.178  11.931 -0.0075 -0.1098 -0.4221
23659W        W38790  14.572  10.457  16.229 -0.1691 -0.2574  0.0425
23660W        W38791   1.110   9.365   2.411 -0.0321  0.1568  0.1479
23661W        W38792  14.861   7.193  10.718 -0.0838 -0.2338  0.0004
23662W        W38793   1.581   7.014  11.159  0.1790  0.0254  0.1077
23663W        W38794  10.142   3.459  15.774 -0.0087  0.0565  0.4018
23664W        W38795  14.003  12.738   2.715 -0.0615  0.0331 -0.2832
23665W        W38796   0.332  16.798  11.784  0.0675  0.1006  0.1601
23666W        W38797   0.915   4.955   3.681 -0.2872  0.1668 -0.0555
23667W        W38798   4.146   6.265   4.683 -0.2778  0.0695  0.1054
23668W        W38799  13.887  10.546  12.804  0.0134 -0.0574  0.0786
23669W        W38800   2.115  13.377   2.356  0.0488  0.0907  0.0163
23670W        W38801   9.509   9.422  12.265  0.2825  0.2004  0.0315
23671W        W38802  17.686  15.031  15.631 -0.0599  0.2153 -0.0393
23672W        W38803   1.467  14.607  12.112 -0.0288 -0.0462  0.2433
23673W        W38804  10.410  16.802  12.502  0.0718 -0.4011 -0.2256
23674W        W38805   6.407  15.940   3.621  0.0885  0.0491  0.2526
23675W        W38806   7.076  16.495   5.265 -0.0149 -0.0866 -0.3696
23676W        W38807   2.827   8.497  12.176 -0.0506  0.0069  0.1160
23677W        W38808   4.637   8.157   2.915  0.0460 -0.0733 -0.3035
23678W        W38809   0.258   2.133  12.688  0.1038  0.1109  0.2091
23679W        W38810   6.125   2.941  10.831 -0.0139 -0.0117  0.1959
23680W        W38811   8.734  11.812   4.142 -0.1751 -0.1647 -0.1661
23681W        W38812   7.449   2.017  11.961 -0.1086  0.1200  0.2065
23682W        W38813  11.501  16.534  13.524  0.0669 -0.0435  0.1379
23683W        W38814   0.260   5.168  15.834  0.2305  0.2340 -0.1480
23684W        W38815  11.256   8.296  12.355 -0.1310 -0.2304 -0.0657
23685W        W38816  17.335   0.932  12.678  0.1426  0.0839 -0.3451
23686W        W38817   7.122   4.553  12.434  0.0473  0.0327  0.0348
23687W        W38818   7.544   1.223  14.656  0.0687  0.0899  0.1654
23688W        W38819   7.768   7.180  16.895 -0.0023 -0.2029  0.0640
23689W        W38820  17.333  14.747  15.898  0.1121 -0.1657 -0.0886
23690W        W38821  17.594   1.842   3.446 -0.2124 -0.0392 -0.0533
23691W        W38822   7.541   5.266   5.454  0.0852 -0.0734 -0.1144
23692W        W38823   7.669   4.960  13.225 -0.1390  0.3135  0.1762
23693W        W38824  15.648  16.116   1.102  0.1312 -0.0674 -0.2779
23694W        W38825   4.527  15.336   4.003  0.2286 -0.0088 -0.2337
23695W        W38826  16.702  11.287   1.173  0.0390  0.0519  0.1038
23696W        W38827   9.946   8.611   4.635 -0.0055  0.2597  0.2558
23697W        W38828   5.278  12.154  13.128 -0.0020  0.1910  0.1077
23698W        W38829   4.839   1.409   2.772  0.1648 -0.1804  0.0925
23699W        W38830  10.286   1.336   1.784 -0.2533  0.1304  0.1025
23700W        W38831   7.108   4.954  15.210  0.1674  0.1930 -0.4141
23701W        W38832   9.371   9.143  16.808  0.2408  0.4587  0.0644
23702W        W38833   0.850  10.993   2.759 -0.2475 -0.0854 -0.2724
23703W        W38834  10.183  16.628   6.269 -0.2177 -0.0392 -0.0271
23704W        W38835   9.495   6.705   3.356 -0.0170  0.0384 -0.1208
23705W        W38836  16.597   8.896  10.847 -0.1333 -0.1915 -0.1728
23706W        W38837  10.232   1.218   0.757 -0.0173  0.0671  0.1648
23707W        W38838   9.576  12.231  14.121  0.2890 -0.0121 -0.2498
23708W        W38839  15.266   9.597   2.691  0.2903  0.0083 -0.0212
23709W        W38840   4.041  10.475  12.875 -0.0102  0.1052  0.0590
23710W        W38841  16.332  16.812   5.247 -0.1143 -0.1636 -0.2530
23711W        W38842   5.114   0.522   4.652 -0.0877 -0.0969 -0.1361
23712W        W38843   9.628  17.630  12.342  0.0082 -0.1670 -0.2011
23713W        W38844   2.791  11.908   3.936 -0.0029  0.0557 -0.0265
23714W        W38845   5.110   7.667   4.041 -0.3075  0.1914  0.2019
23715W        W38846   4.069  16.002  12.691 -0.1609 -0.1488  0.0135
23716W        W38847   8.964  13.411  13.617  0.1336  0.0524  0.0334
23717W        W38848   9.875  12.527  12.150 -0.1154  0.0557  0.0619
23718W        W38849  13.476  13.097  13.009 -0.0183  0.1333 -0.3387
23719W        W38850  12.766   8.271  15.218 -0.1355 -0.2520  0.0000
23720W        W38851   7.042  16.962  13.498 -0.0467 -0.0104  0.0815
23721W        W38852  12.084   2.330  12.959 -0.2075 -0.1062  0.2863
23722W        W38853  14.484   8.720  10.249 -0.0225 -0.0301 -0.0449
23723W        W38854   4.003  10.720   5.943 -0.2414 -0.1909  0.0094
23724W        W38855   2.630  14.742  15.588  0.1013 -0.0832 -0.2048
23725W        W38856   9.116   0.669  14.448  0.1566  0.3165  0.1267
23726W        W38857   9.896  13.028  15.097 -0.1151  0.1633 -0.0613
23727W        W38858   7.464  10.531  15.343  0.2685  0.0579 -0.1345
23728W        W38859  11.868   8.351   4.956  0.2583 -0.0294  0.0814
23729W        W38860  17.566   9.818  11.940  0.1864 -0.2603  0.1695
23730W        W38861   4.352  16.706  14.340  0.2295  0.0560  0.0334
23731W        W38862   5.493   4.047  16.184 -0.0882 -0.0443  0.1048
23732W        W38863  11.805   4.725   3.335  0.1201  0.0701 -0.0001
23733W        W38864  11.805  12.847   3.790  0.2483 -0.2258  0.1234
23734W        W38865   1.150  15.496  13.817  0.1904  0.2774  0.0909
23735W        W38866  13.004   0.063  16.005 -0.1236  0.2032  0.2906
23736W        W38867   5.121  16.290  15.394  0.0988  0.2444  0.1781
23737W        W38868  12.388   2.445   4.399  0.2629  0.2486 -0.0873
23738W        W38869  13.798   2.500  12.649  0.4842 -0.0850 -0.0251
23739W        W38870   7.544   4.096   3.570  0.3540  0.0002  0.0960
23740W        W38871   3.837   1.540  10.711 -0.2006 -0.2010 -0.0164
23741W        W38872   5.861   6.645  13.581 -0.0855  0.2427 -0.1317
23742W        W38873  12.248  14.819  15.395  0.0055  0.1108  0.0287
23743W        W38874   7.893  15.222   5.685 -0.0327  0.0264  0.0695
23744W        W38875   4.103   6.595  13.012  0.0896  0.0434  0.4150
23745W        W38876  10.464  16.670   2.264 -0.0839  0.0977  0.2702
23746W        W38877  10.780   1.972   4.415 -0.1766 -0.0818 -0.1551
23747W        W38878   4.091  14.560  12.823  0.1011 -0.1923 -0.0940
23748W        W38879  15.198  10.627  15.233 -0.2983 -0.1940 -0.1183
23749W        W38880   5.481  17.605  12.188  0.1593  0.1643  0.1098
23750W        W38881  10.660   1.638   2.632  0.0455 -0.2556  0.2003
23751W        W38882   2.056   5.806   5.096 -0.0049  0.0241  0.0945
23752W        W38883   9.112   6.765   5.280  0.0300  0.4352 -0.1978
23753W        W38884   3.445   3.289   0.477 -0.2799 -0.0164  0.0415
23754W        W38885   2.356  16.272   2.292 -0.4111 -0.2132  0.3803
23755W        W38886   1.049  11.755  12.239 -0.0957 -0.0299 -0.3896
23756W        W38887  10.290  12.185   2.101 -0.0693  0.2388  0.1533
23757W        W38888  17.703  12.389  12.506  0.3078  0.0431  0.1953
23758W        W38889   2.348   1.286   5.327  0.1677 -0.2122  0.2450
23759W        W38890  16.138   7.011  11.643  0.1272 -0.0989  0.1689
23760W        W38891   1.657   6.705  13.735  0.5015  0.3863  0.3789
23761W        W38892   1.785  13.871  14.213 -0.1348 -0.0488  0.0971
23762W        W38893  11.709  17.436  11.668 -0.1983 -0.1613  0.2340
23763W        W38894   3.653  13.647   4.657 -0.1277  0.0412 -0.0318
23764W        W38895   2.157  13.713   3.882 -0.1266  0.0372 -0.1424
23765W        W38896  11.649  11.697  15.406 -0.2022 -0.0202 -0.0345
23766W        W38897  14.936   8.919   2.386 -0.3116 -0.2518  0.1804
23767W        W38898  14.241   6.926   5.914  0.1656 -0.0507 -0.1056
23768W        W38899  10.574  13.942  13.344  0.0654  0.0234 -0.0048
23769W        W38900   8.262  10.607   4.251  0.4753 -0.0743 -0.3376
23770W        W38901  15.687  15.897  14.844  0.2073 -0.4457  0.2788
23771W        W38902  11.192   2.283   4.090  0.1161  0.1192  0.0521
23772W        W38903  17.497  10.817   4.397  0.1217 -0.2210 -0.0788
23773W        W38904  17.136   4.509   1.627 -0.0237  0.2480  0.2570
23774W        W38905   7.257  10.786   5.790 -0.2597  0.0940 -0.1604
23775W        W38906  12.106  14.557   0.154 -0.2980  0.0856 -0.4993
23776W        W38907  10.224   8.665   3.613  0.2683  0.0449  0.0124
23777W        W38908  15.863  12.242   0.264  0.3574  0.1490  0.1896
23778W        W38909  10.292  11.692   1.320 -0.1090 -0.2397  0.4326
23779W        W38910   4.938   6.378   2.243 -0.0086 -0.0725 -0.0957
23780W        W38911   8.035  14.241  16.171 -0.0635 -0.0954  0.1051
23781W        W38912  17.226   4.097   0.223 -0.0255 -0.1816 -0.3336
23782W        W38913  13.027  15.323  13.589 -0.1746  0.0680 -0.2864
23783W        W38914   8.088  12.452   2.858  0.2482  0.1766 -0.0766
23784W        W38915  11.521  10.079   3.781 -0.0893  0.0864  0.0023
23785W        W38916  11.993   9.982  13.877 -0.1353 -0.1197  0.0612
23786W        W38917   4.532   4.700   1.737  0.2314 -0.2149  0.1180
23787W        W38918  17.425   9.930   2.752 -0.2915 -0.2735 -0.3542
23788W        W38919   9.241   4.505   5.171  0.2471  0.1469  0.0962
23789W        W38920  12.209  16.147   4.424  0.2533  0.1317  0.0448
23790W        W38921  12.468   6.186  11.949  0.2680  0.0743  0.2729
23791W        W38922  13.633   2.580  12.191  0.2069 -0.1520  0.1325
23792W        W38923   6.848   3.514   2.458 -0.3696 -0.3187  0.1493
23793W        W38924   2.884  17.410   5.050 -0.2104 -0.1582 -0.1051
23794W        W38925   2.931  12.201   5.201  0.2938 -0.2946  0.2371
23795W        W38926   3.956   0.188   2.665  0.0555 -0.3646 -0.2258
23796W        W38927  10.505   5.119   2.435 -0.2285 -0.0474 -0.0385
23797W        W38928  14.052  15.980  12.898  0.2097 -0.0882 -0.0547
23798W        W38929   7.325  12.654   5.059 -0.1321 -0.0021 -0.0887
23799W        W38930   1.728   8.663   1.708  0.1514 -0.4038  0.0632
23800W        W38931  15.591  10.323  15.064  0.2544  0.2058  0.2289
23801W        W38932  15.837   9.298   0.671 -0.2639 -0.0212 -0.1698
23802W        W38933   0.747   6.103   5.353 -0.1546  0.0554 -0.0457
23803W        W38934   4.581  10.769   4.618  0.1410 -0.0260 -0.1758
23804W        W38935   3.620   1.937  13.264 -0.0370  0.0222 -0.2024
23805W        W38936   5.318   3.653  15.383 -0.3248  0.0759  0.1527
23806W        W38937   9.237  11.538   6.145  0.0853 -0.0417 -0.3373
23807W        W38938   9.980  17.576   0.013 -0.2817  0.1765 -0.0614
23808W        W38939   4.488  14.736   4.494 -0.0292  0.3445 -0.1808
23809W        W38940   5.044  17.434   2.082 -0.2741 -0.4602 -0.0061
23810W        W38941   4.998  17.040   0.223 -0.1804 -0.1333  0.0627
23811W        W38942   8.784   8.940   3.886  0.0553 -0.0577 -0.2502
23812W        W38943   5.811   1.399  13.559 -0.0446  0.2803  0.1760
23813W        W38944   9.755   8.992  12.039 -0.0889 -0.4041  0.1688
23814W        W38945   2.749   9.530  15.485  0.0981 -0.0231 -0.1717
23815W        W38946   4.545  10.918   4.009  0.0400  0.2725 -0.1125
23816W        W38947   5.231   6.379  16.663 -0.3288 -0.2080  0.0048
23817W        W38948   0.845   7.637   2.017 -0.0376 -0.2260  0.1992
23818W        W38949   5.566  12.882   6.031  0.0230  0.0956  0.1725
23819W        W38950  11.070   1.767   2.278  0.2002  0.1873 -0.1919
23820W        W38951   8.347  17.517   2.797  0.1995 -0.0712 -0.1662
23821W        W38952  14.969   2.001   0.173  0.4013  0.2567  0.0084
23822W        W38953   1.794   4.677   0.005  0.0918 -0.1268  0.1275
23823W        W38954  13.056  15.723   0.002 -0.0596  0.2021  0.0416
23824W        W38955   0.926  11.928   2.385  0.1643 -0.2191  0.1360
23825W        W38956  12.249  16.994  14.675 -0.0003 -0.1511 -0.0038
23826W        W38957   7.911   9.210  15.655  0.3341  0.2696  0.0827
23827W        W38958   7.829  14.086   1.689  0.1633  0.0328  0.0265
23828W        W38959  17.443   9.667  14.106  0.3170  0.1155  0.3515
23829W        W38960   2.529   1.428  12.724 -0.1472  0.3002  0.3381
23830W        W38961  10.778   6.232  14.034 -0.2564 -0.1679  0.1859
23831W        W38962  16.604   9.609  14.112  0.0413  0.1399 -0.2898
23832W        W38963  11.220   5.206  11.777 -0.3182 -0.1743 -0.0890
23833W        W38964   7.909  11.915  13.408 -0.0001  0.2507 -0.0315
23834W        W38965   1.456   9.451   4.387 -0.0965  0.1376  0.0145
23835W        W38966  13.664   9.529  15.284  0.0987  0.0273  0.0975
23836W        W38967  17.542   6.866  14.371 -0.1065 -0.2087 -0.1453
23837W        W38968   4.123   4.742  11.586  0.4589 -0.1081  0.1125
23838W        W38969   1.104   0.173  12.336 -0.1880 -0.1127 -0.4869
23839W        W38970  14.653  12.706  13.930 -0.0899 -0.0650  0.0499
23840W        W38971   3.113  17.184  16.008  0.0197 -0.3304 -0.0323
23841W        W38972   6.677  13.257   3.614  0.1306  0.1503 -0.0399
23842W        W38973  12.143  17.677   5.919  0.1324 -0.2864  0.1149
23843W        W38974   2.738   1.575  15.974 -0.1742 -0.0688 -0.1910
23844W        W38975   4.998   2.952  16.539  0.0144  0.0366 -0.1865
23845W        W38976  15.902  11.431  16.064  0.3473  0.0448 -0.0488
23846W        W38977   4.557  13.724  16.911 -0.0258 -0.2684 -0.3874
23847W        W38978   6.675   3.377  13.983  0.0906 -0.4534  0.0986
23848W        W38979   5.214  12.710   5.231  0.1229 -0.1583  0.0177
23849W        W38980  17.029   5.390  11.422  0.1208  0.0392  0.0451
23850W        W38981   4.110  15.219  14.140 -0.0955  0.3419  0.1333
23851W        W38982  16.491   2.648   0.491  0.2888 -0.0820  0.4464
23852W        W38983   6.515  14.927  11.358  0.1430 -0.0727  0.2809
23853W        W38984   8.279  15.644   2.022  0.0537 -0.2097 -0.3850
23854W        W38985   8.968  15.276  14.443 -0.0647  0.2110  0.0047
23855W        W38986   9.584   2.226   4.508  0.2931  0.0000 -0.2121
23856W        W38987  16.343  11.301  15.724  0.1529  0.1018 -0.0679
23857W        W38988  11.393   0.548   4.690 -0.1340 -0.3510  0.3394
23858W        W38989  10.878   0.861  12.451  0.0040 -0.1135 -0.1793
23859W        W38990   2.549   4.363  13.904  0.2528 -0.1305 -0.1024
23860W        W38991  16.809   7.974   0.547 -0.2959  0.1306 -0.0321
23861W        W38992  16.796   8.845   2.254  0.1771  0.1741  0.1222
23862W        W38993  10.896   4.368  13.914  0.2047  0.1494 -0.0903
23863W        W38994   9.683   0.389   5.843 -0.0886  0.0247  0.2078
23864W        W38995   0.073  13.200   5.809 -0.3040 -0.1019  0.1542
23865W        W38996   2.891  15.959  14.349 -0.1302  0.2142  0.0822
23866W        W38997  12.507   7.470  12.759 -0.0745  0.1349 -0.3155
23867W        W38998   1.000   0.702  16.566 -0.1800  0.0658 -0.2869
23868W        W38999   9.589   7.730  13.424 -0.1649  0.1895  0.0929
23869W        W39000  11.999  10.726   4.958 -0.1719 -0.0533 -0.0068
23870W        W39001   5.943   8.410  14.267 -0.1660  0.0705 -0.0214
23871W        W39002   4.384   9.585   4.850 -0.0742  0.0866 -0.2664
23872W        W39003   6.313   2.989   5.888 -0.1703 -0.2301  0.0054
23873W        W39004   5.870   8.631  15.215 -0.1596  0.1076  0.1031
23874W        W39005   2.449   7.717  10.252 -0.2854  0.1886  0.1415
23875W        W39006  17.570   3.250   3.214 -0.0499  0.0632  0.0013
23876W        W39007   0.773  10.913  14.628  0.1595  0.1889  0.0287
23877W        W39008  11.279  15.475  12.144 -0.6365  0.0096 -0.0510
23878W        W39009   1.905   1.091  13.825  0.2487  0.1380 -0.0733
23879W        W39010   8.154   8.287  12.137 -0.0242 -0.3276 -0.0548
23880W        W39011   2.932  15.239   5.671  0.1944  0.0479 -0.2012
23881W        W39012   0.666   9.152  14.931 -0.0787 -0.2606 -0.0627
23882W        W39013   2.123   5.881  13.020 -0.0653  0.0798  0.0191
23883W        W39014   7.482  10.964   1.409 -0.1216 -0.0778  0.1541
23884W        W39015   6.041   6.598  12.280  0.0069  0.2677  0.1928
23885W        W39016   7.116   9.152   1.953 -0.2389 -0.0182  0.1951
23886W        W39017   1.823   9.410   1.709 -0.1786 -0.0421 -0.1331
23887W        W39018  10.266  16.687   5.240  0.3514 -0.0698 -0.1055
23888W        W39019   1.228   9.768   4.652 -0.2320  0.0433  0.1248
23889W        W39020   6.905   9.967  15.068  0.0982  0.1033  0.0602
23890W        W39021  16.101   0.920  14.644  0.0102  0.1856 -0.3301
23891W        W39022   4.349   7.655  14.811 -0.1660 -0.1390  0.1452
23892W        W39023   3.229   3.073  12.558  0.1349  0.1029  0.2005
23893W        W39024   9.712  15.366  15.660 -0.0208  0.2551 -0.2549
23894W        W39025  16.417   4.935   9.847  0.0541  0.4965  0.0221
23895W        W39026   3.986   9.411  13.223  0.0473  0.0324 -0.3149
23896W        W39027   9.289  16.267   5.729 -0.3428  0.0717  0.0702
23897W        W39028   5.301   8.430   0.740  0.2036 -0.2978 -0.0056
23898W        W39029   3.588  12.005   5.620  0.1392  0.0978 -0.0508
23899W        W39030   5.844  15.032  15.677 -0.0572 -0.3296 -0.1884
23900W        W39031   4.207  13.765   5.888  0.0526 -0.0926  0.0149
23901W        W39032   6.379   0.051  10.804  0.1110 -0.0480 -0.1476
23902W        W39033  17.028  14.582  14.582 -0.0520  0.2655 -0.0636
23903W        W39034  14.318   0.701   3.702 -0.0944 -0.0385  0.1459
23904W        W39035  16.420   1.300  12.532 -0.0962  0.1459 -0.2000
23905W        W39036  10.320  15.650  14.807  0.0775 -0.0830  0.0287
23906W        W39037   9.456  17.090   4.950  0.0754  0.2439 -0.1056
23907W        W39038   6.293  12.403   3.725 -0.0826  0.0507 -0.0055
23908W        W39039  11.297   0.967   3.794  0.5810  0.0806  0.2445
23909W        W39040   3.715   7.956  14.197 -0.1409  0.1610  0.3532
23910W        W39041  16.550   1.486   2.274 -0.1511  0.1757 -0.1862
23911W        W39042  11.764  14.684   0.663  0.0504 -0.0906 -0.0831
23912W        W39043   3.362   8.643  14.367  0.1562  0.0704  0.2559
23913W        W39044   6.584   1.800  12.239  0.0297  0.3317  0.1901
23914W        W39045   7.793   4.045  14.334  0.1101 -0.1544 -0.1932
23915W        W39046   2.284  15.196  13.884 -0.0230  0.1089  0.0719
23916W        W39047  16.610   2.218  16.745  0.0839  0.3472  0.1760
23917W        W39048  12.082   0.931   2.181  0.0490  0.0973 -0.3467
23918W        W39049  17.142   1.159   6.023  0.1333 -0.1388 -0.0410
23919W        W39050   5.307   4.759  14.475  0.0628 -0.1017  0.0899
23920W        W39051   1.934   7.741  15.481  0.1054  0.1586  0.1587
23921W        W39052   5.625   9.029   4.299 -0.0964  0.0572  0.1474
23922W        W39053   1.558  17.419   0.989  0.0229 -0.0251 -0.2495
23923W        W39054   6.907   3.337   3.349 -0.1221 -0.0785  0.1388
23924W        W39055  10.745   0.042  16.539 -0.1231 -0.0243  0.1917
23925W        W39056  16.813   4.645  12.305 -0.2364  0.1586  0.2300
23926W        W39057   7.379  16.864  15.998  0.2477 -0.3626 -0.0387
23927W        W39058  11.662   7.904   3.437 -0.0479 -0.0654 -0.3921
23928W        W39059   1.681  13.954   0.846  0.0123 -0.0144 -0.0759
23929W        W39060   5.728   1.970  15.656 -0.0213 -0.0304 -0.0043
23930W        W39061   1.198   8.138   5.156 -0.2240 -0.2719  0.1155
23931W        W39062   6.877  10.724  16.783 -0.1693 -0.1938  0.1975
23932W        W39063  11.677   8.141  14.014 -0.2234  0.2918  0.0572
23933W        W39064   7.547  17.580   5.787  0.2286 -0.1573 -0.0447
23934W        W39065   8.450  16.204   5.263  0.0558  0.0653 -0.1612
23935W        W39066   1.930   0.231   2.211 -0.2223  0.1812 -0.1522
23936W        W39067   3.656   6.806  14.979  0.1285  0.2649 -0.1507
23937W        W39068  16.345   3.635   3.630 -0.3336 -0.2136 -0.1229
23938W        W39069   8.739  14.547   3.235  0.1618 -0.2271 -0.3427
23939W        W39070  15.282  13.536   3.869  0.2927 -0.0208  0.0384
23940W        W39071   7.719   9.351   2.974 -0.0171  0.1747  0.0834
23941W        W39072  10.396   8.761  16.074  0.2209 -0.0229 -0.2111
23942W        W39073   7.121  12.335   0.595 -0.1936  0.0624  0.0210
23943W        W39074  12.880  10.183  16.421 -0.0297  0.1461 -0.0559
23944W        W39075  16.640   8.736   3.161  0.2465 -0.2591 -0.0096
23945W        W39076   5.880   3.251  13.459  0.0223 -0.0646 -0.3225
23946W        W39077   2.639  12.391  13.738  0.1133  0.0490 -0.0614
23947W        W39078   0.092  10.233   1.602 -0.0334 -0.1700 -0.0213
23948W        W39079  12.178   7.731   1.761  0.2763 -0.0834  0.0843
23949W        W39080  10.621  16.555   3.537 -0.0001 -0.1463  0.2019
23950W        W39081  15.543  16.380   3.061  0.2383  0.0793 -0.1220
23951W        W39082   2.908  14.006   2.027 -0.2279 -0.2043 -0.0844
23952W        W39083  10.416   1.436   4.548  0.2660  0.0303 -0.1700
23953W        W39084   7.734   6.415  14.510 -0.0580 -0.0042 -0.1212
23954W        W39085   8.175   2.567   3.350  0.0517 -0.2769 -0.0811
23955W        W39086   5.384  17.227   1.217  0.0959  0.1434  0.1370
23956W        W39087  11.740   2.651   0.697 -0.0927  0.0492 -0.0097
23957W        W39088  13.541  11.916   2.821  0.0245  0.0362  0.4254
23958W        W39089  10.932   5.974  15.903  0.1477 -0.1898 -0.0770
23959W        W39090   7.361   8.684   4.170  0.1457  0.2043 -0.0582
23960W        W39091  12.382   3.095   2.204  0.0406 -0.0969 -0.2659
23961W        W39092   3.830   1.363   3.101 -0.2076  0.1507 -0.3458
23962W        W39093   3.452  15.938   5.205 -0.4180 -0.1445  0.0532
23963W        W39094  14.565   0.344  13.515 -0.1086 -0.2689 -0.2146
23964W        W39095  17.369   5.468  12.591  0.2013  0.2077 -0.3062
23965W        W39096   7.691   4.662   2.236  0.1042 -0.2110  0.0107
23966W        W39097   8.654   6.342   6.124 -0.0413 -0.1659 -0.3365
23967W        W39098   5.364   9.915  13.109  0.0171 -0.0929 -0.3006
23968W        W39099   0.620  10.465  16.347  0.0301  0.0040  0.0976
23969W        W39100  10.595   0.796   6.216 -0.2430 -0.0208 -0.0295
23970W        W39101  12.899   4.912  11.040 -0.2177 -0.3882 -0.2062
23971W        W39102  14.203  12.183   4.683  0.0844  0.0482 -0.3797
23972W        W39103   7.564   9.195  13.185 -0.0584 -0.3242  0.2305
23973W        W39104   9.960  15.421   6.220 -0.2790  0.0857  0.1437
23974W        W39105  17.412  17.557  11.780 -0.2784 -0.3322 -0.0504
23975W        W39106   4.960   0.506  14.962 -0.3017  0.1672 -0.0066
23976W        W39107  11.501   8.370  15.249 -0.1404 -0.0025 -0.0359
23977W        W39108   2.150   8.499  13.655  0.0660 -0.1385  0.0961
23978W        W39109   5.537   2.739  13.798  0.3606 -0.2555  0.2147
23979W        W39110  10.974   0.698   4.962 -0.0907 -0.0007 -0.0828
23980W        W39111  14.375   0.152  13.092  0.2885 -0.1369  0.0985
23981W        W39112  17.201   4.908  11.492 -0.1135 -0.1328 -0.0532
23982W        W39113  10.172   7.463   0.270  0.0808  0.0699  0.3629
23983W        W39114   5.106  11.016  13.768 -0.2256 -0.1603 -0.0440
23984W        W39115   3.536  11.808  12.452 -0.0435  0.3058 -0.0497
23985W        W39116   6.120   8.170  15.422 -0.1511  0.0286  0.0776
23986W        W39117   2.582   5.029  13.343  0.1123  0.0071 -0.0472
23987W        W39118  14.445  14.327   4.511 -0.0821  0.0974  0.0650
23988W        W39119  17.193   0.715   4.170  0.1087  0.0179 -0.1238
23989W        W39120  13.614   2.897   2.687 -0.1938  0.0017 -0.0840
23990W        W39121  10.924   9.887  13.807 -0.2325 -0.0118 -0.1342
23991W        W39122  13.826   3.883   3.907 -0.0295 -0.0598  0.0178
23992W        W39123   3.195  12.589   1.245 -0.0849 -0.0242  0.0545
23993W        W39124  11.210  10.671  16.297  0.0352  0.0137  0.0208
23994W        W39125   9.726   5.089  10.301  0.3627  0.0588 -0.1574
23995W        W39126   0.340  10.814  16.521  0.1002 -0.1544  0.1250
23996W        W39127   5.226   0.446  15.850  0.3307 -0.1243 -0.1386
23997W        W39128  16.961  13.507  15.789 -0.0387  0.0168  0.3147
23998W        W39129   0.206   2.541   5.782  0.2502  0.0822  0.1483
23999W        W39130   4.654   2.237   3.051  0.1206  0.1040 -0.2153
24000W        W39131  10.667  14.876   5.891 -0.1567  0.4058  0.0102
24001W        W39132   3.788  17.492  15.335  0.1281 -0.1751 -0.0978
24002W        W39133   4.052  12.806  12.132  0.0292 -0.0328  0.0364
24003W        W39134  12.339  11.979  13.497  0.1707  0.2250 -0.3314
24004W        W39135   9.696  13.556   0.846  0.0484  0.1492 -0.1705
24005W        W39136  11.931  16.050   5.252  0.1016 -0.1892  0.1696
24006W        W39137   3.053  14.955   4.725 -0.0740 -0.0300 -0.1000
24007W        W39138  15.433   6.350   5.507 -0.1321 -0.1799  0.1478
24008W        W39139  16.284  10.117  15.930  0.0137 -0.1978 -0.2656
24009W        W39140  17.550   1.280  11.898  0.0164  0.0851 -0.2047
24010W        W39141   3.362   5.951  13.643  0.0977 -0.3769  0.0280
24011W        W39142  13.686   7.606   4.558  0.1849  0.0984  0.2763
24012W        W39143  12.727  12.216   3.160 -0.1486  0.0555  0.1289
24013W        W39144  17.662  11.676   2.501 -0.2113  0.0350  0.1803
24014W        W39145   1.812  16.529   2.630 -0.1680  0.1909 -0.1441
24015W        W39146   8.799  17.184   0.496 -0.2023 -0.1889 -0.5404
24016W        W39147   7.692  15.951  13.886 -0.2624  0.3827  0.0987
24017W        W39148   6.380   3.563  12.341  0.0391  0.1166 -0.0043
24018W        W39149  11.158   9.866  11.451  0.0359 -0.3690 -0.0686
24019W        W39150  15.437  15.933   3.787  0.2643  0.2198 -0.2412
24020W        W39151   0.053  13.931  16.577  0.0403  0.1228 -0.1921
24021W        W39152  10.844   0.166  13.538  0.1695  0.1133 -0.0900
24022W        W39153   3.605  14.444  14.369 -0.2964 -0.1382  0.1806
24023W        W39154  12.779   3.675  13.520  0.3424  0.1676  0.0326
24024W        W39155   2.995  12.488  15.417  0.1065  0.1919  0.2231
24025W        W39156  16.790   8.112   4.700 -0.2860  0.2393 -0.0917
24026W        W39157  10.876   4.633   3.079  0.1474  0.3315  0.0756
24027W        W39158  16.385   1.324   0.841 -0.2298  0.1346 -0.1661
24028W        W39159   3.059  11.614  12.761  0.1463 -0.1208 -0.0251
24029W        W39160   9.138   8.242  12.566  0.0271 -0.0671  0.1013
24030W        W39161   2.073   6.009   1.794 -0.0138 -0.3036  0.1084
24031W        W39162   0.172   8.650   0.177 -0.0166 -0.0652  0.1158
24032W        W39163   7.077  16.063   0.845 -0.2211 -0.2292  0.0015
24033W        W39164  14.024  11.713  14.873  0.1898  0.1506 -0.0070
24034W        W39165   1.116  15.165   0.515 -0.1286 -0.1302 -0.0090
24035W        W39166   8.249  13.972  16.506 -0.0139 -0.2387  0.0772
24036W        W39167  16.932   1.640  12.520  0.0346 -0.1934  0.1239
24037W        W39168  16.935  16.500  15.880  0.2179  0.0768 -0.1498
24038W        W39169  15.459  15.389   5.972  0.2373 -0.0895 -0.1700
24039W        W39170   0.412  16.329  15.856  0.3051  0.0493 -0.0488
24040W        W39171  14.626   7.158  15.172  0.1163  0.1363 -0.1910
24041W        W39172  15.089  17.113   0.440  0.1570  0.5492  0.0950
24042W        W39173   3.750   2.685  14.520  0.1186 -0.1112  0.3061
24043W        W39174   9.503  13.406   4.171 -0.0748  0.1373 -0.0848
24044W        W39175   5.607  12.770   2.223 -0.0919 -0.1835  0.1632
24045W        W39176  16.799   2.230   1.280 -0.0412 -0.1354  0.2353
24046W        W39177  16.920  14.086  13.406  0.2257 -0.0720  0.1634
24047W        W39178   5.129   8.930   0.804 -0.0674 -0.2160  0.1153
24048W        W39179   7.521   7.547   3.246 -0.0974  0.1127  0.0408
24049W        W39180   6.653   0.682  16.899 -0.3771  0.1023 -0.0373
24050W        W39181  10.595   5.945   1.312 -0.0981 -0.1042  0.1091
24051W        W39182   0.302   7.838   3.812 -0.0074 -0.2277  0.0688
24052W        W39183   2.329  11.152  16.269  0.0756  0.0426  0.0453
24053W        W39184   9.287   9.705   3.484 -0.1608 -0.0178 -0.2961
24054W        W39185  11.611  12.664  14.975  0.0882  0.0754 -0.1233
24055W        W39186  15.951   6.077   3.237  0.0175 -0.1210  0.1901
24056W        W39187   8.047   7.322  13.912 -0.4594  0.0988  0.0156
24057W        W39188   4.157   8.665  11.607  0.1494 -0.0829  0.1926
24058W        W39189   2.296  16.194   4.476  0.0311 -0.1332 -0.0769
24059W        W39190  15.246   4.519   2.074  0.1157  0.1294 -0.0719
24060W        W39191   0.775  13.774   0.679  0.3127 -0.4209 -0.1407
24061W        W39192   0.960  15.042  15.166 -0.3873  0.4300 -0.1981
24062W        W39193  13.635   1.939  11.603  0.0178 -0.1657  0.1559
24063W        W39194  13.358  14.328   1.431  0.2817 -0.3243  0.3728
24064W        W39195   7.740   1.420  13.521 -0.1408  0.1643  0.0748
24065W        W39196   1.811   7.771   2.374 -0.1686  0.2747 -0.0603
24066W        W39197  15.650   4.897  15.436  0.1839  0.3366 -0.0945
24067W        W39198  11.397   3.474  13.242  0.1604  0.1868  0.0058
24068W        W39199  16.284   1.346   5.992  0.0875 -0.1250  0.1616
24069W        W39200   1.044  10.553   4.808  0.1354 -0.2089  0.2915
24070W        W39201   4.538  17.338  11.795  0.1687  0.0516 -0.1154
24071W        W39202   7.529   7.087  14.550  0.1435  0.0321  0.0774
24072W        W39203   1.555   4.935   2.236  0.2897  0.1107 -0.0963
24073W        W39204  10.693  16.526  15.912 -0.0132 -0.0653  0.1059
24074W        W39205   2.625   4.077  11.910 -0.0746  0.0225 -0.2571
24075W        W39206  17.487  14.362  16.461  0.0690  0.2167  0.0595
24076W        W39207  16.323  10.278  13.534  0.1316  0.1498 -0.1211
24077W        W39208   3.693   8.818   5.410  0.1853  0.0354  0.0134
24078W        W39209   3.183  16.026   5.632 -0.1451  0.4240 -0.0934
24079W        W39210  17.237   9.770  11.506 -0.0591  0.1198 -0.0881
24080W        W39211   4.062   4.349  16.167 -0.0967 -0.0978 -0.1829
24081W        W39212   1.001  12.406   3.857  0.0597  0.2323  0.2963
24082W        W39213  15.104  15.095   5.872 -0.0099 -0.0119 -0.0404
24083W        W39214  12.420   2.245  11.190  0.1556 -0.2195 -0.2273
24084W        W39215   2.316  13.778  12.790 -0.0507  0.0681  0.0069
24085W        W39216   5.680  13.522  14.939  0.1498  0.0924 -0.1913
24086W        W39217   6.425  11.022   1.193 -0.3965  0.0939  0.2716
24087W        W39218   3.157   7.534  10.984  0.0560 -0.1615 -0.0589
24088W        W39219   6.214  14.022   3.503 -0.2110  0.4764 -0.0571
24089W        W39220  16.828   6.018  13.129 -0.0757 -0.3629  0.0276
24090W        W39221   4.679   5.401   0.930  0.0048  0.1460 -0.1654
24091W        W39222  12.210  15.824  11.377 -0.0025 -0.0979 -0.0288
24092W        W39223  11.796   4.565   2.793 -0.0307 -0.1219 -0.0675
24093W        W39224  11.595   7.801   2.067  0.1034 -0.1304 -0.1117
24094W        W39225  12.915  16.151   2.438  0.0121  0.1035  0.3968
24095W        W39226  13.970   1.769   3.645 -0.4211  0.1248  0.2572
24096W        W39227   8.830  13.903   4.503 -0.0866 -0.1170  0.1360
24097W        W39228  15.003   2.622  15.147 -0.0939 -0.0553 -0.1486
24098W        W39229  16.346  17.097   1.670 -0.2260 -0.2611  0.0194
24099W        W39230   6.837  10.438  11.816 -0.0768  0.0540  0.0370
24100W        W39231  16.398  16.447  15.162  0.2507 -0.1561 -0.1801
24101W        W39232   1.336   7.299  16.271 -0.0556  0.3560  0.2929
24102W        W39233   4.094  10.928  14.971  0.1050 -0.0688 -0.0042
24103W        W39234   1.813  10.604  14.207 -0.0301 -0.3204 -0.3546
24104W        W39235  14.116  15.971  15.852  0.0358  0.1812 -0.1202
24105W        W39236   6.950  15.906  13.130  0.1418  0.2525 -0.2407
24106W        W39237   1.895   6.190  15.021 -0.2875  0.1491 -0.0295
24107W        W39238   0.010  11.265  14.949  0.1694 -0.0767 -0.1090
24108W        W39239   0.740   9.790   4.656  0.1646 -0.0585 -0.0252
24109W        W39240   7.528  12.737  14.452  0.1489  0.0201  0.1490
24110W        W39241  17.250   6.911  11.036 -0.0842 -0.0299 -0.1695
24111W        W39242   2.544   2.515   0.710 -0.2825  0.2672 -0.1661
24112W        W39243   4.008  13.829  16.055 -0.0216 -0.2221  0.1132
24113W        W39244  13.895   7.078   5.565 -0.1752 -0.1074  0.0198
24114W        W39245   2.225   2.743  13.076  0.1365 -0.0701  0.0035
24115W        W39246  12.993  15.465   3.713 -0.2807  0.0632  0.0594
24116W        W39247  15.836  15.776   5.044 -0.0829  0.1160  0.0790
24117W        W39248  10.932  13.855  13.823  0.0534 -0.0957 -0.1163
24118W        W39249   6.112   0.611   5.239  0.3846 -0.0923 -0.1264
24119W        W39250   2.744   0.277  14.997 -0.0678  0.0249 -0.2219
24120W        W39251   2.191   8.499   3.621  0.0908  0.0346 -0.2718
24121W        W39252   9.259  12.814   3.424 -0.3234  0.0979  0.1679
24122W        W39253  13.357  14.801   2.273  0.0190 -0.1512  0.1976
24123W        W39254  11.788   7.775  16.487 -0.0576  0.0856  0.0140
24124W        W39255  10.295  15.662   0.622  0.2109  0.2576  0.2484
24125W        W39256  12.820   4.175   1.037 -0.0895 -0.0751 -0.1058
24126W        W39257  14.313   5.038  15.163 -0.1076 -0.2117 -0.0248
24127W        W39258   9.577  10.005  13.028  0.1255  0.0379  0.0127
24128W        W39259   3.134   8.859   1.789  0.1052  0.1709  0.4082
24129W        W39260  14.046   3.788   6.058 -0.2450 -0.0193 -0.0806
24130W        W39261   0.550  13.500  15.967  0.0392  0.1151  0.1225
24131W        W39262   2.138   4.998   5.982  0.1238  0.2466  0.0471
24132W        W39263   7.139  16.546  12.390  0.2691  0.0512  0.0283
24133W        W39264   3.448  15.966  16.449 -0.1344 -0.0424  0.0454
24134W        W39265  13.593   1.335   3.606  0.0510  0.0265  0.0425
24135W        W39266  13.355   6.364   4.572  0.3288 -0.1561 -0.0414
24136W        W39267  10.658   7.285   3.672  0.0090  0.2152  0.4596
24137W        W39268  11.218   6.353  16.008 -0.0922 -0.1332 -0.1513
24138W        W39269  13.588  14.219  15.768 -0.1206  0.2768 -0.1079
24139W        W39270   4.034   5.201   4.644 -0.0683  0.1655 -0.0623
24140W        W39271   3.644   2.116  16.029 -0.1391  0.1407  0.0046
24141W        W39272   7.633  11.434  12.599  0.2195  0.0764 -0.0817
24142W        W39273   0.854   6.832  16.113  0.0396 -0.0301 -0.1248
24143W        W39274   2.205   1.706   0.405  0.1864 -0.3068 -0.0909
24144W        W39275  16.125  16.851   2.558 -0.0028 -0.0269 -0.1434
24145W        W39276   5.983  14.448  13.874  0.4189  0.0901  0.0093
24146W        W39277  11.012  14.969  15.056 -0.0970  0.2635  0.1502
24147W        W39278   9.189   0.026  11.565  0.0205  0.1231 -0.0886
24148W        W39279  16.683   5.600   2.149  0.0816  0.1673  0.3374
24149W        W39280   4.408  10.314  16.162  0.2807 -0.1271  0.0366
24150W        W39281  15.828   7.030  16.846 -0.0303  0.1754 -0.0462
24151W        W39282   1.468  12.394   4.068 -0.0278  0.4260  0.2742
24152W        W39283   5.978   9.255  13.082 -0.0985 -0.0780 -0.1146
24153W        W39284   3.603  11.909   2.694  0.1105  0.0632  0.0719
24154W        W39285   4.392  16.379  13.990 -0.2234  0.3367  0.2615
24155W        W39286   4.646   1.533  12.172  0.0510 -0.0185 -0.1759
24156W        W39287   6.409   7.820  15.290 -0.0063 -0.0371  0.0540
24157W        W39288   8.271  17.356   1.866 -0.2922  0.0257 -0.1361
24158W        W39289   7.133  12.565  13.228  0.1444  0.0935 -0.1827
24159W        W39290   2.044   7.170  16.852  0.1010 -0.1489  0.3788
24160W        W39291  12.493  10.008  15.017  0.0160 -0.0475  0.2247
24161W        W39292  17.402   6.926  16.087 -0.2854  0.2210  0.2068
24162W        W39293   0.173   8.342  13.687 -0.2702 -0.0742  0.1297
24163W        W39294   3.833   8.089  13.723 -0.1906  0.1412 -0.3063
24164W        W39295   4.607   0.847   2.914  0.3838 -0.1080 -0.1885
24165W        W39296  14.390  10.110  16.545  0.1259  0.0053 -0.1633
24166W        W39297   5.357   8.868   2.946  0.1629 -0.1596  0.1716
24167W        W39298   5.477   2.488   5.319  0.0488  0.3139  0.1355
24168W        W39299  14.731  11.718  13.868  0.1144 -0.2710 -0.1963
24169W        W39300  17.257  13.727   4.261 -0.0115 -0.4081  0.3580
24170W        W39301   6.771   6.615  15.711 -0.0860  0.2175 -0.0312
24171W        W39302  15.741   8.143  12.951  0.0818 -0.2133 -0.0421
24172W        W39303  15.189   3.137  12.302 -0.0136  0.1626 -0.1823
24173W        W39304   0.790  12.233   5.476  0.0570  0.1011  0.0332
24174W        W39305   8.671   2.494  12.803 -0.2226  0.1710 -0.3738
24175W        W39306   1.353   5.056  15.831  0.0096  0.1967  0.0791
24176W        W39307   1.724  16.351  16.806  0.0376 -0.0244 -0.0123
24177W        W39308   8.953  11.157  15.612 -0.0506 -0.2254 -0.0641
24178W        W39309   7.101   2.741   1.682  0.2018  0.0385 -0.0309
24179W        W39310   1.063  15.220  15.658 -0.0727  0.2618  0.2388
24180W        W39311   1.700   3.248  14.843 -0.1123  0.1349  0.1490
24181W        W39312  12.013  16.591  16.092  0.1904 -0.2351  0.0403
24182W        W39313   9.254   3.050  11.239 -0.0079  0.1504  0.1367
24183W        W39314   1.354   0.269   0.231 -0.1477 -0.0346 -0.0841
24184W        W39315   7.347   6.406  12.977  0.1695 -0.1378  0.1618
24185W        W39316   3.855   6.530   1.411 -0.1742  0.0630  0.0482
24186W        W39317   0.981   1.992  14.938  0.2270 -0.1572 -0.1248
24187W        W39318   7.886  16.401   2.169  0.2244 -0.3401 -0.1787
24188W        W39319   4.838   9.192  13.597  0.3658 -0.1427  0.2091
24189W        W39320   6.914   7.325   1.685  0.1370 -0.0845  0.0454
24190W        W39321   4.704   7.353  11.034 -0.2180  0.0621  0.0923
24191W        W39322   3.305  12.504   0.755 -0.0840 -0.0117 -0.0430
24192W        W39323  10.692  15.907  16.559 -0.1827  0.1420 -0.0125
24193W        W39324   0.560   8.089   3.341  0.0552  0.0946  0.0334
24194W        W39325   2.813   8.425  16.573 -0.0138  0.0365  0.0961
24195W        W39326   4.306   1.076   2.435 -0.0072  0.0004 -0.1252
24196W        W39327   3.737  13.513  15.697 -0.1730 -0.0568  0.3468
24197W        W39328  13.361   6.864   0.390  0.1188 -0.0953 -0.2069
24198W        W39329   4.633  16.659  15.495 -0.1510 -0.2042 -0.1810
24199W        W39330  11.015   9.987   1.531 -0.0972  0.0502  0.1610
24200W        W39331   1.098  16.971  11.451 -0.0236  0.1131  0.3191
24201W        W39332  13.334  14.195  13.684 -0.1683 -0.0498 -0.3643
24202W        W39333  14.801  11.234   1.478  0.0049  0.0419 -0.0853
24203W        W39334  17.635  11.697  16.657  0.1561 -0.0822 -0.2926
24204W        W39335   9.191  13.003  12.733 -0.3232 -0.1397  0.0691
24205W        W39336   1.132   6.498   3.215 -0.1132  0.1701 -0.1420
24206W        W39337   9.927  12.146   0.003 -0.1563 -0.0048 -0.1254
24207W        W39338  13.964   8.716  15.981  0.0099  0.1167  0.0803
24208W        W39339  12.338  10.075   1.555 -0.2188  0.1209  0.0591
24209W        W39340   9.443  11.262  16.630  0.0268 -0.1872 -0.3942
24210W        W39341  13.683   0.968  15.324 -0.1779 -0.3583  0.3094
24211W        W39342  15.860  13.484  14.024 -0.0381 -0.1803 -0.1044
24212W        W39343  15.195   2.446   0.240  0.2776 -0.0893 -0.1573
24213W        W39344  13.363   4.615   4.501 -0.0826  0.2644  0.1112
24214W        W39345  12.704   3.223  14.202  0.3296 -0.3838 -0.1762
24215W        W39346   5.816   8.026   2.121 -0.0777 -0.0904  0.0859
24216W        W39347   4.370  12.196  12.142 -0.2258  0.1813 -0.1400
24217W        W39348   6.969   4.287   3.359  0.0849 -0.1524  0.1247
24218W        W39349   6.671   0.558   5.003 -0.1558  0.0063  0.4258
24219W        W39350  12.762  10.584  11.188  0.1522 -0.1625  0.0182
24220W        W39351   1.063  16.946   6.281 -0.2560 -0.0961 -0.0094
24221W        W39352  14.823  14.106   5.429  0.2059 -0.2115 -0.3087
24222W        W39353   0.180  13.432  12.278 -0.1420  0.2165  0.4021
24223W        W39354  11.219  11.129   4.965  0.1683 -0.3443  0.0099
24224W        W39355   6.271  10.589  14.672 -0.1490 -0.0552  0.1026
24225W        W39356   3.640   4.629   1.292  0.2637 -0.1591 -0.0377
24226W        W39357  11.861  12.603   5.282 -0.1585  0.0323  0.1750
24227W        W39358   6.318   4.319   5.023 -0.1445 -0.1702 -0.2034
24228W        W39359  11.937   2.521   5.063 -0.0876  0.0158  0.0477
24229W        W39360   4.595   5.024  11.193  0.2027  0.0096 -0.1125
24230W        W39361   8.147   1.001   1.168  0.0578  0.1789 -0.0658
24231W        W39362   0.012  13.946  16.061  0.0784 -0.1237 -0.0931
24232W        W39363   1.794  10.520  11.934 -0.0277  0.0350  0.0610
24233W        W39364   7.123   8.020  11.038  0.1076  0.0537  0.2005
24234W        W39365   3.664   0.857   4.349  0.1293  0.1273 -0.1638
24235W        W39366  13.234   6.027  12.177  0.0316 -0.2695  0.2524
24236W        W39367   8.116  17.372  13.102 -0.0643  0.2223 -0.0313
24237W        W39368   6.869   2.055   5.006  0.0193  0.0430 -0.1801
24238W        W39369  14.915  10.764   0.022 -0.0492 -0.2951 -0.0457
24239W        W39370  12.774   3.091   3.709 -0.0747  0.1985 -0.1719
24240W        W39371  10.070   8.873   1.949 -0.0740  0.0698 -0.1776
24241W        W39372   7.982   8.834  16.634 -0.3062  0.0733  0.1036
24242W        W39373  17.350  17.313   2.433  0.0795  0.1460  0.3164
24243W        W39374  13.512   2.964   4.787  0.1878 -0.1018  0.1345
24244W        W39375   9.411   2.431  14.056  0.2624  0.0613  0.1177
24245W        W39376  13.772   4.323   4.523 -0.5123  0.0808  0.0387
24246W        W39377   9.116  17.630  16.157 -0.0828 -0.0694  0.1439
24247W        W39378   4.891   3.214   4.293  0.2115 -0.1705  0.1485
24248W        W39379   3.078   7.176   1.332  0.0940  0.2630 -0.1067
24249W        W39380   8.454   0.930   1.588 -0.0939 -0.0675  0.0798
24250W        W39381   8.605   1.802  14.973 -0.0301  0.1611  0.1293
24251W        W39382   3.686  13.025  16.526  0.0979  0.2907  0.1100
24252W        W39383   6.034   7.748  16.265 -0.0454 -0.0795  0.1500
24253W        W39384   4.540  12.012   1.057 -0.0033 -0.1092  0.0195
24254W        W39385  17.677  15.158  11.926 -0.1541  0.0483 -0.2303
24255W        W39386   6.076  10.742  11.956 -0.1792 -0.2120 -0.0146
24256W        W39387  10.843  11.015  14.869 -0.2801  0.1829  0.2987
24257W        W39388  16.435   0.718   2.140 -0.0051 -0.1064 -0.3367
24258W        W39389  10.912  13.143   4.778 -0.1705 -0.2271 -0.0450
24259W        W39390  15.863  12.598   2.762 -0.1713  0.0009 -0.0100
24260W        W39391   2.053  12.648  15.551 -0.0685  0.2160  0.4321
24261W        W39392   7.713   4.003   1.440  0.3617  0.0537 -0.0176
24262W        W39393  14.859   7.713  11.616 -0.1030 -0.0936  0.0164
24263W        W39394   6.077   0.480  12.963 -0.1965 -0.0573  0.0025
24264W        W39395  15.821   2.263  15.205  0.0062  0.0945 -0.0469
24265W        W39396  10.701  13.825   4.225 -0.0875 -0.0689  0.3472
24266W        W39397  15.608  10.616  16.395 -0.2892  0.0022  0.0654
24267W        W39398   7.083   3.587  15.924  0.0586  0.1159  0.3566
24268W        W39399   9.885   1.252   4.545  0.0392  0.0040  0.1346
24269W        W39400  12.585   1.125  14.279  0.1616 -0.2068  0.0210
24270W        W39401   0.119   6.173  16.457 -0.2885  0.0819 -0.1637
24271W        W39402   0.540   1.310   2.794 -0.1884  0.1131  0.1115
24272W        W39403   3.777   6.058   4.337  0.0699 -0.2412 -0.1985
24273W        W39404   1.073   0.150  13.927  0.3658  0.2333 -0.0230
24274W        W39405   1.864   4.678   2.630 -0.0468  0.0135 -0.1353
24275W        W39406   5.561  13.322  12.606 -0.1117  0.2199 -0.1113
24276W        W39407   9.838  17.116  12.300  0.0782 -0.0128 -0.0490
24277W        W39408  11.127   9.149  15.345 -0.0724 -0.1896  0.0563
24278W        W39409   5.236  11.684  16.885 -0.0243 -0.1021 -0.0181
24279W        W39410   4.933   5.940  14.987 -0.2466 -0.0705 -0.0404
24280W        W39411   1.065  15.399   3.675  0.2336  0.1240 -0.1604
24281W        W39412   4.366  13.989  14.712  0.0654  0.1716 -0.2590
24282W        W39413   9.381   6.411  10.937 -0.2893  0.3112  0.2159
24283W        W39414   9.824   8.173  13.108 -0.0366 -0.0654  0.0865
24284W        W39415  16.506  16.045  13.388 -0.1203 -0.1158  0.2708
24285W        W39416  14.190  14.599   2.520 -0.0630  0.2070  0.0393
24286W        W39417   6.073  15.869  14.241  0.1850  0.2157 -0.1522
24287W        W39418  16.782   5.037   0.990  0.0397  0.2250 -0.3426
24288W        W39419   5.849  14.135  12.159 -0.1563 -0.3364  0.1392
24289W        W39420   3.585   4.449  16.364 -0.0232  0.0803 -0.4059
24290W        W39421   7.077   0.645   3.233 -0.0431 -0.0444  0.2426
24291W        W39422  11.768   1.789  15.714  0.1522  0.0055  0.1413
24292W        W39423   1.015  13.324   4.762  0.1540  0.1177  0.1666
24293W        W39424  11.562   8.012   2.917  0.0677  0.3325  0.0731
24294W        W39425   6.359   1.508  11.815 -0.2630 -0.1193 -0.1818
24295W        W39426  13.215  17.489  11.499  0.4061 -0.0749  0.3211
24296W        W39427   1.405   8.948   0.436  0.0876  0.4254  0.1907
24297W        W39428   3.617  12.280   4.306  0.0624 -0.3375  0.2646
24298W        W39429  16.378   9.142   1.948  0.3781  0.1721 -0.3629
24299W        W39430   3.148   5.121  11.085 -0.0573 -0.1497  0.1878
24300W        W39431   5.047   3.305   3.514 -0.0223 -0.1009  0.0590
24301W        W39432   0.475   4.175  13.500  0.2699  0.3569 -0.0287
24302W        W39433   5.743  12.252   4.513 -0.3146 -0.0352  0.0429
24303W        W39434   5.594   4.352  14.913 -0.1435 -0.1442  0.0883
24304W        W39435  10.638  11.334   1.124 -0.1622 -0.1911  0.2757
24305W        W39436   7.010   9.810   0.950 -0.1879 -0.0026  0.0328
24306W        W39437  13.674  10.019   2.508 -0.1332 -0.0245  0.1794
24307W        W39438  16.808   5.655   5.525 -0.0887 -0.2563  0.2181
24308W        W39439   4.603  12.370  16.491 -0.0944 -0.1101 -0.0979
24309W        W39440   1.096  11.442   2.569  0.1390  0.1811 -0.1908
24310W        W39441  15.297  16.672   3.506  0.1120  0.1672  0.2490
24311W        W39442   8.874   9.489   2.246 -0.0893  0.1303  0.1442
24312W        W39443  15.740  13.374   4.474  0.0595  0.1860  0.0617
24313W        W39444  14.236  11.939  16.641 -0.1997 -0.1997 -0.0775
24314W        W39445   4.910  15.679   1.560  0.1997 -0.2046  0.0289
24315W        W39446   0.253  11.277   2.375 -0.1191  0.1517 -0.0491
24316W        W39447   1.923  17.127   3.665 -0.2436  0.2227 -0.0920
24317W        W39448  10.990   4.627   1.747  0.0515  0.0743 -0.0323
24318W        W39449  16.799   1.216   1.156 -0.0272  0.3095 -0.3075
24319W        W39450  10.114   1.930  14.427 -0.1659 -0.0507  0.2891
24320W        W39451   2.900  10.828   2.085 -0.1057 -0.3003  0.0620
24321W        W39452  16.721  14.163  16.424  0.1527  0.0856 -0.0760
24322W        W39453   0.381  14.868   2.959 -0.1857  0.0839 -0.0297
24323W        W39454   4.933  10.540  13.981 -0.5684  0.1451 -0.2275
24324W        W39455  14.320   4.920   5.059  0.0525 -0.0046 -0.0796
24325W        W39456   8.706  17.685  14.093  0.1221  0.0161  0.2659
24326W        W39457   8.852   5.847   3.843 -0.1714  0.0425 -0.0390
24327W        W39458   6.415  14.514  16.603  0.1191 -0.3296 -0.0069
24328W        W39459  11.520  14.487  11.966 -0.0116  0.3289  0.0229
24329W        W39460  13.812  12.219   4.253  0.2148  0.0005  0.0328
24330W        W39461   7.775   0.823  12.320  0.2030 -0.2271 -0.1698
24331W        W39462  14.572   9.931  15.715  0.3675 -0.1932  0.0509
24332W        W39463  11.648   5.593  11.063  0.0502  0.1182 -0.0261
24333W        W39464   3.519  17.118   2.740  0.2014 -0.0842  0.0813
24334W        W39465  12.137   3.019   5.099 -0.0845 -0.0029 -0.2070
24335W        W39466   8.982  11.027  12.299  0.0843  0.0672 -0.2603
24336W        W39467  13.754  17.459  12.719  0.1756  0.0328 -0.1528
24337W        W39468  17.086  10.217   3.968  0.0001 -0.1382  0.1433
24338W        W39469  16.963   5.453  12.315  0.4034 -0.1944 -0.2398
24339W        W39470  13.503  15.499   3.523  0.1269  0.1982  0.0995
24340W        W39471   5.339  13.586   5.768  0.0351  0.1408  0.2104
24341W        W39472  13.062  13.155  12.714  0.0584 -0.1220 -0.5514
24342W        W39473  13.096   2.800   5.690 -0.0871 -0.0392 -0.3646
24343W        W39474   8.952  17.618   4.491 -0.1273 -0.4376  0.1170
24344W        W39475   0.489   8.639  12.410  0.2430  0.1493  0.0332
24345W        W39476   2.037  11.508  14.839  0.4389  0.0164 -0.3131
24346W        W39477   1.494  17.420  12.591 -0.0408 -0.0320 -0.0241
24347W        W39478   0.837  17.519   0.192 -0.3620  0.1497 -0.0945
24348W        W39479   3.256  15.791   3.693  0.2795  0.0211  0.0812
24349W        W39480  17.281  14.066   1.182 -0.1876 -0.0581 -0.0822
24350W        W39481  11.806  15.112  15.529 -0.2715 -0.1622  0.2243
24351W        W39482   3.435  14.584   5.503 -0.1257 -0.2204  0.0154
24352W        W39483   3.440   0.977   1.224  0.1201  0.0293  0.0952
24353W        W39484   9.802   6.698   5.782  0.1461  0.0818 -0.1209
24354W        W39485   7.862   1.253  15.030  0.0438  0.3597  0.2117
24355W        W39486   9.163   7.000   0.670  0.0850 -0.2647  0.2562
24356W        W39487   1.062   4.901   5.203 -0.2236  0.1529  0.0896
24357W        W39488   9.791  13.319  13.213  0.3046  0.3469 -0.0474
24358W        W39489  10.118   7.856  13.466  0.0249  0.1488  0.1571
24359W        W39490  16.692   3.972   3.753 -0.2759  0.1141 -0.3244
24360W        W39491   0.033  14.079   4.921 -0.2846  0.1071  0.0238
24361W        W39492  13.690  15.129  15.415 -0.2110 -0.0953 -0.0755
24362W        W39493  16.561  15.495   5.611  0.3646 -0.1439 -0.1694
24363W        W39494   4.860   5.347  11.497  0.2061  0.2001 -0.0416
24364W        W39495   1.072   8.929   2.127  0.0612  0.1240  0.0304
24365W        W39496   1.374   2.936  10.955 -0.0631  0.0868 -0.2091
24366W        W39497  11.046  10.800  10.798  0.3118 -0.0403  0.1160
24367W        W39498   5.299   7.688  14.139  0.0672 -0.3967 -0.0175
24368W        W39499  13.544   8.752   5.948 -0.0037  0.1744  0.0500
24369W        W39500   5.852   7.612  15.385 -0.0235 -0.3090  0.0180
24370W        W39501  13.514   3.732  14.466 -0.0631 -0.1221  0.0772
24371W        W39502  11.618  14.252  16.398  0.2444  0.2420  0.0747
24372W        W39503  15.966   4.125  11.940 -0.0557  0.0930  0.2037
24373W        W39504  16.658  12.700  11.846 -0.0343  0.0762 -0.1420
24374W        W39505  11.604   0.767   2.215 -0.0629 -0.1384  0.4698
24375W        W39506   7.944   7.702  11.409  0.2677 -0.3040 -0.0808
24376W        W39507   5.811   1.656   1.095 -0.1693 -0.2223  0.1318
24377W        W39508   2.546  10.315  13.538 -0.3799 -0.1601  0.2832
24378W        W39509  14.245  17.059  13.538  0.0080  0.0927  0.2016
24379W        W39510   0.784  15.009  14.641  0.0613  0.1700  0.0056
24380W        W39511  10.831   7.226   1.944 -0.0404  0.3690  0.0686
24381W        W39512  12.733  17.220  16.811 -0.2809  0.0836  0.1590
24382W        W39513   4.834   3.850   2.754 -0.0248  0.0848 -0.0230
24383W        W39514   8.818   3.089   0.482  0.1897  0.1344  0.2581
24384W        W39515  11.394   0.053   0.967 -0.1676  0.0884  0.2856
24385W        W39516  11.127   7.530   5.484 -0.3080 -0.1652  0.1542
24386W        W39517  11.674   6.302   0.924 -0.2607  0.2073  0.3953
24387W        W39518   7.926  10.342  13.768  0.4007 -0.0856  0.1106
24388W        W39519  14.130   1.657   2.002 -0.2128  0.1737 -0.1021
24389W        W39520   9.225  12.596  13.358 -0.1671 -0.0875 -0.0750
24390W        W39521  11.075   4.988   0.841 -0.0078  0.0857 -0.0780
24391W        W39522   4.173   7.772  11.151 -0.2243  0.1558 -0.1277
24392W        W39523  13.527  11.457  14.748 -0.1230 -0.1085 -0.1654
24393W        W39524  11.274   7.049   1.622 -0.2654  0.1311 -0.0377
24394W        W39525   2.930  16.897  14.325 -0.1569 -0.3894  0.2788
24395W        W39526  16.031   2.505   1.293  0.1660  0.0458  0.1096
24396W        W39527  14.196   8.733   5.234 -0.1069  0.0493  0.3305
24397W        W39528   2.565  12.563   3.211 -0.0603  0.0063 -0.0433
24398W        W39529   0.812   7.379  16.315  0.2413 -0.0530 -0.0209
24399W        W39530  12.779   1.346   3.890 -0.3081  0.1539 -0.3360
24400W        W39531   9.188   9.689  14.537  0.1684 -0.3179  0.1923
24401W        W39532  11.667  15.935   4.105  0.2241  0.0191 -0.1407
24402W        W39533   2.713  14.430   0.293 -0.3072 -0.0538  0.0550
24403W        W39534  16.422   8.087   1.173 -0.1587 -0.0138  0.0466
24404W        W39535   6.847  12.789  15.811  0.0563  0.0959 -0.1578
24405W        W39536   3.118   4.720   3.499  0.1647 -0.1074  0.3661
24406W        W39537  10.591   9.534  13.104 -0.0548 -0.1162 -0.0498
24407W        W39538   9.043  11.893   2.792  0.0362 -0.0398 -0.6433
24408W        W39539   7.991  11.023   0.440 -0.0617 -0.0068 -0.3706
24409W        W39540  12.154   6.217  10.704 -0.0231 -0.1940 -0.2308
24410W        W39541   0.752  15.817   2.734 -0.2309 -0.0651  0.1570
24411W        W39542   4.050   4.013  12.611 -0.1045  0.1352  0.0214
24412W        W39543   6.314  13.530   5.597  0.3449  0.0451 -0.2532
24413W        W39544   9.184  11.393  11.954  0.0325 -0.1093 -0.1269
24414W        W39545   7.525   7.691  13.818  0.0857  0.1271  0.0347
24415W        W39546   7.935   7.368   5.110 -0.1565 -0.1767 -0.1243
24416W        W39547   6.587  17.030  13.973  0.0608 -0.1857  0.0823
24417W        W39548  16.630  13.095  15.663 -0.2328 -0.0790  0.0646
24418W        W39549  14.360   5.028   6.136 -0.0813 -0.1097 -0.0045
24419W        W39550  13.728  10.266  14.620  0.1184  0.2237  0.2534
24420W        W39551  17.171  13.722  14.112 -0.3545  0.0494  0.1343
24421W        W39552   0.973   9.478   0.930  0.0048 -0.2040 -0.2851
24422W        W39553  17.398   6.535   1.355  0.0025 -0.3637 -0.1649
24423W        W39554  14.095   3.158  12.593  0.3012 -0.3704  0.0845
24424W        W39555  15.637  15.107  14.682 -0.1391 -0.1830  0.0276
24425W        W39556   0.191  15.220  13.720  0.0054  0.2347 -0.0638
24426W        W39557  13.421   1.048   0.234 -0.0005 -0.0904 -0.0404
24427W        W39558   2.652   5.035  10.893  0.2175  0.0870 -0.1025
24428W        W39559   9.227   1.485  14.842  0.2605 -0.0628  0.1490
24429W        W39560  13.298  11.767   0.834  0.0217 -0.1023  0.0265
24430W        W39561  15.296   2.653  12.346  0.2494  0.1233  0.3626
24431W        W39562   5.059   7.993   3.189  0.0293 -0.0079  0.0945
24432W        W39563   2.402   6.275   0.436 -0.4233  0.0185 -0.1016
24433W        W39564   9.860   0.762   3.697 -0.0888  0.3109 -0.1289
24434W        W39565   4.175   3.998  14.340  0.0801 -0.3779 -0.0431
24435W        W39566   5.186  10.345  15.087  0.2429  0.2355 -0.0292
24436W        W39567  17.192  15.857  12.322  0.2461 -0.1590 -0.0245
24437W        W39568  15.994   7.633  12.958 -0.3018 -0.2187  0.0656
24438W        W39569  11.385   0.868   0.484  0.0167 -0.0864  0.0451
24439W        W39570  15.930  14.799   1.379 -0.2982  0.0370  0.1631
24440W        W39571   3.474   4.949   0.452 -0.3459 -0.0414 -0.0647
24441W        W39572   3.981  15.845  12.168 -0.1174 -0.1373 -0.0369
24442W        W39573   4.443  15.813   1.944 -0.2258 -0.0313  0.0879
24443W        W39574   0.294  12.413   0.920  0.1410  0.1112  0.1540
24444W        W39575   9.526   2.955   0.393  0.1771 -0.0884 -0.1807
24445W        W39576   7.082   5.272  15.678  0.2980 -0.0905 -0.3323
24446W        W39577   9.470  14.212  12.282 -0.1746  0.2188  0.0404
24447W        W39578  14.219   2.184   4.937 -0.0102  0.1119  0.3272
24448W        W39579   1.416   5.981  11.498  0.1574  0.1657  0.0768
24449W        W39580   3.048  17.705  15.300  0.0824  0.0713 -0.1251
24450W        W39581  14.774   4.119   0.301 -0.2331  0.0324  0.1326
24451W        W39582   0.380  14.605  15.671  0.1918  0.1294  0.0648
24452W        W39583  10.634  16.280  15.431  0.1827  0.2602  0.1380
24453W        W39584  17.657  13.064   2.584 -0.4145  0.3131  0.2179
24454W        W39585   9.538   7.549  11.047  0.0982 -0.0183  0.1385
24455W        W39586  12.994  13.005   0.597 -0.1793  0.0251  0.1494
24456W        W39587   9.018   2.759   1.122 -0.0045  0.0532 -0.0581
24457W        W39588   2.123   1.479  16.045 -0.1636  0.0873  0.4629
24458W        W39589   1.833   3.347   4.406  0.1020  0.0966  0.1878
24459W        W39590   8.120  17.103   3.246  0.0654  0.1841 -0.1524
24460W        W39591  15.691   3.694  13.101 -0.0783  0.3951 -0.2405
24461W        W39592   7.595   2.314   2.724  0.1160  0.1235 -0.1967
24462W        W39593  13.003  17.218   3.474  0.2485 -0.0360 -0.1767
24463W        W39594  11.467   4.265  12.689 -0.2747 -0.1288 -0.0361
24464W        W39595   0.248   7.768   0.072  0.1473 -0.3325  0.0341
24465W        W39596  12.399  11.420   4.202  0.3417  0.5685  0.4812
24466W        W39597   0.393  12.177   4.082 -0.2207 -0.0042 -0.2040
24467W        W39598   5.733  14.512  11.819  0.1308  0.0673 -0.0847
24468W        W39599  12.075  16.650  11.993 -0.0230  0.2814 -0.1371
24469W        W39600   2.599  16.021  16.934 -0.0665  0.4578 -0.2475
24470W        W39601  16.272   5.350   1.853 -0.3383 -0.1992  0.0036
24471W        W39602   3.594  12.294  12.670  0.1803 -0.2118 -0.0032
24472W        W39603  15.556  16.059  16.020  0.0702  0.2540  0.1667
24473W        W39604   3.145   1.372   1.220  0.2094  0.0427  0.0152
24474W        W39605  15.389  11.106   0.677  0.0645  0.0364 -0.0692
24475W        W39606  13.048   7.648   4.454 -0.0387  0.1362  0.0997
24476W        W39607  11.614  14.489   2.464  0.1997  0.0214  0.1301
24477W        W39608  16.400  17.256  15.953 -0.0148  0.0475 -0.0023
24478W        W39609   4.014  17.658  14.385 -0.0598  0.1748 -0.3015
24479W        W39610  11.897   3.571  14.796  0.4412  0.0705 -0.0483
24480W        W39611   7.194   8.325   0.790 -0.0232  0.1453 -0.0155
24481W        W39612   4.955   1.756   3.119  0.0510 -0.1801 -0.1891
24482W        W39613   6.091   8.751   1.084  0.0170 -0.5140  0.1549
24483W        W39614   3.108  16.363  16.549 -0.1859  0.0327 -0.1156
24484W        W39615   2.616   3.168  15.774  0.1236 -0.0687 -0.0363
24485W        W39616   5.386   1.959  12.522  0.2185  0.3200  0.1138
24486W        W39617   0.526   1.105  14.384 -0.3415 -0.3165  0.0174
24487W        W39618   1.751   6.970   5.838 -0.2027 -0.0141 -0.0065
24488W        W39619  14.385   7.240   2.386 -0.1308 -0.2147 -0.0022
24489W        W39620  11.586   4.454  11.432  0.2659 -0.0164  0.0713
24490W        W39621   7.083  12.920  14.544 -0.2482 -0.3320  0.0391
24491W        W39622  11.707   7.353  14.967 -0.2217  0.2792 -0.1584
24492W        W39623   7.289   1.219  11.936 -0.1808  0.1659  0.2518
24493W        W39624   0.389  10.338   3.224 -0.1115  0.0546  0.0657
24494W        W39625  12.383   8.810   5.526 -0.1659  0.0797 -0.2166
24495W        W39626  14.057  10.159   2.248  0.2662 -0.0445  0.2681
24496W        W39627  14.841   9.864  16.696  0.0391 -0.0844  0.2464
24497W        W39628   9.021   6.389  13.883  0.1398 -0.0843  0.0291
24498W        W39629   6.871  10.859  12.818  0.0362  0.0253 -0.0908
24499W        W39630   8.168   2.528   2.644 -0.1248 -0.0302 -0.4251
24500W        W39631  14.653  14.669  16.504  0.1098  0.2833  0.0825
24501W        W39632  16.356   5.460  15.447  0.0177 -0.0296 -0.1066
24502W        W39633  16.412  12.305  15.284 -0.1386 -0.0161  0.0071
24503W        W39634   1.332   5.512  12.530  0.0048 -0.3146 -0.1315
24504W        W39635   9.736  12.073  11.943 -0.0689 -0.2770 -0.1049
24505W        W39636   5.758   0.584  14.172  0.1523  0.1359  0.0079
24506W        W39637   9.500  15.651  13.173  0.0485 -0.1736  0.0542
24507W        W39638  12.851   0.098   3.835 -0.0266 -0.2130  0.0023
24508W        W39639   1.054   7.360   4.067  0.0921 -0.0381 -0.1189
24509W        W39640  10.545   7.280  13.975  0.1547 -0.2142  0.0508
24510W        W39641   4.941   0.353   1.358  0.0887 -0.1469  0.0257
24511W        W39642  15.379  16.488  16.250 -0.2484  0.0615 -0.1143
24512W        W39643   6.749  10.310  16.449  0.1994 -0.1201  0.1032
24513W        W39644   8.239  11.949   1.707 -0.3337  0.1922  0.1024
24514W        W39645  14.943   5.437  12.106 -0.0269 -0.1446 -0.0135
24515W        W39646   1.406   0.456   4.951 -0.1235 -0.0764  0.1831
24516W        W39647  10.514   4.691  11.283 -0.1722  0.1986  0.0243
24517W        W39648   0.524  14.398   2.162 -0.1553 -0.1737  0.2910
24518W        W39649   6.265  11.982  16.929 -0.2206 -0.0310  0.0399
24519W        W39650  16.695   8.458   4.307 -0.0500  0.0207  0.1217
24520W        W39651  13.128   5.123   0.436  0.0123 -0.1346 -0.1891
24521W        W39652   4.244  16.697  16.825 -0.1594 -0.0919 -0.1023
24522W        W39653   0.207  15.420   3.878  0.2709 -0.3307 -0.0909
24523W        W39654   2.531   6.238   3.180  0.2671 -0.1221  0.2266
24524W        W39655  10.163   5.057  12.366  0.0729  0.0229 -0.1897
24525W        W39656   9.831   8.296   0.018  0.0841  0.1128  0.2831
24526W        W39657   7.170  10.322  14.766 -0.0706  0.0053 -0.0679
24527W        W39658  12.779   9.130   4.047  0.2173  0.1979  0.1282
24528W        W39659  17.362   4.060  15.200 -0.1807 -0.1134 -0.2359
24529W        W39660  11.802  15.835   1.789 -0.3380  0.3611  0.0243
24530W        W39661   8.390   6.178   5.010  0.1315  0.0475  0.0191
24531W        W39662  12.235   8.828  11.719  0.2397  0.2508  0.0836
24532W        W39663  16.177   1.113  11.181 -0.1391 -0.0632  0.2747
24533W        W39664   6.376   5.494  16.750  0.1005 -0.1254 -0.1399
24534W        W39665  17.446   8.400  11.790  0.0602 -0.1347  0.4205
24535W        W39666   4.265   0.331  15.694  0.1144 -0.2052  0.0252
24536W        W39667   7.307   2.260  12.731 -0.2074 -0.1345  0.1065
24537W        W39668   0.949   0.146  15.238 -0.0210 -0.0709 -0.2559
24538W        W39669  13.079   1.177  11.959  0.0296 -0.2774  0.1200
24539W        W39670  15.627  11.112  15.350  0.0485  0.2411  0.1104
24540W        W39671  13.609   4.825  16.391  0.1428 -0.0644 -0.2097
24541W        W39672  17.251   3.755   2.411  0.0508  0.0053  0.1501
24542W        W39673   3.112  17.487   4.605  0.0180  0.0818  0.1347
24543W        W39674   5.108   4.545  14.938  0.3848  0.0310 -0.0382
24544W        W39675  15.747   3.670  14.009  0.0855  0.0071 -0.2091
24545W        W39676  16.042  10.837   3.136  0.1342  0.0410 -0.2479
24546W        W39677  10.501   3.914   4.595  0.1027  0.0009 -0.1808
24547W        W39678  16.987   4.570  11.770  0.2993  0.0481  0.1871
24548W        W39679   8.655  17.688  16.654 -0.2071 -0.1198  0.0095
24549W        W39680  14.738  11.656   2.343  0.1896 -0.0329  0.0882
24550W        W39681   8.395   6.304  14.684 -0.3006  0.3323 -0.0349
24551W        W39682  16.951   0.674  14.075  0.1311  0.2450  0.3760
24552W        W39683  14.878  14.782  14.780 -0.0544 -0.3037 -0.1415
24553W        W39684   1.334  14.556   1.707  0.0219 -0.0161 -0.3446
24554W        W39685   2.820  15.970   0.952 -0.1163 -0.0543 -0.0194
24555W        W39686  15.206  11.937  14.614  0.1365  0.2506  0.1605
24556W        W39687  10.370   2.250  16.783  0.0322  0.0030 -0.3190
24557W        W39688   0.392  17.330   4.754 -0.2299 -0.0739 -0.1691
24558W        W39689   7.920  11.400   1.404  0.5733 -0.0938 -0.1528
24559W        W39690   5.417   6.531   4.807 -0.1258 -0.0559 -0.0626
24560W        W39691  16.652   7.883   1.988  0.1013  0.1526 -0.3019
24561W        W39692  10.968   1.225  13.135  0.0489  0.0616  0.2057
24562W        W39693  15.502  13.172   0.124  0.1157 -0.0845  0.2117
24563W        W39694  15.293   6.456  16.376 -0.2454  0.0537 -0.0114
24564W        W39695   5.431   6.749   3.302 -0.0418 -0.0708 -0.2513
24565W        W39696   9.673  16.836   0.770  0.1564 -0.3410  0.1442
24566W        W39697   3.708  16.300  12.466  0.0207  0.1355  0.0775
24567W        W39698  13.248  15.550   5.859  0.1948  0.1502 -0.2161
24568W        W39699   0.667  14.672  16.940  0.0383 -0.3654 -0.2573
24569W        W39700   7.477  10.191  11.440  0.1243  0.0980  0.0265
24570W        W39701   1.868  13.430  13.765  0.0336  0.3057 -0.0232
24571W        W39702   0.269  10.142  16.039 -0.3762  0.0241 -0.1111
24572W        W39703   8.180  14.124   0.995  0.3083 -0.0760 -0.0512
24573W        W39704   9.958  11.524  15.109 -0.1330 -0.0007  0.1863
24574W        W39705  16.370   5.825  12.775  0.1357  0.0751  0.0429
24575W        W39706  16.823   1.142  16.002  0.2874 -0.0523 -0.0091
24576W        W39707   5.095  10.381   2.906 -0.1666  0.0403 -0.0432
24577W        W39708  13.578  11.604  16.116 -0.0753  0.1270  0.2768
24578W        W39709  14.529  12.737   5.548 -0.0051 -0.1853 -0.2588
24579W        W39710  13.809   8.281   5.997 -0.0210  0.0553 -0.0316
24580W        W39711   5.185  12.606   4.618 -0.1143  0.2752  0.1382
24581W        W39712  10.738  12.070  14.858 -0.1518  0.1568  0.0365
24582W        W39713   6.512   9.265   1.443  0.0887  0.2659 -0.0580
24583W        W39714  12.657   8.357  11.117 -0.1976  0.2344  0.0354
24584W        W39715   4.870   4.838  13.559  0.0042  0.1395 -0.2546
24585W        W39716  14.638  12.410   4.641 -0.0334 -0.0476  0.1861
24586W        W39717  12.813   4.549  16.564 -0.0780 -0.1878 -0.0126
24587W        W39718   2.705   2.933   1.827  0.0706 -0.2001 -0.3996
24588W        W39719   8.547   1.470  12.664 -0.1589 -0.0271  0.0074
24589W        W39720  17.635  15.908  16.335 -0.0102  0.0958 -0.0601
24590W        W39721  13.269  12.172   3.131 -0.1089  0.1341  0.0083
24591W        W39722  17.163   9.512  11.949 -0.0889  0.0574  0.0553
24592W        W39723   1.158   6.843  11.311 -0.0605  0.0645  0.0428
24593W        W39724  11.904  12.312   4.022 -0.1657 -0.1331 -0.3643
24594W        W39725   1.063   1.152  14.165  0.0449 -0.0602  0.1656
24595W        W39726   6.535   8.532  11.267 -0.0009  0.0552 -0.2662
24596W        W39727   3.211  13.982   4.110 -0.0275 -0.1905 -0.0799
24597W        W39728  12.267   4.524  12.297  0.0116  0.0660  0.0777
24598W        W39729  13.718   5.580  15.765  0.4567  0.0133 -0.0179
24599W        W39730   6.943   0.248  16.858 -0.0436  0.0064  0.1802
24600W        W39731   4.470  14.757  15.548  0.1788 -0.1664 -0.1531
24601W        W39732   5.817   1.304  11.269  0.1972 -0.2666 -0.2652
24602W        W39733  16.006  17.259   1.270 -0.1208 -0.0548 -0.1743
24603W        W39734   4.834   7.704  14.501  0.3020  0.0114  0.0742
24604W        W39735  11.034  15.994  15.484 -0.3270  0.2105 -0.1532
24605W        W39736  10.848  13.718   0.143 -0.0824  0.1360 -0.1444
24606W        W39737   4.318  17.305   1.758 -0.0425 -0.1918  0.3204
24607W        W39738   1.330  10.508   4.241  0.0470  0.4384  0.2255
24608W        W39739   0.863   2.948  13.703  0.2383  0.3569 -0.0082
24609W        W39740   6.733   5.587   0.107 -0.2698  0.3387  0.1759
24610W        W39741  15.929   5.016   1.418  0.1708 -0.1095  0.1512
24611W        W39742  12.147  15.012   5.321 -0.0821 -0.0921  0.2013
24612W        W39743  17.461   3.902  14.531  0.1190  0.0673 -0.0161
24613W        W39744   9.185   7.029  12.411  0.1798  0.2031 -0.2600
24614W        W39745   9.879  12.376   1.433  0.1241 -0.3904  0.1205
24615W        W39746   2.031  15.577   5.630  0.1714 -0.0326  0.0849
24616W        W39747   6.465  16.340  16.378  0.0816  0.0341  0.2884
24617W        W39748  12.637   2.163   5.811 -0.1586  0.2899 -0.0197
24618W        W39749   0.367   5.701  11.043  0.1686 -0.2469  0.3372
24619W        W39750   8.268   8.020  11.192 -0.1009 -0.0354  0.1660
24620W        W39751  11.282   8.240   5.015  0.0813  0.0764 -0.0882
24621W        W39752  15.926   8.141   3.655  0.2165  0.2312  0.0136
24622W        W39753   0.851  17.351  11.169 -0.5276 -0.2960 -0.0206
24623W        W39754   7.782  10.253  12.324 -0.0876 -0.0147  0.2325
24624W        W39755  11.503  15.741   5.272  0.0716 -0.0494 -0.1527
24625W        W39756   6.008   3.795  16.877  0.0513 -0.2202 -0.0284
24626W        W39757  15.972   1.368  15.857 -0.1510 -0.0489  0.0267
24627W        W39758  16.618  16.993  14.223  0.0387 -0.1458  0.1642
24628W        W39759  17.271  10.460  14.543  0.0813  0.2046 -0.2473
24629W        W39760  10.823   2.715   1.406 -0.0006 -0.1911 -0.0596
24630W        W39761  14.532   0.364   1.897  0.0970  0.1640  0.0690
24631W        W39762   2.414  15.637  11.693  0.1685  0.1590  0.0637
24632W        W39763  10.174   2.090   5.695 -0.0788 -0.2163 -0.0314
24633W        W39764   3.275  11.104   2.978  0.0661 -0.0566  0.0652
24634W        W39765  16.966  10.483  10.966 -0.1290 -0.1451 -0.2666
24635W        W39766   3.708   1.305  13.333 -0.1575  0.1555 -0.0303
24636W        W39767   1.512  15.457  12.452  0.1267  0.1193 -0.1470
24637W        W39768   5.800  13.101   0.656 -0.3360 -0.0165  0.3794
24638W        W39769  14.156   3.685  12.482 -0.0064  0.2651  0.0799
24639W        W39770   5.021   5.314   0.046 -0.1594 -0.1495 -0.2097
24640W        W39771   1.665  14.298   4.145  0.2410  0.0001  0.1969
24641W        W39772   8.264   8.381  15.654 -0.1045 -0.0327  0.2254
24642W        W39773   2.835  17.441   0.638  0.2526 -0.0202  0.2107
24643W        W39774   7.787   8.844  14.441 -0.3157  0.1792 -0.0372
24644W        W39775   5.429   1.094  14.236  0.1590  0.1236 -0.0415
24645W        W39776   6.940   4.361  11.643 -0.0192 -0.1495 -0.1439
24646W        W39777   2.457   0.900  12.814 -0.1373  0.1913  0.3028
24647W        W39778  12.523   4.732   2.680 -0.0083  0.1846  0.0732
24648W        W39779   9.277  10.046   4.884 -0.1926 -0.0416 -0.0296
24649W        W39780  15.355   1.464  11.410 -0.1168  0.0733  0.1719
24650W        W39781   0.641   7.903  15.558  0.3149  0.1225  0.0742
24651W        W39782   2.336   5.044   2.633  0.1478 -0.0291 -0.1249
24652W        W39783   0.268  13.264   4.780 -0.1073 -0.3842 -0.2733
24653W        W39784  10.540   1.951   3.935 -0.0267  0.1676  0.1424
24654W        W39785   9.547   7.954   2.637 -0.3352  0.0445 -0.0889
24655W        W39786  17.554  14.170   4.441 -0.2637  0.1746 -0.0815
24656W        W39787  11.219  16.522  15.294 -0.0741  0.3683 -0.3740
24657W        W39788  16.749  11.730   3.972  0.2599 -0.1251  0.0541
24658W        W39789   7.306  14.812  12.619  0.0851 -0.4360  0.0297
24659W        W39790   4.702  14.431   2.151 -0.1018  0.1566 -0.3936
24660W        W39791  14.547   6.501  13.822  0.1722 -0.0512  0.1936
24661W        W39792   8.565  12.291   0.626  0.1522  0.1509 -0.1226
24662W        W39793   3.392  12.504   3.416  0.1308 -0.2829 -0.3283
24663W        W39794  17.016   0.859   2.850  0.1046  0.1632  0.0612
24664W        W39795   0.387   4.519   1.182  0.0661  0.3430  0.0558
24665W        W39796   0.423  15.609   2.288 -0.1255  0.0054 -0.0223
24666W        W39797   8.091  13.770  16.109  0.1152  0.0846  0.3358
24667W        W39798  14.762  17.156  12.074  0.1642 -0.2014  0.0460
24668W        W39799   2.842  17.415   0.135 -0.0064  0.0146  0.0744
24669W        W39800  16.376   2.194   4.938 -0.1301 -0.0845 -0.0927
24670W        W39801   7.457   1.962   0.970  0.2892 -0.0735 -0.4393
24671W        W39802   2.677  10.811   3.589 -0.2463  0.1407 -0.0493
24672W        W39803  12.597  15.580   4.189 -0.2345 -0.1929  0.2279
24673W        W39804  17.215  16.009   4.352 -0.2106  0.1112  0.0467
24674W        W39805   3.024  11.970  11.829 -0.2770 -0.1259 -0.0161
24675W        W39806   6.287   6.593   5.837 -0.0640 -0.1895 -0.0813
24676W        W39807   5.793   8.878  13.348  0.2516  0.0052  0.3349
24677W        W39808  16.894   3.551   3.405  0.2943 -0.0953  0.1902
24678W        W39809   5.784   7.856  12.053  0.0841  0.2735 -0.1033
24679W        W39810  11.134  14.243   3.350  0.1748 -0.0059  0.1062
24680W        W39811  15.883   7.646   3.412 -0.0079  0.0083  0.0180
24681W        W39812   2.650   2.265   2.512 -0.1482 -0.0114 -0.1524
24682W        W39813   8.158   7.369   2.665 -0.2595  0.1389 -0.1187
24683W        W39814  14.246   4.336  16.009  0.1231  0.3049 -0.2893
24684W        W39815   4.326   2.992   5.205  0.0661 -0.1729 -0.1869
24685W        W39816  12.014  10.117  15.218  0.2184  0.1686  0.0000
24686W        W39817  11.268  11.913  11.870  0.0479 -0.1297  0.1001
24687W        W39818   7.942   8.292   0.968 -0.0684 -0.0997 -0.0604
24688W        W39819   2.124   8.959   4.215 -0.1639 -0.1425 -0.0730
24689W        W39820  16.913   3.748  13.464  0.3638  0.2777  0.1215
24690W        W39821  11.457  11.796  11.439  0.2356  0.1513 -0.2076
24691W        W39822   5.433   9.671  14.402  0.0005  0.0770 -0.1458
24692W        W39823  13.504  12.720  16.231 -0.2313  0.1954 -0.1817
24693W        W39824  12.572  15.719   4.657  0.3169 -0.0547  0.0590
24694W        W39825   2.007  16.082   2.546 -0.0412  0.0570  0.0822
24695W        W39826  10.605   5.494   2.845 -0.2534 -0.1500  0.0797
24696W        W39827   1.323   4.623  11.521  0.2608  0.0495 -0.5964
24697W        W39828  15.114  15.021  12.593  0.0691  0.3999  0.1684
24698W        W39829   1.143  16.980  10.949 -0.3258  0.1081  0.1097
24699W        W39830  10.057  16.444   4.839  0.0510 -0.0558  0.2232
24700W        W39831   2.817   5.556  14.978 -0.0810  0.2358 -0.2534
24701W        W39832  14.514  14.555   4.086 -0.1212 -0.2466  0.1368
24702W        W39833  11.657   8.062  16.023 -0.1862 -0.2053  0.0804
24703W        W39834  11.493  14.522   3.761  0.3244 -0.0512  0.3836
24704W        W39835   8.382  10.480   5.150  0.1388  0.1740  0.1626
24705W        W39836  16.944  12.878  13.677 -0.1519  0.0813 -0.1713
24706W        W39837   9.924  17.015   0.317  0.0273 -0.2779 -0.3216
24707W        W39838  11.012   3.116   5.977 -0.0003  0.1435 -0.1283
24708W        W39839   8.485  11.348   5.702 -0.0469 -0.1291 -0.0603
24709W        W39840  15.707   9.238  12.170  0.1137  0.0775 -0.2186
24710W        W39841   4.816   0.639   5.030  0.0371  0.2775  0.2156
24711W        W39842   3.976  16.857  16.419 -0.0506  0.0755  0.3750
24712W        W39843  14.360  11.910  12.276  0.0260 -0.2141  0.1185
24713W        W39844  13.252   4.118  14.690 -0.3266 -0.0901  0.0125
24714W        W39845  15.121  13.947   5.822  0.2630  0.0182 -0.1314
24715W        W39846   9.055   9.547  16.653  0.1191  0.2368 -0.1909
24716W        W39847   1.694   3.024   4.821  0.2421 -0.2905 -0.1002
24717W        W39848   5.508   8.858  12.931  0.2304 -0.0658  0.3372
24718W        W39849   7.161  11.048   6.334 -0.3615 -0.4085 -0.1246
24719W        W39850  11.004   1.352  15.206  0.1109 -0.2030  0.1242
24720W        W39851  16.314   7.917   5.341  0.1224  0.1248  0.0591
24721W        W39852   6.676  16.647  15.462 -0.1573  0.0382 -0.2300
24722W        W39853  13.828   3.330  13.036 -0.1706  0.0576 -0.0064
24723W        W39854   8.418  16.714   3.315 -0.3886  0.0678  0.0634
24724W        W39855   7.154   1.421  16.732 -0.3233  0.1449 -0.0879
24725W        W39856  11.712  14.598  16.721 -0.3407 -0.0575  0.0513
24726W        W39857  12.129   3.435   3.252  0.3002 -0.0813 -0.2184
24727W        W39858   3.816  15.334  12.354 -0.1980  0.1539  0.0570
24728W        W39859   8.623   6.557   3.027 -0.1362  0.0486 -0.0779
24729W        W39860  13.609  13.195  15.050  0.0107 -0.0377 -0.0389
24730W        W39861  16.233   4.706  11.168 -0.0284  0.2699  0.0058
24731W        W39862   6.094   0.284   4.344 -0.0493 -0.2934  0.2312
24732W        W39863   1.792   2.455  16.395 -0.0534  0.1901 -0.2292
24733W        W39864  17.487  13.957   5.770 -0.1382 -0.2449  0.1169
24734W        W39865  16.847  17.353  16.898 -0.1308 -0.1067 -0.2456
24735W        W39866  10.875  13.181  11.737 -0.0139 -0.1330  0.1608
24736W        W39867  17.519   0.722  16.734 -0.5914  0.2826  0.5137
24737W        W39868   1.019  15.196  12.514  0.1156 -0.3968 -0.0618
24738W        W39869   8.943   2.381   4.347 -0.2408 -0.1391 -0.2075
24739W        W39870   1.260  10.308  11.315  0.0426 -0.2412  0.2172
24740W        W39871   4.059  16.501   0.885  0.2903 -0.0857  0.5452
24741W        W39872  12.852   0.391  15.092  0.0991 -0.2173  0.3757
24742W        W39873   8.346  13.951  11.576  0.2530  0.0138 -0.0640
24743W        W39874   9.081   0.325  14.073 -0.0005  0.2101  0.4173
24744W        W39875   7.544  15.941   4.069  0.3581  0.0581 -0.0762
24745W        W39876   3.099  12.063   2.599 -0.4568  0.1540  0.2121
24746W        W39877   1.881   5.450  12.387  0.1115 -0.1134  0.0350
24747W        W39878   7.536   8.398  15.525 -0.1386 -0.0750  0.1414
24748W        W39879  13.148   8.535   3.000  0.0254 -0.1199 -0.0639
24749W        W39880  17.379   7.546  13.088 -0.1869 -0.0586  0.1308
24750W        W39881   7.782   1.615  15.346  0.3709 -0.1959 -0.6010
24751W        W39882   6.678  12.588   1.696 -0.1468  0.0839 -0.1577
24752W        W39883   0.428   1.267   1.361 -0.0018  0.3650  0.4393
24753W        W39884  14.968   1.549  16.784 -0.0445  0.0235  0.0453
24754W        W39885  12.941  17.233  16.123  0.0992  0.0134 -0.0255
24755W        W39886   1.544   1.241   1.389 -0.2357  0.1878  0.1314
24756W        W39887   7.730   6.334  15.995  0.0742 -0.1316 -0.0402
24757W        W39888   9.661   0.852  13.674 -0.0782 -0.1370  0.2148
24758W        W39889   4.285   3.325   1.974 -0.0794  0.0313 -0.3360
24759W        W39890   3.519   6.132  11.825 -0.4970 -0.2115  0.0500
24760W        W39891   7.717  13.847  11.986 -0.0562 -0.0390  0.1301
24761W        W39892  16.557  12.126   4.601 -0.1894  0.0035  0.2238
24762W        W39893  14.614  15.862   0.585  0.0319 -0.1619 -0.0604
24763W        W39894   8.712   7.958  11.471  0.1441 -0.1471 -0.0471
24764W        W39895  16.586  12.435   1.613 -0.2226  0.0494 -0.2848
24765W        W39896   9.948  14.899  15.466  0.0453  0.3076 -0.1584
24766W        W39897   9.878  17.423   4.867 -0.0871 -0.2893  0.0429
24767W        W39898   6.891   7.053  11.343  0.0312  0.0439 -0.2330
24768W        W39899   3.321  10.938  13.341  0.2208  0.2432  0.2957
24769W        W39900   0.855   7.769  11.667  0.2935  0.2081 -0.0263
24770W        W39901   7.079  13.905   3.937  0.1578 -0.1048 -0.3017
24771W        W39902   7.278  14.107  13.998  0.4609 -0.0176  0.1459
24772W        W39903   6.805   3.039   5.085  0.1366  0.0293  0.2056
24773W        W39904  13.200  17.016  16.525  0.0353 -0.3788 -0.3979
24774W        W39905  11.052   9.121   1.822  0.1015 -0.0905  0.2481
24775W        W39906   9.281   3.342   3.761  0.2913 -0.0043  0.0320
24776W        W39907  17.359   6.081   1.668 -0.0097 -0.2379  0.3949
24777W        W39908   6.016  17.161  11.673  0.1510  0.0667 -0.1380
24778W        W39909   1.423   2.194   3.791 -0.0505  0.0685 -0.0678
24779W        W39910  16.833   8.230  12.635  0.2416  0.1864 -0.0613
24780W        W39911   6.028  11.664  12.282 -0.1724  0.0493 -0.1106
24781W        W39912   1.719  15.586   1.305  0.1324  0.0175 -0.0880
24782W        W39913   5.869  16.618   4.153 -0.4193 -0.1799 -0.1304
24783W        W39914   5.837  16.082   5.922  0.1908  0.0999  0.0506
24784W        W39915   0.637  13.655   1.529 -0.0361 -0.0679  0.0334
24785W        W39916  14.717   8.120   4.095 -0.2241  0.0244 -0.0432
24786W        W39917   6.060  14.987   3.559 -0.1270 -0.1038 -0.0617
24787W        W39918  11.603  13.380  13.077  0.3162  0.1042  0.1718
24788W        W39919   2.986  12.055   0.810 -0.1614  0.0285  0.0266
24789W        W39920  15.423  11.343  16.713  0.1344 -0.0317  0.0424
24790W        W39921  17.163  10.138  12.038  0.0403  0.1152  0.1414
24791W        W39922   8.659  15.450   3.609 -0.0132 -0.2291 -0.0737
24792W        W39923   6.634   7.187  16.116  0.1719  0.1924  0.0180
24793W        W39924   3.375   1.399  15.118  0.0654  0.0254  0.0333
24794W        W39925  17.417  10.179   4.398  0.0534 -0.2027  0.2375
24795W        W39926  16.510   5.844  16.395  0.1285  0.0871 -0.0350
24796W        W39927   5.957  12.007   4.164  0.1649  0.0028 -0.0183
24797W        W39928   6.379   3.003   0.963  0.3479  0.0239  0.1566
24798W        W39929   5.445  16.322   1.793 -0.1106  0.3746  0.1176
24799W        W39930  14.594   9.206  11.797  0.2867  0.0604  0.2767
24800W        W39931  17.305   9.271  12.483 -0.2990 -0.0269  0.0499
24801W        W39932  14.543  15.385   3.810 -0.1615  0.0715 -0.1024
24802W        W39933   1.185  15.744  15.459  0.1179  0.1471  0.2620
24803W        W39934   6.842   2.718  12.438  0.2813 -0.1043 -0.1920
24804W        W39935  15.105  11.545   2.658 -0.0516  0.1610 -0.1163
24805W        W39936   5.518   0.416  12.107 -0.1700 -0.0794 -0.0277
24806W        W39937   6.977  12.820  12.807  0.0343 -0.0978  0.3327
24807W        W39938  13.199   8.125   1.279  0.0453  0.0882 -0.1070
24808W        W39939   4.445  10.539   1.999  0.1277 -0.2249 -0.0162
24809W        W39940   9.254   9.132  16.035 -0.1163  0.3599  0.0731
24810W        W39941  17.482   4.953  14.619  0.0489  0.0235  0.1701
24811W        W39942   2.292  10.641  16.302 -0.1171 -0.2702  0.3385
24812W        W39943  14.632   8.678  11.724 -0.2667 -0.2149 -0.0326
24813W        W39944   3.913   8.866  14.615 -0.0740  0.0682  0.3213
24814W        W39945   4.374  16.236   3.362  0.0551 -0.1197  0.1743
24815W        W39946  10.384   2.383   2.748  0.2640 -0.1742 -0.4787
24816W        W39947   5.103  13.850  12.463 -0.1212  0.0218 -0.1777
24817W        W39948   1.469  12.463   3.140 -0.0825  0.2622 -0.0236
24818W        W39949  14.713   6.780  16.940  0.1427  0.1385  0.0783
24819W        W39950   0.474  12.394  11.911 -0.0961  0.0434 -0.2350
24820W        W39951   2.739  16.197  12.171  0.1086 -0.1120  0.0754
24821W        W39952   1.250   2.469   2.102 -0.1793 -0.0011  0.2409
24822W        W39953   2.672   0.789  15.192 -0.0533  0.0064 -0.1558
24823W        W39954  16.986  17.621   3.774  0.1173  0.3170  0.1884
24824W        W39955  16.938   0.783  13.111 -0.0105  0.2374  0.0879
24825W        W39956  11.243  12.413  11.860  0.1066  0.0833  0.3576
24826W        W39957   3.761  11.481  12.092 -0.1417  0.4316 -0.0661
24827W        W39958   4.998  13.366   3.343 -0.3095 -0.2833  0.3281
24828W        W39959   6.048   8.163  13.207 -0.3986  0.1036  0.4168
24829W        W39960  15.562   2.306  16.527 -0.1483 -0.0757  0.0069
24830W        W39961   2.078   6.739   1.054 -0.2284  0.0053 -0.0719
24831W        W39962   3.700   1.712  14.246  0.0831 -0.2523 -0.0759
24832W        W39963   5.954  10.430   3.214  0.0905 -0.0309 -0.0734
24833W        W39964   8.618   2.322  13.717  0.3493  0.2365 -0.0757
24834W        W39965   2.500  10.997   4.207  0.0549  0.0779 -0.0998
24835W        W39966   8.858  10.842  15.146 -0.0508 -0.1494  0.1935
24836W        W39967   7.506   7.156   2.755  0.1859 -0.0440 -0.3875
24837W        W39968   2.742   5.196   4.652 -0.1182 -0.1561 -0.1206
24838W        W39969  15.674   7.773   1.667 -0.0921  0.0663 -0.2303
24839W        W39970   6.402   8.022  16.490 -0.2086 -0.0020 -0.0330
24840W        W39971  10.239   4.384  14.073  0.0306  0.3528  0.1100
24841W        W39972   3.691   0.307   3.109 -0.0794  0.0806 -0.1378
24842W        W39973  11.518  17.198  16.821  0.0577  0.1334  0.2407
24843W        W39974  16.371  13.268  14.042 -0.1335  0.0363 -0.2048
24844W        W39975  13.826   4.917   4.585  0.1476  0.0899  0.1555
24845W        W39976  16.367   1.158  13.790 -0.0271 -0.0158  0.0963
24846W        W39977  15.556  14.577  13.506  0.0840  0.1429 -0.1178
24847W        W39978   3.416   4.604  14.013 -0.0037  0.1645  0.1018
24848W        W39979  12.635   5.348  11.813  0.3001  0.0680 -0.1368
24849W        W39980  13.796  11.971  11.537  0.2705  0.3791 -0.3743
24850W        W39981  12.707  11.837   4.429  0.4266  0.1117  0.1353
24851W        W39982   6.252   5.824  14.294  0.2381  0.2089 -0.0319
24852W        W39983  11.610   1.809   5.967  0.1123 -0.0014 -0.4972
24853W        W39984  12.536  15.975   0.911 -0.2547  0.1633  0.0278
24854W        W39985  15.033  13.493   2.466  0.2090 -0.0815 -0.0147
24855W        W39986   2.783   9.148   3.013  0.0311  0.0691 -0.0363
24856W        W39987   8.429   5.336   1.263 -0.2125  0.1018  0.0280
24857W        W39988   2.405  15.372  12.719  0.2101  0.3280  0.1082
24858W        W39989   0.982  14.475  12.482  0.0132  0.1516  0.3017
24859W        W39990  10.831  14.944   4.095  0.0511 -0.0414  0.0862
24860W        W39991   6.559  11.318   3.694 -0.0270 -0.3120  0.2638
24861W        W39992  10.784   5.302   2.032 -0.1666 -0.1603  0.1677
24862W        W39993  12.294   6.195  16.710  0.1011 -0.1355  0.0670
24863W        W39994  17.336  16.120  12.801 -0.1863  0.0763  0.0608
24864W        W39995  12.816  10.305   2.289  0.2350  0.0356 -0.0038
24865W        W39996  11.168  12.563   5.197  0.1298 -0.0015 -0.2071
24866W        W39997  16.739   7.168   1.489 -0.0687  0.2754  0.0217
24867W        W39998  14.542   3.221   5.542 -0.6208  0.1123 -0.2328
24868W        W39999  10.372   5.055  11.675  0.0202  0.1765 -0.2160
24869W        W40000   0.125  12.879   1.714  0.0365  0.0938  0.0246
24870W        W40001  11.967   1.596  16.557 -0.1739  0.0677  0.0604
24871W        W40002   8.880  14.763   6.264 -0.3371 -0.0861 -0.2347
24872W        W40003  16.787   3.995   2.432  0.1115  0.0499  0.1383
24873W        W40004  11.368   5.132   5.695  0.3087 -0.3182 -0.0706
24874W        W40005  13.727   6.751   1.926  0.0419  0.0088 -0.0037
24875W        W40006   4.272   0.188  12.603  0.3357 -0.4072  0.4177
24876W        W40007  13.189  13.844   2.140 -0.1041  0.2457  0.0466
24877W        W40008  14.117   2.355  13.679 -0.2762 -0.0770  0.1130
24878W        W40009   3.529   5.698  16.899  0.0325 -0.1690  0.0864
24879W        W40010  17.267  12.017   1.595 -0.2297  0.1093 -0.0134
24880W        W40011   7.524   6.543  12.401  0.1277 -0.0422 -0.0730
24881W        W40012  16.311  12.419   0.744  0.1520  0.1957 -0.2061
24882W        W40013   5.336   3.972   2.477 -0.2143 -0.3207 -0.0167
24883W        W40014   9.929  12.545  13.189 -0.0160  0.0459  0.2672
24884W        W40015   5.016   0.150  12.339  0.2544 -0.0380 -0.1807
24885W        W40016   3.915   3.639  11.303 -0.4421  0.0440  0.0073
24886W        W40017   1.708   7.474  15.173  0.0333  0.0124  0.1407
24887W        W40018   6.143  15.088   5.000 -0.1438  0.2674 -0.2979
24888W        W40019   6.187  16.358   0.199  0.2660  0.0113 -0.2190
24889W        W40020  16.047   3.199  11.266 -0.0073  0.0492 -0.0561
24890W        W40021  14.234  10.215   1.282  0.0833  0.0475  0.0957
24891W        W40022   9.754  16.601  14.151  0.0028 -0.2393  0.0623
24892W        W40023  16.994   1.433   2.652 -0.1555  0.4340  0.2052
24893W        W40024   3.283  12.624   5.028  0.2518  0.0442  0.1248
24894W        W40025   7.610   5.188  16.918  0.2219  0.3183 -0.1388
24895W        W40026  16.373   7.008   1.788  0.3459  0.0736 -0.0774
24896W        W40027  11.217   7.586   1.773  0.3349  0.0033  0.1327
24897W        W40028   6.498  11.757  14.670 -0.1483 -0.0450  0.2848
24898W        W40029   5.423   3.678   3.592 -0.2111 -0.1753 -0.0376
24899W        W40030   4.115   8.146  11.978  0.3514  0.0083  0.1789
24900W        W40031   4.566   3.544   4.458  0.1670 -0.0778 -0.1929
24901W        W40032   2.761  13.347   1.080 -0.1962 -0.1118  0.0215
24902W        W40033   3.681  12.418  14.793  0.0096 -0.0428 -0.2231
24903W        W40034   0.742   5.851   4.949 -0.0339 -0.0753  0.2149
24904W        W40035   4.973   8.075  14.758 -0.0823  0.1726  0.1259
24905W        W40036   3.584  15.263   1.623  0.0816 -0.0345  0.2209
24906W        W40037  15.550  11.870   5.320  0.0292  0.0165  0.0397
24907W        W40038  17.527   4.122  10.953  0.1111  0.3769  0.1422
24908W        W40039   1.375  17.175   3.835  0.4491 -0.0143  0.2346
24909W        W40040   9.533  14.949  16.554 -0.1066 -0.1207  0.1145
24910W        W40041   2.072   5.352  11.638 -0.1107  0.2952 -0.3832
24911W        W40042  16.096   4.909   2.436  0.0686 -0.1531 -0.0473
24912W        W40043  10.606   2.180  12.831 -0.1312  0.0019 -0.0279
24913W        W40044   6.778   4.024  12.412  0.2052 -0.0763 -0.0226
24914W        W40045  12.886   1.497  16.677  0.0520 -0.0971 -0.1112
24915W        W40046   8.816  15.743  15.289 -0.0363 -0.0711  0.0613
24916W        W40047   0.008   1.039  14.600  0.0947  0.0693  0.0884
24917W        W40048  10.019   9.035  15.968  0.0635 -0.2283  0.1030
24918W        W40049  12.572   0.909   2.372  0.1907 -0.0912  0.1516
24919W        W40050   8.140  15.954   2.385 -0.2828 -0.1200  0.2345
24920W        W40051  13.534   8.047   4.711 -0.2834  0.1750 -0.2462
24921W        W40052   5.469   6.383   5.491 -0.0854  0.3389 -0.1994
24922W        W40053   2.530   2.085   1.689 -0.3064  0.0276 -0.0337
24923W        W40054  15.572  10.957  12.600  0.0818 -0.0459  0.1023
24924W        W40055  14.292  17.343   4.146  0.1731  0.5044 -0.2385
24925W        W40056  11.960  10.791  12.802  0.0741  0.1673  0.1115
24926W        W40057   8.732   8.950   1.510 -0.0638 -0.2036 -0.1455
24927W        W40058  13.119   4.665   2.592  0.2769 -0.0061 -0.1139
24928W        W40059   9.547   3.221   4.651 -0.2115  0.2525 -0.2895
24929W        W40060   9.364   0.509   3.889  0.0960  0.1944  0.0655
24930W        W40061   4.342  14.459   5.478 -0.3374 -0.2432  0.1193
24931W        W40062  12.734  12.639  14.049  0.2511 -0.0272  0.2170
24932W        W40063  13.207  13.783  15.722  0.2550  0.0158  0.1221
24933W        W40064   6.334  17.512   2.481 -0.0164 -0.1623 -0.2196
24934W        W40065  14.229  10.207  12.553 -0.1515  0.0064 -0.1951
24935W        W40066   8.702  10.665  12.794  0.1012 -0.1584 -0.0214
24936W        W40067  15.504   4.157   1.819 -0.1057 -0.3396  0.0030
24937W        W40068  17.487  10.095   1.211  0.0100  0.1812  0.2266
24938W        W40069   8.842  14.152   4.940 -0.1393 -0.0215 -0.1099
24939W        W40070   4.862  10.309  16.391 -0.0916  0.0744  0.1034
24940W        W40071   3.914  14.020   4.366  0.0613 -0.1837 -0.1783
24941W        W40072  12.493  15.357  13.508 -0.0284 -0.0205  0.0340
24942W        W40073  13.782  10.392  15.332  0.4474  0.1225 -0.0910
24943W        W40074   7.978   9.820  12.097 -0.2535 -0.0977  0.1298
24944W        W40075  11.993  16.115   2.617  0.1686 -0.0282 -0.0147
24945W        W40076  10.860  13.562  15.925 -0.2674  0.1702  0.3886
24946W        W40077  16.083   1.023   2.867  0.0856 -0.0970  0.0093
24947W        W40078  17.355   4.582   0.127  0.2307 -0.1530 -0.0869
24948W        W40079   8.997   9.685   6.033 -0.3143 -0.0203 -0.1385
24949W        W40080   3.659   8.442  15.539 -0.2690  0.3002  0.0393
24950W        W40081   0.892   8.634  13.515  0.0546 -0.2423  0.0015
24951W        W40082  15.784   2.503  16.167 -0.0026 -0.3133 -0.1140
24952W        W40083  17.293  13.173  14.397 -0.1078 -0.2880 -0.4993
24953W        W40084   1.741   3.228   0.032 -0.3645 -0.3371  0.3428
24954W        W40085  10.539  14.463   3.286  0.0779 -0.0248 -0.3460
24955W        W40086   4.676  16.833  13.857 -0.0299 -0.1650 -0.0703
24956W        W40087   7.894   4.229   2.352  0.1379  0.1276  0.0524
24957W        W40088  17.224   2.707  12.649 -0.1072  0.2711  0.0230
24958W        W40089   1.908  16.503  13.680 -0.0053  0.2537 -0.2210
24959W        W40090   0.712   5.232  13.581 -0.0451  0.2071  0.0905
24960W        W40091   0.783  14.008  11.789 -0.2031 -0.1546 -0.1741
24961W        W40092  10.506   8.302  15.855  0.0131  0.4901  0.0940
24962W        W40093   9.277  14.185  13.278 -0.0964 -0.0342  0.1195
24963W        W40094  12.934  10.868  16.579 -0.0399  0.2202 -0.2053
24964W        W40095  10.082   9.763   1.325  0.0436 -0.0890  0.1089
24965W        W40096   3.561   8.435   5.110 -0.1335 -0.0264 -0.0077
24966W        W40097   7.138  17.545  11.724  0.0437 -0.1423  0.0160
24967W        W40098   4.110  11.543   3.946  0.3039 -0.4247 -0.0144
24968W        W40099   6.672  13.461  12.444  0.0489 -0.1426 -0.1231
24969W        W40100   2.333   8.863  13.302 -0.1988  0.2668 -0.0982
24970W        W40101   2.082  12.035  14.617  0.1028  0.2350 -0.0638
24971W        W40102   5.397  13.532  16.417  0.0778 -0.0343 -0.2704
24972W        W40103   4.786  17.227  16.762  0.0095  0.0025  0.1931
24973W        W40104   3.114  10.459   4.335 -0.1792  0.0464 -0.1843
24974W        W40105  13.506   0.525   0.300  0.2910 -0.1223  0.2273
24975W        W40106  11.530  15.891  11.994 -0.1567  0.0901 -0.0270
24976W        W40107   5.618  17.670  16.684  0.2353 -0.1003 -0.4375
24977W        W40108  14.482   8.852   4.241  0.1904 -0.1912 -0.0795
24978W        W40109   3.109   3.662   2.112  0.0421  0.0123  0.3760
24979W        W40110  17.102  12.251  13.762 -0.2733 -0.0238  0.4864
24980W        W40111   7.404  16.473   3.337  0.0363  0.0116  0.1710
24981W        W40112   6.472  14.934   2.699  0.0462  0.3252  0.3091
24982W        W40113  16.510  15.368   0.524 -0.1019  0.2415 -0.1321
24983W        W40114   0.230  12.680   2.729 -0.4086  0.0042 -0.2264
24984W        W40115   8.326   1.935   6.325  0.5225  0.1497 -0.0799
24985W        W40116   7.806   4.443   1.252 -0.1235  0.2949  0.2344
24986W        W40117  12.609  16.792   0.142  0.0995 -0.1560  0.1691
24987W        W40118  12.824   8.875   1.522  0.1021 -0.1713  0.1497
24988W        W40119  13.103  15.927  13.810  0.3601  0.3215 -0.3879
24989W        W40120  10.201   7.861  12.432  0.1590  0.0659  0.2707
24990W        W40121  10.635   7.306   0.275  0.3402 -0.0872  0.2520
24991W        W40122  13.760   2.178   5.121 -0.1109 -0.1245 -0.1414
24992W        W40123   8.935  10.555   3.568  0.2381 -0.1407 -0.2792
24993W        W40124   5.123   1.516  12.369  0.5248  0.5421  0.2473
24994W        W40125  10.646  13.003  16.649 -0.0135  0.0233 -0.0721
24995W        W40126   9.539   6.648   2.057 -0.5323 -0.3130  0.1687
24996W        W40127  11.405   8.705  11.371 -0.3224 -0.0637  0.1396
24997W        W40128   6.340   4.241  12.421  0.0733 -0.1741 -0.0190
24998W        W40129  12.597  12.217   4.772  0.0710  0.0305  0.1217
24999W        W40130   5.677  16.124  14.802 -0.0772 -0.1876  0.0818
25000W        W40131  10.423  13.470  12.505  0.1336 -0.1065 -0.2534
25001W        W40132   9.671  13.999   1.314 -0.0977 -0.2282  0.2037
25002W        W40133   5.982   9.176  15.035  0.1799  0.3122  0.6241
25003W        W40134   8.370  15.946   6.307  0.2392  0.0137  0.0756
25004W        W40135  16.180  14.808  12.557 -0.7206 -0.0645  0.0793
25005W        W40136   1.490  12.978   6.218  0.0520 -0.1941  0.0377
25006W        W40137  16.731   8.498   0.310 -0.0538 -0.1261  0.2411
25007W        W40138   8.408   4.467  13.835  0.1521  0.0804  0.0234
25008W        W40139  14.845   7.430  11.164 -0.0758 -0.0758  0.1901
25009W        W40140   8.505   0.041   2.115  0.1071  0.0731 -0.3382
25010W        W40141  16.801   2.061  13.986 -0.0210 -0.0584  0.4260
25011W        W40142  10.631  16.212  12.833  0.0360  0.1986 -0.0327
25012W        W40143   4.178   1.834   0.772  0.3754  0.0125 -0.0191
25013W        W40144  11.517  15.618  15.410  0.0600  0.0457 -0.4197
25014W        W40145   2.470  12.835   3.646  0.1358  0.1340 -0.2072
25015W        W40146   5.377   0.165  16.342  0.0807 -0.3061  0.1131
25016W        W40147   4.509   3.298  14.906  0.0351 -0.2094 -0.1621
25017W        W40148   2.223  13.226   6.511 -0.2609  0.1966 -0.0750
25018W        W40149  15.972  15.477  14.802 -0.0308 -0.1975  0.1852
25019W        W40150   7.378   4.849  16.094  0.0689 -0.0684 -0.0549
25020W        W40151  12.342   2.939   3.133 -0.1396 -0.0151 -0.1616
25021W        W40152  14.431   5.506   4.152 -0.1556  0.2446 -0.2236
25022W        W40153   5.831   3.717  13.652  0.4189  0.1241 -0.1521
25023W        W40154  15.131   1.986  11.159  0.0341 -0.0825 -0.4903
25024W        W40155  17.150   1.789  11.267  0.3671  0.3573  0.1345
25025W        W40156   1.927   6.337   1.354 -0.0636 -0.1525  0.3623
25026W        W40157   5.021   6.239   2.690  0.2162 -0.0879 -0.0145
25027W        W40158  11.889   3.490  11.174 -0.1165  0.3317 -0.0238
25028W        W40159  14.409  13.358   3.856 -0.1484  0.1918 -0.0281
25029W        W40160  16.212  13.385   3.664  0.0434  0.1994  0.0442
25030W        W40161   2.166  13.736   0.840 -0.2698 -0.0726  0.0861
25031W        W40162  13.318   2.661  12.567 -0.0611  0.1373  0.2028
25032W        W40163  12.788   1.843   0.620  0.0926 -0.0105 -0.1091
25033W        W40164  10.172   1.787  12.296  0.0929  0.0626  0.1184
25034W        W40165   1.917   4.570  15.316 -0.0229 -0.0436 -0.1814
25035W        W40166  12.999   8.463  14.396 -0.3939  0.3012 -0.2082
25036W        W40167  17.482   0.028   1.908 -0.1728  0.0217  0.1490
25037W        W40168  15.443   1.438   1.242  0.0326  0.0198 -0.0386
25038W        W40169   8.869  10.092  12.211 -0.1043  0.0063  0.1472
25039W        W40170  12.539  11.530  11.791  0.1437  0.2006  0.0151
25040W        W40171  13.227  13.927  13.087  0.0139  0.1129 -0.1998
25041W        W40172   9.057  16.271  16.044  0.1413  0.2135  0.1636
25042W        W40173  12.484   1.532  13.106 -0.1629 -0.1900  0.1413
25043W        W40174   3.346   9.215  14.385  0.0320 -0.0681 -0.3348
25044W        W40175  14.492  14.831  11.952 -0.0718  0.1324 -0.1017
25045W        W40176  16.179  10.400   0.444  0.3927  0.0927  0.2333
25046W        W40177   3.146  11.048   3.625 -0.0959 -0.0060 -0.3779
25047W        W40178   0.695   2.132  11.335  0.1593  0.1611 -0.0427
25048W        W40179   1.699   5.404   3.750 -0.1399  0.1237  0.5859
25049W        W40180   5.974  17.376  16.922  0.0829 -0.0157 -0.0512
25050W        W40181  11.524   7.664  11.584 -0.0322  0.0005 -0.2481
25051W        W40182   9.607  11.483   3.961  0.2677 -0.1994 -0.2045
25052W        W40183   1.019  15.186  11.682  0.2082 -0.0553  0.0763
25053W        W40184   2.428   3.363  13.713 -0.3636  0.0570  0.2131
25054W        W40185   5.571   8.007  15.043 -0.3971 -0.2909 -0.0998
25055W        W40186  13.841   9.429   4.699 -0.5567 -0.0755  0.0011
25056W        W40187   9.094   9.883  15.352 -0.0627  0.3693 -0.1466
25057W        W40188   1.412  17.508   5.466 -0.1904 -0.3552  0.1893
25058W        W40189  16.784  11.512  13.078  0.1200 -0.2426 -0.1710
25059W        W40190  10.591  13.351  13.945  0.0221  0.1556 -0.0808
25060W        W40191   6.756   7.333  13.113  0.0441  0.0099  0.3186
25061W        W40192   6.874   1.754   1.551  0.1300  0.0413 -0.1486
25062W        W40193  10.563   7.277  15.213  0.0698  0.0688 -0.1744
25063W        W40194   3.542  10.772   3.820  0.0450  0.1402 -0.2797
25064W        W40195   4.739   1.272   2.050 -0.0153 -0.0898 -0.1331
25065W        W40196   9.141   9.930   5.625 -0.0382  0.3343  0.0274
25066W        W40197  15.936   7.019  16.289  0.1273 -0.0169  0.0284
25067W        W40198  15.816  15.816  12.415 -0.0135 -0.1377  0.1274
25068W        W40199   2.560   5.652  15.384  0.0986 -0.0910  0.3757
25069W        W40200  12.217   1.425  13.862  0.0005 -0.1889  0.1036
25070W        W40201   1.520   8.263   3.009 -0.2623 -0.1179  0.0382
25071W        W40202   2.302   5.282  14.177 -0.0422 -0.1981 -0.1810
25072W        W40203   7.782   0.738  16.766  0.0852  0.2088 -0.1371
25073W        W40204   8.883   0.682   1.499  0.1057 -0.0556  0.0083
25074W        W40205   6.069  10.653  11.200  0.0170  0.0829  0.0092
25075W        W40206   0.965   7.305  11.613 -0.0899  0.2108 -0.4156
25076W        W40207   2.697   1.052  13.211 -0.0246 -0.0812  0.1615
25077W        W40208  14.303   6.293  16.590 -0.2573 -0.3295  0.0895
25078W        W40209  14.497  17.069  14.299 -0.0096 -0.1543  0.2843
25079W        W40210  10.087   6.781   3.375  0.0097 -0.0164 -0.1347
25080W        W40211  13.191   5.993  16.428  0.1259 -0.1469 -0.0227
25081W        W40212  17.044  11.145  15.661 -0.2089 -0.2892 -0.0108
25082W        W40213  16.100  17.296   6.287  0.0970  0.2013 -0.1046
25083W        W40214   3.448   0.281   2.696 -0.1155  0.0037 -0.2267
25084W        W40215   6.838  14.047  12.254 -0.1161 -0.3647 -0.0027
25085W        W40216  16.666   7.198  10.355  0.0065  0.0337 -0.0594
25086W        W40217   4.302   2.915  15.167 -0.1920  0.3026  0.0655
25087W        W40218   9.984   7.204   1.172  0.2868 -0.1070 -0.0296
25088W        W40219   2.864   0.414   4.538  0.0640  0.2418 -0.1510
25089W        W40220  16.707  15.769   2.449 -0.2114  0.0764 -0.2190
25090W        W40221   2.747   0.285   3.425  0.2693  0.3767  0.1072
25091W        W40222   7.648  11.472  14.431  0.1899 -0.1495  0.1526
25092W        W40223   2.503  16.764   2.301 -0.0619 -0.1927 -0.0464
25093W        W40224   0.121  17.152   1.180  0.0319 -0.1757 -0.0370
25094W        W40225  11.446  17.209   2.657 -0.2035 -0.0922 -0.1186
25095W        W40226  10.140  12.510  16.622 -0.2228 -0.0089  0.0796
25096W        W40227  13.010   1.057  14.003  0.0156  0.1369  0.1165
25097W        W40228   7.201   7.158   3.928 -0.2075  0.2232  0.3985
25098W        W40229   9.842  12.950   1.387  0.0061 -0.0114 -0.1198
25099W        W40230  17.087   2.821  13.169  0.2011  0.2279 -0.0495
25100W        W40231  13.768  14.141  14.640 -0.1214 -0.2262  0.1123
25101W        W40232  16.333   7.742  16.794  0.0911  0.0093 -0.2997
25102W        W40233   2.448   5.003  15.895  0.1536 -0.0262  0.0759
25103W        W40234  15.579   6.145  16.744  0.0960 -0.2484  0.2267
25104W        W40235   0.204  14.398  15.075  0.1365  0.0784  0.0453
25105W        W40236  16.895   2.438   5.510 -0.1124  0.0661  0.0386
25106W        W40237  10.148   6.366  15.738  0.0275 -0.3779 -0.0075
25107W        W40238   0.072  13.857  14.986  0.1020 -0.0326  0.1646
25108W        W40239  10.385   5.639  13.586 -0.3514 -0.0329 -0.2299
25109W        W40240  12.894  15.253   6.059  0.1876  0.0021 -0.1170
25110W        W40241  10.431  13.412  11.511 -0.2059 -0.1176  0.1067
25111W        W40242   9.469   3.432  16.002  0.0196 -0.1682  0.0714
25112W        W40243   1.790  13.099  15.516  0.1701  0.1946 -0.3473
25113W        W40244   7.661   2.854   1.483 -0.4689 -0.0005  0.2103
25114W        W40245  11.886  13.634  13.557 -0.1012 -0.0455  0.1653
25115W        W40246  12.927  13.340   4.766 -0.1300 -0.1212  0.3573
25116W        W40247   6.767   1.706   0.215 -0.1648 -0.0208 -0.3810
25117W        W40248  15.390   4.427  15.112 -0.1111  0.0261  0.0137
25118W        W40249   6.158   6.547   1.835  0.0404 -0.1143 -0.1244
25119W        W40250   1.906  13.952   2.247  0.2695  0.0697 -0.1194
25120W        W40251   8.868   9.465   4.755  0.1445  0.0743  0.0709
25121W        W40252  12.217   5.328   0.133  0.2519  0.2085  0.2123
25122W        W40253   0.161  13.173   0.371 -0.1171  0.2235 -0.1179
25123W        W40254   6.391  11.709   2.891  0.0058 -0.0433  0.1421
25124W        W40255  17.421   8.944   0.509 -0.0539  0.2394  0.0792
25125W        W40256   3.455  14.938  12.319 -0.1011  0.0550 -0.0591
25126W        W40257   3.875  12.104  12.230 -0.3804 -0.0265 -0.1082
25127W        W40258   2.421  13.982   2.156  0.1980  0.0831  0.0008
25128W        W40259   4.594  11.404   4.017 -0.0150 -0.2937  0.2970
25129W        W40260  15.930   8.846   0.533  0.0668 -0.3446  0.2178
25130W        W40261   7.817   9.861   3.066  0.0685  0.0666 -0.1280
25131W        W40262  12.063  12.118  13.024  0.1258 -0.5180 -0.2606
25132W        W40263  15.533  14.964   4.140 -0.0656 -0.1029 -0.1072
25133W        W40264   7.707  16.049  13.119  0.0588 -0.1154  0.0665
25134W        W40265   9.664   5.604  14.415  0.0197  0.0001 -0.0837
25135W        W40266   8.501   9.797  13.869  0.1144 -0.0032 -0.2615
25136W        W40267   3.873   5.404  10.683 -0.0737 -0.1456 -0.2545
25137W        W40268  10.579   6.928   5.502  0.1020  0.3176  0.2434
25138W        W40269  16.467  12.864   1.448 -0.2418 -0.1070 -0.0930
25139W        W40270   8.287  11.903   3.908 -0.1649 -0.1548 -0.1279
25140W        W40271   9.952  12.755  14.658 -0.1013  0.1193  0.0301
25141W        W40272  14.850   8.549   5.645  0.3634  0.3651 -0.1077
25142W        W40273  16.188   0.091   2.724 -0.1372  0.2740 -0.0321
25143W        W40274   2.168  14.222   0.959  0.2241  0.0369  0.2308
25144W        W40275   1.432  16.458   1.233 -0.0081 -0.3061  0.1557
25145W        W40276   6.170   1.079  14.372  0.0556 -0.0229  0.1803
25146W        W40277  12.312   0.211  14.208 -0.2468  0.3070  0.1906
25147W        W40278   0.813   7.390  10.023 -0.0219  0.2201 -0.0124
25148W        W40279   1.306   1.657   3.331  0.0756  0.0300  0.0321
25149W        W40280   9.928  14.228   0.954 -0.0920 -0.3433  0.1747
25150W        W40281   1.595  10.798  13.015  0.1646 -0.1439 -0.1213
25151W        W40282  12.321   4.974  11.936  0.0435  0.0145 -0.0176
25152W        W40283   9.235   5.141  11.597 -0.0892 -0.0374 -0.1005
25153W        W40284  11.657   4.205  16.814  0.2043  0.1330  0.1734
25154W        W40285  10.856   5.050   1.553  0.0943 -0.0419 -0.4077
25155W        W40286   3.902  11.956  12.801  0.1612  0.0283  0.1699
25156W        W40287  12.915  14.409  16.299  0.0449  0.0444 -0.0935
25157W        W40288  16.775   2.090  12.563 -0.3457  0.3214  0.1233
25158W        W40289   0.291   0.091  14.834 -0.1146  0.3088  0.0842
25159W        W40290  17.052   3.952  12.431 -0.0336 -0.1010  0.0156
25160W        W40291  13.065   7.902   4.879 -0.6391  0.0597 -0.0259
25161W        W40292  14.558   6.930  16.466  0.0295 -0.1956 -0.1940
25162W        W40293  15.538  17.413   1.326  0.3532 -0.0643  0.0416
25163W        W40294  17.551   9.183  16.913  0.0179 -0.2292 -0.0901
25164W        W40295   2.885   0.629  10.985 -0.2009 -0.1724  0.1337
25165W        W40296  13.467  11.488   1.423  0.0690  0.0859 -0.2084
25166W        W40297   9.803   4.886   6.130 -0.1922 -0.1504 -0.0381
25167W        W40298   6.473  12.896   4.781 -0.2741 -0.1927  0.2596
25168W        W40299  10.546   7.173  12.658  0.0506 -0.1245  0.0989
25169W        W40300  16.807   7.658   5.186  0.1779 -0.2121  0.2958
25170W        W40301  15.211   4.678  14.681  0.4112  0.2303  0.0434
25171W        W40302   9.580   8.490   2.713  0.3148  0.2707  0.0244
25172W        W40303  10.022   7.138   2.015 -0.0394  0.2752  0.1220
25173W        W40304   0.241   4.253   4.374 -0.1325  0.3023 -0.1934
25174W        W40305  13.722  17.607   3.196 -0.3330  0.3193  0.0508
25175W        W40306   8.800  11.017   0.915  0.0931  0.1659  0.1343
25176W        W40307   6.318   1.312  13.433  0.5090 -0.3096  0.0209
25177W        W40308  14.562   0.423   5.766  0.4155 -0.0471  0.2061
25178W        W40309   6.190   9.746   1.090  0.3923  0.1660  0.0093
25179W        W40310   7.526  10.095  10.820 -0.0580  0.0523  0.3589
25180W        W40311   5.855   7.667   4.861  0.1648  0.0883 -0.0206
25181W        W40312  14.769   9.747   3.258 -0.2237  0.0412 -0.0027
25182W        W40313  14.080   1.122  13.431 -0.0729  0.2047  0.0074
25183W        W40314  11.468   5.675  11.525 -0.0699 -0.1197  0.1508
25184W        W40315   8.354   1.331  12.077 -0.0063 -0.2317  0.0945
25185W        W40316  12.520   3.417   5.442  0.1620 -0.3292 -0.0108
25186W        W40317  14.132   5.624   3.774  0.0579  0.3387 -0.0255
25187W        W40318   9.035   2.089  13.111 -0.0460 -0.0263 -0.0820
25188W        W40319  12.496   6.082   3.566 -0.1672  0.2215  0.2735
25189W        W40320   6.570   4.039  11.775  0.1411 -0.1438 -0.2552
25190W        W40321  12.343  10.430  11.363  0.2673 -0.0383  0.3033
25191W        W40322   4.871   5.748   4.588 -0.5158  0.0707  0.1322
25192W        W40323  10.201  11.611   6.371 -0.1682 -0.2117 -0.0733
25193W        W40324   7.254  17.297  12.168 -0.1302  0.0532  0.2133
25194W        W40325   3.017  13.731  11.995  0.0124  0.0659  0.2224
25195W        W40326  14.306  16.376  12.766  0.3547 -0.1939 -0.1225
25196W        W40327   4.403   8.769  12.042  0.0546  0.3553  0.2412
25197W        W40328  13.257  13.740   4.937 -0.0860  0.1694  0.2525
25198W        W40329  10.689  16.393   1.177  0.1034 -0.0639 -0.0397
25199W        W40330  16.280  15.382   6.135 -0.0781  0.0607  0.0466
25200W        W40331   9.891  14.734   4.636  0.3620  0.1171  0.0139
25201W        W40332   3.256   3.148   4.897 -0.1992 -0.0224 -0.2955
25202W        W40333   5.797  14.580   6.221  0.3368 -0.0221 -0.1901
25203W        W40334   7.934   4.040  13.338  0.0631  0.1865  0.2161
25204W        W40335  10.828   7.755   2.721 -0.2243  0.0122 -0.1973
25205W        W40336  16.710   7.473  13.585  0.0123  0.2300  0.0555
25206W        W40337   3.721   4.460  11.686 -0.1258  0.1080  0.0638
25207W        W40338  12.971   1.636   2.956  0.0190  0.0001  0.2161
25208W        W40339   6.426  10.600  12.809 -0.1744 -0.1956 -0.2565
25209W        W40340   5.890   2.774   4.451 -0.0733 -0.0705 -0.4451
25210W        W40341   5.378   6.399  10.744 -0.1041 -0.3350 -0.3950
25211W        W40342   2.634  11.578  15.100 -0.1152  0.0762 -0.1827
25212W        W40343   8.688   5.874  14.528  0.1457 -0.0232  0.2289
25213W        W40344   7.887   5.620   1.607  0.3903 -0.0807  0.1106
25214W        W40345   8.094   2.579  14.928 -0.0808  0.0137  0.0381
25215W        W40346   7.299   6.197  16.234  0.0624 -0.0502  0.2465
25216W        W40347   9.153  10.336  15.019 -0.1391  0.3234  0.1266
25217W        W40348   0.040  17.252  13.107 -0.2042 -0.0036  0.2517
25218W        W40349   7.397   6.905  12.852 -0.1136 -0.0059 -0.2143
25219W        W40350   7.602  17.670  15.909  0.2351 -0.2294 -0.0974
25220W        W40351   6.197   4.596  14.410 -0.0044  0.1785  0.1598
25221W        W40352   0.192   5.424   5.312  0.0897 -0.1911  0.2209
25222W        W40353   9.638   6.735   4.636  0.3180  0.0360 -0.1988
25223W        W40354   7.046  13.408   4.585 -0.2979 -0.3206  0.4627
25224W        W40355   4.282  10.186  15.523  0.1343 -0.1199 -0.1513
25225W        W40356   3.410  11.199   5.080 -0.0529 -0.0097 -0.1738
25226W        W40357   5.508  17.713   1.166 -0.0440  0.1442  0.0632
25227W        W40358   1.366  15.229   4.079  0.0354  0.0875  0.1097
25228W        W40359   0.839   4.894   2.584  0.1894 -0.2521 -0.2256
25229W        W40360  15.719   0.092   3.959  0.2088  0.1926  0.1511
25230W        W40361   0.738  10.944   0.885 -0.0452 -0.4012  0.2924
25231W        W40362   4.007  13.660  14.065  0.3986 -0.2409 -0.2229
25232W        W40363  13.814   6.761   5.161  0.0581  0.0120  0.4991
25233W        W40364  11.010  15.515  15.382  0.1588 -0.0691 -0.0640
25234W        W40365   4.140  13.282   1.814 -0.2217  0.1212  0.0599
25235W        W40366   3.733  16.834   4.737 -0.3034 -0.1576 -0.0564
25236W        W40367   8.777   8.487   2.359 -0.0431  0.0448 -0.0892
25237W        W40368   6.133   3.716  13.264  0.1739 -0.0268 -0.2049
25238W        W40369  15.486   4.709   1.049 -0.1139 -0.2221 -0.0198
25239W        W40370   7.861  10.091   4.927 -0.3182  0.1866  0.3360
25240W        W40371  14.911   1.349  11.720 -0.1260 -0.0620 -0.0403
25241W        W40372  12.355  16.647  12.717  0.0633 -0.2356 -0.0646
25242W        W40373   1.287  12.035   2.058 -0.0989  0.2093 -0.0109
25243W        W40374   9.555   6.279  10.131 -0.0065  0.0339 -0.1567
25244W        W40375   0.051   7.347   3.806 -0.1067  0.3031  0.1812
25245W        W40376  10.974   7.716   0.128 -0.1097 -0.1652 -0.0014
25246W        W40377   5.923   9.320   0.434  0.1029 -0.0496 -0.1469
25247W        W40378   4.918   5.724  12.352 -0.0313 -0.1473  0.1231
25248W        W40379   1.816  15.424   4.802 -0.2414 -0.0338  0.1936
25249W        W40380  16.393   8.531   1.707 -0.0407  0.1040  0.0251
25250W        W40381  13.762   2.286   2.575  0.0379  0.1865 -0.1383
25251W        W40382  11.761  10.050   3.296 -0.1378  0.2187  0.0273
25252W        W40383   3.384   1.349   0.598  0.3472  0.1056  0.0688
25253W        W40384  16.927   6.654   5.297 -0.3416 -0.0264  0.0659
25254W        W40385  11.235   5.576  15.274  0.0221 -0.1445 -0.0595
25255W        W40386   2.290  12.791   1.929  0.1391 -0.1868  0.0678
25256W        W40387   0.136   1.505   2.917  0.0039  0.0853 -0.0259
25257W        W40388   0.858   7.068   3.718  0.1495 -0.0193  0.1861
25258W        W40389   7.182  10.850   5.109  0.1751  0.0629  0.3280
25259W        W40390   9.040   3.638  14.370 -0.4998 -0.0686  0.4802
25260W        W40391  14.967   7.747   1.197 -0.2051 -0.1263  0.0339
25261W        W40392   6.486   5.201  16.335  0.2306 -0.0094 -0.2726
25262W        W40393  10.846   1.216   0.357 -0.1205 -0.2944 -0.2369
25263W        W40394  13.301   8.080  13.673 -0.0745  0.1097  0.2473
25264W        W40395  11.268  16.952  13.399 -0.2660  0.1845  0.0962
25265W        W40396   5.135  10.701   0.685  0.3053  0.0128 -0.3310
25266W        W40397   1.400  10.629  10.743 -0.2266 -0.1917 -0.0053
25267W        W40398   4.674   5.404  13.342  0.2645 -0.0795  0.1300
25268W        W40399  12.551   1.799   3.873 -0.2013 -0.1205 -0.1791
25269W        W40400   7.815  12.256  13.759  0.1397  0.0832 -0.0642
25270W        W40401  16.666  11.793  16.339  0.3407 -0.1271 -0.0525
25271W        W40402  16.208  11.009  11.982 -0.0376 -0.0900  0.0828
25272W        W40403   7.904   7.321   1.393 -0.0917  0.1112 -0.4269
25273W        W40404  13.775   2.130  16.821 -0.3688  0.2104  0.2114
25274W        W40405   1.735   7.619  14.202 -0.0463  0.1040 -0.1165
25275W        W40406   4.497   8.233   0.126 -0.2691  0.3546 -0.0552
25276W        W40407  10.362  14.478   1.794  0.1277 -0.4233 -0.4025
25277W        W40408  11.829  11.170   3.743  0.0871 -0.1060  0.1577
25278W        W40409  11.926   8.553  16.248  0.1251 -0.0043 -0.3326
25279W        W40410   5.315   8.616   5.561  0.1083 -0.1711  0.2369
25280W        W40411   6.769   4.897   0.773  0.1901 -0.4083 -0.0608
25281W        W40412  10.143   3.470  11.056 -0.2123  0.0642 -0.2424
25282W        W40413  17.522   2.606  12.126 -0.2694 -0.1161  0.1685
25283W        W40414   8.685   0.207  16.101 -0.1840 -0.1024 -0.0163
25284W        W40415   5.593  11.457  13.641  0.1244 -0.0523 -0.2245
25285W        W40416   5.842  15.475  13.978  0.0464 -0.1422  0.0162
25286W        W40417   2.417   5.344   0.989  0.0409 -0.0945 -0.0024
25287W        W40418   0.021   8.213   1.966  0.1208  0.0830 -0.0070
25288W        W40419   8.431  11.973  15.926 -0.1035 -0.2362  0.1786
25289W        W40420   7.853  17.170  15.134 -0.2073  0.1043 -0.0306
25290W        W40421   7.687  11.824  12.941 -0.1766  0.0542 -0.3298
25291W        W40422  11.443  10.840   1.107  0.1601  0.3874 -0.0490
25292W        W40423  13.700   4.520  15.985  0.1382  0.1225  0.0679
25293W        W40424   2.683  13.278  15.299 -0.2587 -0.0814 -0.0540
25294W        W40425   7.118  13.853  14.862 -0.3258 -0.1762 -0.2199
25295W        W40426  10.295   0.655   0.093  0.0565  0.2444  0.0369
25296W        W40427   4.433   0.951   5.408  0.1140 -0.0370  0.3769
25297W        W40428  12.649   5.266  16.276 -0.1988 -0.1532  0.0667
25298W        W40429  15.225  13.983  15.219  0.4233 -0.0405 -0.1439
25299W        W40430   0.119  12.060  12.013  0.1206 -0.1190 -0.0725
25300W        W40431   9.900  16.961   3.126  0.0133 -0.1417 -0.2346
25301W        W40432  15.438  11.828  15.079 -0.0260  0.3361  0.4308
25302W        W40433  14.175   3.048  15.450  0.1913 -0.0131  0.1516
25303W        W40434   3.038   1.590   5.473 -0.0994  0.0857 -0.2248
25304W        W40435   8.792   0.707  13.885 -0.0022 -0.0893 -0.0125
25305W        W40436   8.144  11.341  16.778  0.1052 -0.4524 -0.1403
25306W        W40437  13.791   8.719   3.104  0.2054  0.3000  0.1965
25307W        W40438   7.700   8.308   2.907 -0.1637  0.2448  0.1514
25308W        W40439   6.997  11.184   1.258 -0.0043 -0.0493 -0.1757
25309W        W40440  14.831  15.533  13.388 -0.0503 -0.1366  0.1227
25310W        W40441   7.754  10.113  15.484  0.1671 -0.1734  0.0230
25311W        W40442   2.209   1.544   6.026 -0.1366  0.0290  0.0309
25312W        W40443   7.769  15.189   5.191  0.0610 -0.1712 -0.0697
25313W        W40444  17.548  10.210  16.794  0.0484  0.1980  0.0191
25314W        W40445  11.889  17.457  12.137 -0.0580  0.3708 -0.0894
25315W        W40446  15.435  15.427   2.599  0.0604  0.0652  0.0188
25316W        W40447   4.150   6.366   2.906  0.3121  0.0979 -0.0747
25317W        W40448   9.090  11.295  15.065  0.1307 -0.0743 -0.1779
25318W        W40449  17.582   0.600   5.406 -0.0257 -0.2982  0.0300
25319W        W40450  17.594  16.590   3.364 -0.0815 -0.0174 -0.1358
25320W        W40451   1.586  11.320   2.406 -0.1740  0.1240 -0.1318
25321W        W40452   1.335   0.611   6.484  0.0573  0.0213  0.0829
25322W        W40453   5.031  12.318   1.007  0.0134 -0.1332 -0.0243
25323W        W40454  11.918  13.727   3.349 -0.2787 -0.3007  0.2004
25324W        W40455   6.948   6.210  12.768  0.2719  0.3210  0.0382
25325W        W40456   9.125   4.910  13.387 -0.0643 -0.3646 -0.3414
25326W        W40457   4.078   7.689   3.341 -0.0952 -0.2172 -0.2178
25327W        W40458   0.343   5.885  14.537 -0.2666 -0.0563 -0.0661
25328W        W40459   8.430  10.611  16.054  0.0178 -0.0300  0.1367
25329W        W40460   7.324   3.175  16.377  0.1004  0.1249 -0.1282
25330W        W40461   7.844  11.741  14.848 -0.1100 -0.0925  0.1296
25331W        W40462  11.495   2.994  12.990  0.1355  0.2521 -0.0312
25332W        W40463   3.381   8.272  11.269 -0.0214 -0.0402  0.1343
25333W        W40464  16.891  16.192   2.706 -0.3797  0.0989 -0.0099
25334W        W40465  17.667  14.530  13.204 -0.1329 -0.0502  0.2661
25335W        W40466   3.817  15.439   0.221  0.3329 -0.4096  0.1712
25336W        W40467   1.058   8.200   3.378 -0.1114 -0.2252  0.2952
25337W        W40468  16.178   7.360  14.512 -0.1872  0.2539  0.0055
25338W        W40469  12.487   2.060  13.736  0.1830  0.1808 -0.0981
25339W        W40470   2.829  11.140   2.676 -0.1325  0.0497 -0.3224
25340W        W40471   8.008   3.200  13.794 -0.3189 -0.1599 -0.0711
25341W        W40472   8.436  11.025  14.360  0.2834 -0.1734  0.2417
25342W        W40473  14.992   0.095   3.552  0.1526 -0.1046  0.0917
25343W        W40474  15.652   3.289   2.837  0.2721 -0.2382 -0.0887
25344W        W40475  15.682  13.637   0.808  0.2307 -0.1233  0.1167
25345W        W40476   1.522   3.634  15.670  0.2336 -0.1933  0.4563
25346W        W40477   9.689  11.759   5.291 -0.2067 -0.0840  0.0659
25347W        W40478  12.284   3.989  11.899  0.1176 -0.1155  0.1030
25348W        W40479   3.084   7.194  14.758 -0.1901 -0.1730 -0.2994
25349W        W40480  16.989  10.123   0.996  0.1431  0.1374  0.1679
25350W        W40481   7.700   1.144   3.468  0.0479 -0.0070 -0.0106
25351W        W40482   6.824  13.746   0.520 -0.1836 -0.2211  0.0343
25352W        W40483  15.809   4.916   3.943  0.2038 -0.1537 -0.0773
25353W        W40484   5.552   6.119   5.081 -0.1040  0.1202 -0.0638
25354W        W40485  17.690   2.321  14.204  0.1736 -0.0227  0.1730
25355W        W40486  15.530   9.127   0.365  0.2220  0.0904 -0.1546
25356W        W40487  17.130  16.724   1.771  0.0488  0.5179 -0.2447
25357W        W40488   5.661  10.585   1.862 -0.0191  0.1770  0.0854
25358W        W40489  17.406  14.030   5.302 -0.1871 -0.2647 -0.0730
25359W        W40490   4.124   0.811  15.940 -0.0318  0.1488  0.0604
25360W        W40491   4.897   7.914   4.955  0.0659  0.2277  0.0507
25361W        W40492  14.488  17.690   2.588 -0.5558  0.2664 -0.3891
25362W        W40493   8.570   9.765  11.931 -0.0772 -0.1645 -0.1099
25363W        W40494  11.799  12.966   2.643  0.0560 -0.2890 -0.0406
25364W        W40495  14.927   0.464  14.068  0.2415 -0.1785  0.0943
25365W        W40496  17.330  17.305   1.933 -0.1046  0.2017 -0.0372
25366W        W40497   9.221  12.535  14.510 -0.0632 -0.1248 -0.0387
25367W        W40498   5.027  12.883  14.649  0.1741  0.1785 -0.1235
25368W        W40499   2.392   3.577   3.920 -0.1587 -0.0532  0.2318
25369W        W40500   2.025   5.074   0.920  0.0165  0.0444 -0.2050
25370W        W40501  12.938   5.202   0.958  0.1069 -0.3842  0.2972
25371W        W40502  13.750   8.662  11.722 -0.4667 -0.3044 -0.0437
25372W        W40503  13.059  14.337  12.749  0.0644 -0.3299  0.2823
25373W        W40504  16.618  10.296   1.582 -0.1076  0.2488  0.1290
25374W        W40505  11.097  13.534  13.124 -0.0963  0.3056  0.0194
25375W        W40506  10.747   2.675  12.911 -0.2472 -0.0244  0.0429
25376W        W40507  11.265   1.930   1.277 -0.2378 -0.1971 -0.4516
25377W        W40508  11.734  11.633   0.109 -0.2909  0.6178  0.2122
25378W        W40509  12.904  13.162  14.601 -0.0942  0.2755 -0.1250
25379W        W40510   2.893   0.159   0.433 -0.3584 -0.2022 -0.1902
25380W        W40511   4.017   9.207   3.130  0.1653 -0.0425  0.0085
25381W        W40512   8.817   8.511  13.982  0.1682 -0.0276  0.0865
25382W        W40513   7.223   9.938   0.502  0.1613 -0.0195  0.1161
25383W        W40514   0.031  17.399   2.212  0.0356  0.5311 -0.0556
25384W        W40515  10.448  12.951   0.843  0.0015 -0.0020 -0.0373
25385W        W40516   9.499  11.678  12.970  0.1122 -0.2027  0.1899
25386W        W40517   6.816  11.900   2.922  0.0871 -0.2413 -0.1074
25387W        W40518   3.252  10.913   4.730  0.3278 -0.0951  0.0768
25388W        W40519  16.938   2.423   3.563 -0.0298 -0.3858  0.1367
25389W        W40520   5.752   4.942   2.842 -0.1746 -0.2754 -0.3242
25390W        W40521   4.635   5.868   2.231 -0.1351  0.3645  0.0192
25391W        W40522  10.751  12.109   4.580  0.0521  0.0866  0.0656
25392W        W40523  12.722   9.791  13.209  0.0050 -0.1236 -0.0754
25393W        W40524   4.139   4.560  12.437 -0.2410 -0.1758 -0.0000
25394W        W40525   2.654   9.710   3.711  0.1493 -0.0300 -0.3174
25395W        W40526   2.510  15.745  14.703 -0.2890 -0.1212 -0.1908
25396W        W40527  11.613   9.813   2.256 -0.0678  0.1576 -0.1777
25397W        W40528  17.117  16.735  14.994 -0.0078 -0.2231 -0.2007
25398W        W40529   2.913  11.302   4.302 -0.0064  0.2442 -0.2863
25399W        W40530   7.120  14.297  12.687 -0.1797 -0.2687  0.0047
25400W        W40531   6.689   3.852   4.704 -0.2268  0.5165 -0.0486
25401W        W40532   2.302   5.336  12.121 -0.0144  0.3065 -0.3366
25402W        W40533  15.817   9.289  15.849 -0.0855  0.0215  0.1738
25403W        W40534   9.458   0.494   3.382  0.1634  0.1421  0.0178
25404W        W40535   4.250  15.575   2.324 -0.0825  0.0736 -0.2310
25405W        W40536   4.298   5.022  13.647 -0.2289 -0.1166  0.0511
25406W        W40537   6.235   4.796  15.264 -0.1953  0.0299  0.0202
25407W        W40538   4.160   4.121  14.883  0.3177 -0.2553  0.2654
25408W        W40539  15.725   7.738  11.151  0.1692  0.0545 -0.0144
25409W        W40540  11.688   6.510  15.923 -0.1305  0.0069 -0.3301
25410W        W40541   0.884   2.078   5.075 -0.2272  0.0162  0.0330
25411W        W40542  15.022  10.882   2.275  0.1792  0.0976 -0.2088
25412W        W40543   9.670  14.471   0.096  0.1232  0.1072  0.0734
25413W        W40544   8.352   4.887  15.679 -0.0386  0.1787  0.0014
25414W        W40545   7.158   5.432   1.893  0.0434  0.1866  0.1165
25415W        W40546   2.004   2.191  11.395 -0.1894  0.0182  0.1462
25416W        W40547   5.132  17.386   3.632 -0.0673  0.2356 -0.1632
25417W        W40548   6.312   0.759   3.096  0.3581  0.0763 -0.0537
25418W        W40549   7.648  16.106   0.748  0.2340  0.0123  0.0384
25419W        W40550  16.463  16.132   4.004 -0.1145 -0.2460  0.2118
25420W        W40551   7.368   2.550  14.181  0.0281 -0.2993  0.2938
25421W        W40552   6.150   8.883  15.952 -0.1282  0.4146  0.2156
25422W        W40553  11.755   5.613  14.851 -0.0836  0.0312  0.0454
25423W        W40554   3.942  13.229  14.975  0.2071 -0.1655  0.2935
25424W        W40555   7.929   3.698   1.086  0.1612 -0.1195  0.2390
25425W        W40556  13.951   5.815   3.134  0.0888 -0.2069  0.0117
25426W        W40557  16.148  14.412   6.163 -0.1128  0.2194  0.0483
25427W        W40558  15.538  15.205   3.713 -0.1183  0.2672  0.0314
25428W        W40559  12.662  16.069  14.618 -0.2510  0.0131  0.0048
25429W        W40560  12.975  11.669  15.487  0.1674 -0.2117 -0.1719
25430W        W40561   0.320  13.141  14.399  0.2523  0.2556 -0.3300
25431W        W40562  16.946  15.004   3.594 -0.1929 -0.1925  0.0960
25432W        W40563   1.000  16.059   3.859 -0.0889  0.1416  0.1622
25433W        W40564   2.424  17.020  15.352  0.2752  0.0626  0.1491
25434W        W40565  10.032  15.263   4.468 -0.4490  0.2039  0.2097
25435W        W40566  15.242   8.278  14.761 -0.2002 -0.1318  0.1309
25436W        W40567   6.637   6.068  14.535 -0.1715  0.0431  0.0454
25437W        W40568  10.073  15.542  11.731  0.1028 -0.2034  0.0788
25438W        W40569  11.319   7.753   2.562 -0.1153  0.5293 -0.1653
25439W        W40570   5.250  13.972  14.704  0.0480  0.2377 -0.1048
25440W        W40571  16.399  16.185  14.353 -0.1712 -0.4638 -0.2343
25441W        W40572   4.893   0.310  11.821 -0.1613 -0.0560  0.1248
25442W        W40573  17.338   7.835   1.302 -0.1487  0.2289  0.1722
25443W        W40574   4.749  16.653  12.159 -0.2792  0.4112 -0.2954
25444W        W40575  17.266   1.009   1.097 -0.2067 -0.2818  0.1964
25445W        W40576   4.383   3.904  12.011 -0.1353 -0.0413 -0.2171
25446W        W40577   6.266  12.538  12.142 -0.0361 -0.2514  0.2444
25447W        W40578   2.264   1.833  12.796 -0.1042 -0.0472 -0.0408
25448W        W40579   2.356  17.643   0.205  0.0410  0.5463 -0.3238
25449W        W40580   7.168  14.733   1.232 -0.1284 -0.0086 -0.2017
25450W        W40581   5.400   5.754   4.709 -0.1519  0.1852 -0.1181
25451W        W40582  11.799  15.308   3.205 -0.0405  0.0884  0.3845
25452W        W40583  13.296  16.573  13.286 -0.0928 -0.0275  0.1465
25453W        W40584   6.986  15.425   5.385 -0.0206  0.0153 -0.3263
25454W        W40585   3.474  11.207   0.403  0.3334 -0.1987  0.0548
25455W        W40586  10.123  10.923   2.382  0.0094  0.1146 -0.3924
25456W        W40587  10.931   7.120  13.028 -0.0268 -0.0147  0.1452
25457W        W40588   3.468   1.617  13.719 -0.0482 -0.1754  0.0308
25458W        W40589  11.106   9.326  15.792  0.1815  0.3187 -0.2291
25459W        W40590   5.987   5.962  16.046  0.1674 -0.2539  0.1113
25460W        W40591  17.288   5.928   4.840 -0.0178 -0.1335  0.2826
25461W        W40592   3.699   2.261  16.840 -0.0623 -0.2065 -0.3953
25462W        W40593   5.986  13.697  11.934 -0.0167 -0.1636  0.0531
25463W        W40594   9.401   6.295  14.998  0.0994  0.2111  0.2772
25464W        W40595   4.644   5.618  11.129 -0.1289  0.1066  0.1073
25465W        W40596   3.323  12.297   6.403  0.1632 -0.1074  0.0215
25466W        W40597   8.676  14.905  15.212  0.0506  0.1765 -0.1969
25467W        W40598   5.307   3.591   1.430  0.0162 -0.0738  0.2139
25468W        W40599   5.955   2.968  11.904 -0.2367 -0.1088 -0.0784
25469W        W40600  11.767   0.506   5.426  0.0250 -0.1674 -0.1049
25470W        W40601  10.302  12.401  15.573 -0.4391 -0.1891 -0.0995
25471W        W40602   6.313  14.488   6.399  0.1070  0.0496  0.1088
25472W        W40603   5.452   6.541  13.856 -0.2876  0.0183 -0.0655
25473W        W40604   3.517   0.918   4.892  0.4393 -0.0946 -0.0450
25474W        W40605  17.165   7.958  10.367 -0.0572 -0.2698  0.0754
25475W        W40606  17.395   0.867  11.073 -0.0950  0.1781 -0.3477
25476W        W40607  10.856  10.791  14.029  0.0998 -0.0364 -0.2309
25477W        W40608   4.376  15.236   4.488 -0.1993  0.1797  0.0328
25478W        W40609   9.784  10.502   3.164  0.0814 -0.2953  0.1479
25479W        W40610  13.930   6.905  12.182 -0.0479 -0.3171 -0.1611
25480W        W40611   6.247   6.934   5.395 -0.3140  0.0724  0.1050
25481W        W40612   0.559  11.629  12.547 -0.2827 -0.5067  0.1014
25482W        W40613  11.257  16.517   1.273 -0.0643  0.4369  0.1220
25483W        W40614   8.303   6.123   4.445  0.0020  0.0332 -0.1426
25484W        W40615  16.410  10.366   1.084 -0.1377  0.1645  0.0077
25485W        W40616  16.940   4.910   2.906 -0.0018  0.0233 -0.1025
25486W        W40617  13.235   3.630   4.433  0.2622 -0.1142 -0.0452
25487W        W40618  10.701  11.778   4.155 -0.2883 -0.1110 -0.1800
25488W        W40619  16.095  13.087   3.005 -0.1753 -0.2897  0.1215
25489W        W40620   8.949   0.422  16.425 -0.0389  0.1554  0.1147
25490W        W40621  17.390   0.342   0.216 -0.0584 -0.0944 -0.2289
25491W        W40622  11.373  13.230  16.751 -0.2553  0.1040  0.1215
25492W        W40623   7.279   9.121   5.748  0.3574 -0.1360 -0.1813
25493W        W40624   3.394   2.901  16.151 -0.3978  0.1605  0.1741
25494W        W40625   2.758  12.858   1.299 -0.0958  0.2990 -0.2383
25495W        W40626   4.243  13.226   5.799  0.0336  0.3268  0.0663
25496W        W40627  15.548   2.724  14.185  0.0695  0.0609  0.1223
25497W        W40628   0.864  11.770  14.192  0.0026  0.2445  0.1441
25498W        W40629  15.068   5.977  14.568 -0.1157  0.2574 -0.1077
25499W        W40630   1.893  14.159   5.666 -0.0643 -0.4073  0.2422
25500W        W40631   2.739  14.187  16.215  0.0569 -0.0654  0.1010
25501W        W40632   4.553   0.047  11.539 -0.1020 -0.2451  0.1012
25502W        W40633  15.497   5.007  11.630 -0.0565  0.2395  0.1610
25503W        W40634   4.346  13.840  15.666  0.1850  0.1395 -0.1555
25504W        W40635   5.987  14.727  15.292  0.0541  0.0350  0.1341
25505W        W40636   4.338   2.675   5.635  0.2703 -0.1002  0.1188
25506W        W40637   8.006   0.066  13.408  0.1819 -0.0262 -0.1993
25507W        W40638   2.042  11.599  12.131  0.1802  0.3682 -0.1603
25508W        W40639   4.324  15.633   0.524 -0.0489 -0.0161  0.3375
25509W        W40640  11.578  17.518   5.992  0.2000  0.2907 -0.2782
25510W        W40641   2.738   1.160  14.361  0.1069  0.0273 -0.0726
25511W        W40642   9.686  17.363  12.780  0.0202  0.0342 -0.1493
25512W        W40643  12.930  12.983  11.838  0.3822  0.1355 -0.1657
25513W        W40644   0.651  16.861  11.063 -0.2076  0.0748  0.2954
25514W        W40645  11.011  13.212   0.123  0.0760 -0.2168  0.0194
25515W        W40646   1.942  13.853   6.280 -0.0859  0.0928 -0.2531
25516W        W40647   5.900   7.993  11.580  0.2535  0.1480  0.1064
25517W        W40648  10.236   9.558   4.399 -0.0512 -0.0003  0.0812
25518W        W40649   1.017  14.837  12.090  0.0039  0.2284 -0.1365
25519W        W40650  12.229   9.598   2.273 -0.1072  0.0148 -0.0893
25520W        W40651  13.662   6.102  12.748  0.1652 -0.3025  0.0510
25521W        W40652   5.117  17.367   4.200 -0.0127  0.0582 -0.0565
25522W        W40653  14.049   1.844  11.951  0.1234  0.3360  0.2561
25523W        W40654  14.766   5.496  14.453 -0.2437 -0.0906  0.2951
25524W        W40655   8.717   0.627  14.832 -0.0554  0.1012 -0.1787
25525W        W40656   7.774   4.003   4.816 -0.2592  0.1763 -0.1565
25526W        W40657   3.207  14.260  11.783 -0.1024 -0.0711  0.1545
25527W        W40658   1.459   7.961  15.679  0.1567 -0.5847  0.1376
25528W        W40659   3.188   6.926   2.403 -0.2237 -0.2517  0.1490
25529W        W40660  10.839   7.469  14.760 -0.5096  0.0208 -0.2135
25530W        W40661   8.094  13.532  13.224  0.3145 -0.0287  0.0817
25531W        W40662   2.138  11.080  11.981  0.1119  0.0603  0.2197
25532W        W40663   2.113   0.697  13.100 -0.0340  0.0866  0.1306
25533W        W40664   6.057  11.480  12.921  0.1937 -0.1675 -0.2396
25534W        W40665   9.348   7.063   2.852 -0.1056  0.3307  0.2426
25535W        W40666   9.080   3.972   5.369  0.1628  0.0919  0.0680
25536W        W40667   3.988  12.314  11.783 -0.1032 -0.2298  0.0235
25537W        W40668   8.554  14.749   2.782 -0.0268 -0.0869 -0.0396
25538W        W40669   8.870   9.829  14.882  0.1345  0.2049  0.1184
25539W        W40670  10.437   2.103  11.852 -0.0677 -0.1536 -0.2052
25540W        W40671   8.526   0.821  15.590  0.0742 -0.1210 -0.1415
25541W        W40672   0.711  16.720  12.561  0.0174  0.2313  0.1642
25542W        W40673   1.587   3.649  14.127 -0.2340  0.0051 -0.1589
25543W        W40674   0.787   1.683   1.668  0.1108  0.2532  0.3711
25544W        W40675   5.063  11.380   1.448  0.2019  0.1263 -0.0491
25545W        W40676   6.992  17.417  12.601  0.0645 -0.0255 -0.1207
25546W        W40677  16.182   7.279  13.431 -0.0307 -0.0535  0.0896
25547W        W40678   3.644   1.450  12.037  0.0840 -0.1478  0.2803
25548W        W40679   5.967   7.281  11.413 -0.1627  0.1486 -0.0123
25549W        W40680   6.140  13.585  14.169 -0.1324 -0.0316 -0.0138
25550W        W40681   6.138  11.196  15.412  0.4517 -0.0254  0.1826
25551W        W40682   0.035  14.061  13.335 -0.1131 -0.0165 -0.0829
25552W        W40683   6.785   2.653   4.320 -0.2290 -0.1922 -0.2502
25553W        W40684   2.625  12.455   2.060 -0.0204  0.2993  0.2253
25554W        W40685  16.367   6.656  13.418  0.1931 -0.0630  0.1546
25555W        W40686  16.232   5.393   4.056 -0.4164  0.0851 -0.1722
25556W        W40687   0.431   7.129   1.785 -0.0433  0.1373  0.2166
25557W        W40688  15.395   4.704   4.813  0.2925 -0.2004 -0.1396
25558W        W40689  11.982   8.944   5.792  0.2595  0.1263 -0.0644
25559W        W40690   9.406   9.676   1.891 -0.2017 -0.0255  0.0162
25560W        W40691   6.319   5.078  14.622  0.2630  0.0814 -0.1397
25561W        W40692  12.966  13.834  13.527  0.0403  0.0062 -0.2012
25562W        W40693   5.293   1.607   4.910 -0.1789  0.2705  0.1979
25563W        W40694   8.968   0.579   2.815 -0.1733  0.1919  0.4175
25564W        W40695  16.716  10.526   4.676 -0.0559  0.2741  0.0348
25565W        W40696   5.226   4.634  11.656  0.0009  0.1596  0.0473
25566W        W40697   7.894  16.251   5.280  0.0309  0.0061  0.2506
25567W        W40698   7.335   4.519  13.237 -0.0330  0.1802 -0.1831
25568W        W40699  12.468  11.771  12.775  0.0922  0.1502 -0.2212
25569W        W40700   7.024  14.175   5.083  0.4635  0.0743  0.0245
25570W        W40701   2.455  15.493   5.337 -0.3084  0.2076  0.1254
25571W        W40702  12.220   7.495   4.540 -0.0098  0.1250 -0.1942
25572W        W40703   1.245   5.787  11.087  0.0146  0.0215  0.2603
25573W        W40704  16.330   0.564   3.481 -0.0058 -0.0862 -0.2602
25574W        W40705   8.151   0.526  16.082 -0.0446  0.0649  0.3091
25575W        W40706  10.890   0.834  11.910  0.0114  0.1534  0.1570
25576W        W40707  14.275   4.773   4.476 -0.2153 -0.1352 -0.0631
25577W        W40708   9.548  10.573  15.807  0.3023  0.0235  0.1317
25578W        W40709   3.185   3.583  12.621  0.2780 -0.1884 -0.0291
25579W        W40710   6.386   2.508   1.134  0.1813 -0.1293  0.3378
25580W        W40711  13.616   5.104  13.340  0.0197  0.0570 -0.3062
25581W        W40712   9.285   7.315  16.284  0.0288 -0.2266  0.0922
25582W        W40713  13.726   9.522  12.195 -0.1111 -0.0866 -0.0840
25583W        W40714   8.806  15.497   5.422 -0.0178  0.1497  0.0058
25584W        W40715   7.094   7.051  14.288 -0.0588 -0.1360 -0.2507
25585W        W40716   2.969   3.494   0.676 -0.1188 -0.0264 -0.1228
25586W        W40717   3.808   0.084  12.292 -0.2017 -0.4010  0.1388
25587W        W40718  16.960  16.552  13.375 -0.0005  0.2028 -0.0849
25588W        W40719  10.672   7.113  16.735  0.2517  0.0408 -0.0533
25589W        W40720   6.663  16.911  14.459 -0.0127 -0.2456  0.0645
25590W        W40721  16.598   8.196  11.932 -0.2335 -0.1938  0.0160
25591W        W40722   3.500  12.584  16.538 -0.1498  0.2471 -0.1300
25592W        W40723   8.843  16.402   3.379  0.3776 -0.1808 -0.2239
25593W        W40724  11.922  14.426  11.541  0.2231 -0.0694  0.0579
25594W        W40725  10.293   5.949  10.831 -0.0911  0.1631 -0.3678
25595W        W40726  11.538  13.176   4.112  0.3060 -0.1471 -0.1428
25596W        W40727   9.147  12.686   4.491  0.0856 -0.0025 -0.0467
25597W        W40728  15.247   5.783  11.085 -0.0658 -0.2353  0.4387
25598W        W40729  11.251   4.287  14.835 -0.1586 -0.0916 -0.0860
25599W        W40730  15.555  12.631   1.792 -0.2114  0.0227  0.2212
25600W        W40731  13.037   7.626  13.557  0.1624 -0.0399 -0.2882
25601W        W40732   4.752  11.980  15.537  0.0874  0.2342  0.0798
25602W        W40733   8.708   2.401  14.798  0.2581 -0.2650  0.0124
25603W        W40734  11.448  16.285   4.588 -0.0187  0.1826 -0.1850
25604W        W40735  17.119   0.945  15.541  0.3364 -0.1304  0.0296
25605W        W40736   5.809   5.494   4.251 -0.1180  0.5048  0.0791
25606W        W40737  17.711   3.964  11.438  0.1893  0.0016  0.1821
25607W        W40738   6.615   1.320   5.391 -0.0251 -0.1331 -0.2392
25608W        W40739   5.890   7.620   3.523 -0.0063 -0.1363  0.1146
25609W        W40740   7.731   5.024  16.483 -0.1785  0.0316 -0.0699
25610W        W40741  13.647   1.046   3.137 -0.3198 -0.3162  0.2234
25611W        W40742   6.583   9.990  12.945 -0.1361 -0.0176  0.1803
25612W        W40743   9.180  17.142   1.574 -0.0804 -0.1567 -0.1162
25613W        W40744  15.359   8.424  12.178  0.0611  0.0417  0.3185
25614W        W40745   0.295  17.528  14.343 -0.4540 -0.0491 -0.3525
25615W        W40746  13.628   8.913  13.973  0.2437 -0.1919  0.2867
25616W        W40747   4.761   5.108   2.991  0.0671 -0.2933 -0.0060
25617W        W40748  14.495  12.716   2.599  0.6129  0.1993 -0.4323
25618W        W40749   0.604  16.900   1.267  0.0994  0.2471 -0.1507
25619W        W40750   5.569  17.037  13.607 -0.1844  0.1288 -0.0351
25620W        W40751   3.309  15.557   4.604  0.1261 -0.1146  0.1005
25621W        W40752   4.114   4.564  13.367 -0.2383  0.1122 -0.1215
25622W        W40753  12.400  12.970  14.838 -0.0860  0.1557 -0.0916
25623W        W40754   9.292  12.963   4.059  0.1005  0.1000  0.2848
25624W        W40755   9.791  10.180   1.356 -0.2298 -0.4352  0.0446
25625W        W40756   8.346   1.345  14.949 -0.0592  0.0486  0.0561
25626W        W40757   4.265  14.095  12.789  0.0212  0.3261 -0.3606
25627W        W40758  10.554  17.622  16.063 -0.0026 -0.1380 -0.1730
25628W        W40759   3.939   6.767  10.633 -0.0664  0.1198 -0.0397
25629W        W40760   6.327  12.624  15.834  0.0542  0.1895  0.0772
25630W        W40761  17.471  16.357  16.000 -0.0582  0.0539 -0.2151
25631W        W40762   0.790  13.512  16.774  0.0274  0.0915  0.3332
25632W        W40763   3.758  17.332   0.474 -0.2590  0.0628 -0.0162
25633W        W40764   5.907   8.015   2.897 -0.0514  0.1012 -0.2329
25634W        W40765   5.981   2.165   3.333  0.0611  0.0741  0.0839
25635W        W40766   6.856   5.596  16.511  0.2005  0.1185 -0.1262
25636W        W40767  16.320  12.563  12.217  0.3265  0.1606 -0.0729
25637W        W40768   7.322   9.868   1.330  0.0490 -0.2407 -0.1826
25638W        W40769   5.742   6.897   2.576  0.1203  0.3229 -0.1465
25639W        W40770   7.728  12.656  12.914  0.0475 -0.1279  0.1294
25640W        W40771  13.752  11.610   5.370 -0.1453  0.0582  0.1485
25641W        W40772  12.013   2.671  14.789  0.2142  0.1150  0.0560
25642W        W40773  11.510   5.870   0.191  0.4420 -0.3058  0.1699
25643W        W40774  11.736   6.366  16.858 -0.0533 -0.0338 -0.0791
25644W        W40775  15.344   7.813  14.863  0.3031 -0.2869 -0.0901
25645W        W40776   2.216   5.332  13.537  0.1162 -0.1326  0.2652
25646W        W40777  16.068   7.954  12.636  0.0970  0.0118  0.3951
25647W        W40778  15.649  13.984  13.285 -0.1313  0.2529  0.0837
25648W        W40779   8.305   2.173  15.149 -0.3114 -0.1293 -0.3466
25649W        W40780   5.093   0.933  14.571  0.0279  0.3239  0.1578
25650W        W40781   5.885   1.420   0.087  0.0380  0.3285  0.1923
25651W        W40782   4.922   3.004   0.141 -0.1101  0.2228 -0.0310
25652W        W40783  13.761   1.484  15.123  0.0859 -0.0184  0.0348
25653W        W40784   1.694   6.512   0.886 -0.0726  0.1520  0.0137
25654W        W40785  10.917  12.882   0.620  0.0073 -0.1788  0.0688
25655W        W40786  10.208  12.697   6.274  0.0027  0.0708 -0.2640
25656W        W40787  17.353  16.309   3.666  0.0456 -0.0934  0.0747
25657W        W40788  13.120  16.689   5.252  0.1803 -0.0500  0.1873
25658W        W40789   6.514  15.014  13.233 -0.1296  0.0809  0.1422
25659W        W40790  12.497  16.461   0.950 -0.4023 -0.0150 -0.1485
25660W        W40791  15.416  17.666   2.641  0.0808 -0.0942 -0.4072
25661W        W40792  17.610   2.370  16.199  0.1610 -0.2774  0.0475
25662W        W40793   1.414   2.112  16.432 -0.3160  0.2367 -0.0633
25663W        W40794  13.868   2.063  13.410  0.0492  0.3048  0.0235
25664W        W40795   5.411   7.538  15.731 -0.0530 -0.1588  0.0271
25665W        W40796   9.608  15.756  12.620 -0.2373  0.0082  0.0983
25666W        W40797  13.196   6.493   4.135 -0.1513  0.0978  0.1622
25667W        W40798   6.717   3.535   0.652 -0.2830 -0.1784 -0.3505
25668W        W40799   7.410   1.813   2.837  0.0895 -0.0078  0.1454
25669W        W40800   0.436  13.484  14.979  0.1911  0.1325 -0.0967
25670W        W40801  17.110   0.680   5.098  0.0470  0.1887  0.1461
25671W        W40802  15.611  14.767  14.131  0.1372  0.3720 -0.1203
25672W        W40803   6.450   1.356  15.607  0.1107 -0.2903  0.1103
25673W        W40804   9.179   7.542   3.004 -0.2114 -0.3093  0.0053
25674W        W40805  15.859   1.890   4.495  0.2780  0.2313  0.1274
25675W        W40806  11.128  12.584   4.677 -0.2443  0.3523  0.0347
25676W        W40807   5.231   5.419  14.998  0.1049  0.0002  0.1733
25677W        W40808   7.238   1.166  14.156  0.0239 -0.1906  0.1481
25678W        W40809  11.678  15.162   2.641  0.1226 -0.0130 -0.3160
25679W        W40810  16.759  12.631   3.769 -0.1889 -0.1618 -0.1777
25680W        W40811   5.611  11.119  12.933 -0.0915  0.0005  0.0163
25681W        W40812  16.987   4.633  14.603 -0.0101 -0.1221  0.0982
25682W        W40813  13.606  12.858  15.753  0.0819 -0.0545  0.2238
25683W        W40814  16.782  13.394   3.725  0.1737  0.0347  0.0978
25684W        W40815   4.013   3.020  12.777  0.2977  0.1048 -0.0623
25685W        W40816   0.640  13.406   3.313 -0.0093 -0.1410  0.1274
25686W        W40817   8.681   2.618  13.353  0.0087 -0.1355  0.0028
25687W        W40818  14.316   0.501  15.740 -0.0472 -0.1376 -0.2261
25688W        W40819   7.377   2.278  13.753 -0.0446  0.0614  0.2140
25689W        W40820  11.334  15.253  16.405  0.1823  0.3542  0.0861
25690W        W40821   3.261   2.620   1.188  0.0740 -0.3511 -0.1221
25691W        W40822   8.012   5.755   4.445  0.0765 -0.3384  0.2410
25692W        W40823   3.267   2.601   6.344  0.0288  0.2304 -0.1789
25693W        W40824   2.077  15.685   1.686  0.4100  0.0301  0.1081
25694W        W40825   0.347  13.893  14.540 -0.3712  0.4445  0.2488
25695W        W40826   4.644   1.553   4.085  0.0328 -0.0952  0.2610
25696W        W40827   0.615   9.082   2.296  0.0481  0.1024 -0.2726
25697W        W40828  10.243   8.997   4.548  0.5019  0.1762 -0.0324
25698W        W40829   0.679  17.364   2.955  0.1841  0.1191  0.4119
25699W        W40830   2.127   1.623  16.885  0.0659  0.3325  0.0650
25700W        W40831  10.256  16.918   1.865  0.0357 -0.0773  0.0931
25701W        W40832   8.033  12.803   1.498  0.0421 -0.1305 -0.1021
25702W        W40833   7.406   2.691  16.040  0.2224  0.0255  0.2806
25703W        W40834   4.421  14.071   5.118 -0.0831  0.3261 -0.1417
25704W        W40835   3.616  11.439   1.879  0.2577  0.0515  0.2071
25705W        W40836  16.285   2.717   2.219 -0.0640 -0.0254 -0.2148
25706W        W40837  14.119  15.572   0.902  0.1042 -0.0233 -0.1475
25707W        W40838  14.991  15.480  16.803 -0.0752  0.0779  0.2089
25708W        W40839   2.290  17.236   1.495 -0.1681 -0.1985  0.0064
25709W        W40840   1.425  11.680   3.469 -0.0955  0.1277 -0.2054
25710W        W40841  11.382   5.120  15.316 -0.1669 -0.5520 -0.0750
25711W        W40842   0.445   9.038   1.824  0.0096  0.0953 -0.4531
25712W        W40843   9.336   9.131   3.487  0.1303 -0.0463 -0.2304
25713W        W40844   0.019   6.181  13.740  0.1257 -0.1816  0.0087
25714W        W40845  17.672  13.402  14.644  0.1434 -0.0015  0.3365
25715W        W40846   4.926   1.666  12.994  0.3250  0.1117 -0.2005
25716W        W40847   0.570  12.907   2.021 -0.1227 -0.0831 -0.2743
25717W        W40848  12.201  11.116   0.727 -0.2666 -0.0523 -0.0476
25718W        W40849  16.838   5.688   3.544 -0.1646 -0.1141  0.0654
25719W        W40850   5.628  11.431   3.516 -0.0913 -0.0626 -0.0418
25720W        W40851   6.564   9.930   0.254 -0.2044 -0.1100  0.1428
25721W        W40852  13.956   9.256  16.233  0.1271 -0.0313  0.2545
25722W        W40853  11.225  14.297  13.934 -0.1424  0.2808  0.0215
25723W        W40854  13.085   2.782  15.600 -0.1782  0.0512  0.0299
25724W        W40855   2.943   2.815  15.869 -0.0977 -0.2268 -0.2314
25725W        W40856   2.829   9.501   2.664  0.3841 -0.1368  0.0533
25726W        W40857   0.420  13.609  12.722  0.0731 -0.1878 -0.1740
25727W        W40858   1.210   0.080   0.928 -0.1981 -0.0872 -0.2955
25728W        W40859  14.508   2.633  11.889 -0.0843 -0.2348  0.1206
25729W        W40860   5.404   3.554  16.326  0.0364  0.2532  0.1034
25730W        W40861   8.836  13.241  14.987 -0.6189 -0.0767 -0.2169
25731W        W40862  16.645   7.068  13.236  0.0142 -0.1669  0.2812
25732W        W40863   8.467   1.898  16.477  0.1423 -0.2613 -0.1729
25733W        W40864   2.227  13.032   3.267 -0.1187  0.2650 -0.2656
25734W        W40865  16.866  15.742  15.026 -0.0231 -0.0941 -0.0046
25735W        W40866  16.300   5.471  11.594 -0.0269  0.2278  0.1633
25736W        W40867  13.806   0.273   1.525  0.1614  0.0152  0.0416
25737W        W40868   3.779  17.423   5.861  0.0978 -0.2957  0.0008
25738W        W40869   0.071   8.883  11.897 -0.0955  0.1793  0.0090
25739W        W40870   8.233   3.397   3.343  0.0787  0.2327  0.3947
25740W        W40871  14.632  10.366   3.937 -0.3226 -0.0202 -0.0677
25741W        W40872   5.793   5.362  12.437  0.3078  0.1511  0.1034
25742W        W40873   1.503   2.842   3.132  0.2165 -0.0085  0.1601
25743W        W40874  13.556  11.944   1.765  0.2980  0.2903 -0.1173
25744W        W40875   9.104   8.395   2.759 -0.1972  0.0376  0.0736
25745W        W40876   4.895   4.127   3.823 -0.0137  0.1062  0.0941
25746W        W40877   4.730   9.602   1.197  0.0350  0.1492  0.1084
25747W        W40878  15.526   4.113  13.277 -0.0071 -0.1168 -0.1647
25748W        W40879  12.820   4.407  15.595 -0.0519  0.2577  0.0657
25749W        W40880   8.518   8.204   0.556 -0.1177  0.2856  0.1049
25750W        W40881  12.213  13.364  15.535 -0.1600 -0.0154  0.0993
25751W        W40882  11.678   5.250  13.601 -0.0039 -0.0348 -0.1387
25752W        W40883   8.891   2.136   1.026 -0.0984  0.1662  0.0235
25753W        W40884   3.490  15.798  14.991  0.0937  0.2984  0.2130
25754W        W40885   4.732  10.304  14.479  0.1629  0.0519  0.0601
25755W        W40886   5.716  17.449   1.640 -0.1894 -0.1369  0.0592
25756W        W40887   1.145  10.570   2.921 -0.0217  0.0448 -0.0164
25757W        W40888  16.042  11.313   3.014  0.0245 -0.2031 -0.0110
25758W        W40889   6.738   8.695  13.754 -0.2046 -0.0393  0.2078
25759W        W40890  13.302  10.450  16.397 -0.2264  0.2915 -0.3061
25760W        W40891   4.663   7.765   0.398 -0.0492  0.0262 -0.0808
25761W        W40892  15.320  12.750  11.024 -0.1985  0.0266  0.0075
25762W        W40893  14.142  14.904   5.380 -0.0655  0.3094 -0.0280
25763W        W40894   8.710   7.558  13.464 -0.2306  0.1436 -0.3224
25764W        W40895  14.549  17.496  12.384  0.3661  0.2898 -0.0436
25765W        W40896  10.506  13.853   5.577 -0.1563 -0.1047 -0.3099
25766W        W40897  17.701  11.746   3.923  0.0837 -0.1529 -0.0734
25767W        W40898  12.503  16.379   0.449  0.1125  0.0903 -0.1337
25768W        W40899  13.475  16.769   1.822 -0.0542 -0.0883 -0.1229
25769W        W40900   6.427  14.370   2.563 -0.1782  0.0801 -0.1718
25770W        W40901   7.365   3.075  16.931 -0.2369  0.0125 -0.2163
25771W        W40902   5.941  13.393   5.260  0.3389 -0.1436 -0.0178
25772W        W40903  14.144   7.596   2.078  0.0484 -0.0266 -0.0550
25773W        W40904   5.479  10.944  11.816 -0.3681  0.0701 -0.2138
25774W        W40905  15.317   1.390   5.547 -0.1259  0.1574  0.1973
25775W        W40906  14.758  13.011   1.637 -0.2767  0.0938 -0.1341
25776W        W40907   9.996   9.383   1.644  0.0014  0.0848  0.0084
25777W        W40908  16.197  14.101   0.240 -0.2229 -0.1881 -0.1571
25778W        W40909   4.531  10.385  13.152  0.3028 -0.4003  0.1385
25779W        W40910  13.253   0.157   1.994 -0.1708  0.0088  0.1543
25780W        W40911   1.930   5.110   2.925  0.2750  0.0482 -0.0935
25781W        W40912  16.576  13.202  13.533 -0.0791  0.1501 -0.1236
25782W        W40913  16.755  15.905   3.449 -0.1354  0.1117  0.0564
25783W        W40914   1.520   8.166  16.839 -0.2665 -0.0455  0.0406
25784W        W40915   8.498  12.348  14.366 -0.1918  0.1755 -0.1940
25785W        W40916  15.607   6.533  11.412 -0.1622  0.0786 -0.0409
25786W        W40917  14.081   0.559  13.263 -0.0403 -0.1636 -0.0175
25787W        W40918   0.191   0.167   2.305 -0.1514 -0.2235  0.1027
25788W        W40919   0.643   6.839   0.546 -0.0146  0.0936  0.1290
25789W        W40920   5.986   5.471  13.782 -0.2283  0.1848 -0.2268
25790W        W40921   9.234   7.636   0.118  0.1088 -0.0431  0.1600
25791W        W40922   2.447   6.807   1.794 -0.0988  0.0603  0.0028
25792W        W40923   6.693   9.874   2.389  0.1014  0.3124 -0.3008
25793W        W40924  14.730  10.824  15.352  0.1224 -0.1549 -0.1006
25794W        W40925  11.635   6.974   3.075  0.0627  0.0394  0.1766
25795W        W40926   1.442  15.163  12.010 -0.3161  0.1461 -0.2625
25796W        W40927  10.891  14.404   5.013 -0.1019 -0.0640 -0.3122
25797W        W40928  12.940  14.653  16.763  0.0653 -0.3112  0.0295
25798W        W40929   9.747   1.785   5.757 -0.0324  0.2499 -0.2919
25799W        W40930  10.468   6.190  15.048  0.0732 -0.1774  0.1013
25800W        W40931   6.417   9.916   3.798 -0.0216  0.3560  0.3589
25801W        W40932  12.501  17.216  10.510  0.1992  0.0308 -0.0540
25802W        W40933  17.168  10.016  15.454 -0.2227 -0.1731 -0.2807
25803W        W40934  17.157   5.880   0.252 -0.0845 -0.0291 -0.0892
25804W        W40935   8.687  11.387   4.520  0.1081  0.1561 -0.0772
25805W        W40936  15.572   0.891  14.690 -0.1816 -0.0333  0.0730
25806W        W40937   0.434   0.735   3.448 -0.4281  0.1686  0.0772
25807W        W40938  12.557  13.883   0.911 -0.1537 -0.1567 -0.0110
25808W        W40939   5.938  13.639   2.299  0.1504 -0.4484 -0.0889
25809W        W40940   7.239   4.373   0.052  0.0312  0.1462 -0.2402
25810W        W40941  17.035   2.919   1.268  0.0046  0.0506  0.0720
25811W        W40942  14.104  16.248   1.716  0.0777 -0.2202  0.2149
25812W        W40943   2.809   5.681   1.214  0.1788 -0.2125 -0.1041
25813W        W40944   9.722  10.050   6.180 -0.0737  0.0177 -0.1388
25814W        W40945  15.595   9.272  13.050  0.2104 -0.0427  0.0723
25815W        W40946   4.344   0.897   0.848 -0.1074 -0.2577 -0.0603
25816W        W40947   4.292   9.539   3.908 -0.0939  0.2132  0.1060
25817W        W40948  10.440  16.281  13.748 -0.0673 -0.1291  0.1145
25818W        W40949  11.933   0.432   3.614 -0.0988 -0.1645 -0.0038
25819W        W40950  11.988   4.160   4.451 -0.0997  0.1038 -0.0573
25820W        W40951   6.385   9.056   3.620 -0.2085  0.0152  0.4399
25821W        W40952   2.563  11.004  11.671 -0.0201  0.1573 -0.0310
25822W        W40953  14.552  15.699  14.470  0.2770 -0.2633 -0.2092
25823W        W40954  12.391   1.555   2.855 -0.0604 -0.0352  0.1217
25824W        W40955  11.645   5.586  16.247 -0.1648  0.2909 -0.1205
25825W        W40956   9.900  12.162   3.561  0.0830  0.0833 -0.0204
25826W        W40957  16.567   5.135  13.883 -0.0530  0.0319  0.1018
25827W        W40958   8.184   7.735  15.831  0.2850 -0.0164  0.0864
25828W        W40959   6.588   3.382  15.738  0.3136 -0.1582 -0.1060
25829W        W40960  13.587   4.584   4.978  0.1693  0.1994 -0.0359
25830W        W40961   7.731  12.179   5.527  0.2498  0.0345  0.2945
25831W        W40962   9.716   7.008   2.478  0.2884 -0.2445 -0.2910
25832W        W40963  14.791   0.726  12.513  0.1766 -0.2087  0.0203
25833W        W40964   3.670  11.505  11.475  0.2762 -0.1277  0.3836
25834W        W40965  13.031   0.355  12.793 -0.0327  0.0527  0.1540
25835W        W40966   4.154  17.569  14.884 -0.3167 -0.1158  0.0894
25836W        W40967  11.716  11.182  12.988  0.1365  0.1651  0.3559
25837W        W40968   7.421  13.003   2.335  0.3214  0.1725  0.5140
25838W        W40969   0.972  17.455   4.747 -0.1592  0.0979  0.0586
25839W        W40970   4.594   4.453  13.435  0.1507  0.0089  0.1534
25840W        W40971  17.316   5.404   0.419 -0.0611  0.2668 -0.0977
25841W        W40972  16.720  13.905  14.223  0.4627 -0.3158 -0.0867
25842W        W40973   0.684   7.676  15.038  0.0509 -0.2368  0.0659
25843W        W40974   8.468  12.797  13.551  0.0045  0.2107 -0.0515
25844W        W40975   5.562  17.394  14.872  0.0065 -0.1208 -0.0363
25845W        W40976  10.927  15.311   1.733 -0.2872 -0.0104 -0.0927
25846W        W40977  15.305   2.861  16.252  0.3112 -0.2205 -0.0890
25847W        W40978   7.548   3.249  12.812  0.1814  0.0613  0.1573
25848W        W40979   8.818   2.728   5.680 -0.3449 -0.0224  0.1710
25849W        W40980   6.537  10.692   2.127 -0.0451 -0.0371  0.1014
25850W        W40981   7.517   8.891  11.790  0.1576  0.0775 -0.3541
25851W        W40982  17.352  17.059   0.001 -0.0291 -0.2073  0.1516
25852W        W40983   0.035   5.665  11.760  0.2070  0.0791 -0.0837
25853W        W40984   6.563  12.125  14.331 -0.2151 -0.3985 -0.2402
25854W        W40985   7.217  16.935   3.251  0.1567 -0.0337 -0.0605
25855W        W40986  10.497   6.174   6.097  0.2975  0.1111 -0.0488
25856W        W40987   7.810  16.055  16.426 -0.1219  0.0335 -0.0590
25857W        W40988   5.625   1.302   1.435  0.0048 -0.2068 -0.0458
25858W        W40989   9.675  11.369  14.333  0.1905 -0.2481 -0.3562
25859W        W40990   9.864  10.005  15.181  0.0291 -0.1471  0.3346
25860W        W40991  17.188   3.341   0.828 -0.0237 -0.3046  0.0209
25861W        W40992   3.330   3.502  11.703 -0.1414 -0.1039  0.2066
25862W        W40993   8.192  12.893   4.364  0.3449 -0.0296  0.1265
25863W        W40994  16.438  11.896  12.358  0.3939 -0.3356  0.1226
25864W        W40995   7.983   3.134  11.594 -0.1646 -0.4448 -0.0790
25865W        W40996  14.074   1.904   4.124  0.4905 -0.0159  0.0105
25866W        W40997   7.011  10.368   5.824 -0.2078  0.0909 -0.2978
25867W        W40998   5.803  13.545  13.287  0.0893  0.1926  0.1257
25868W        W40999   2.874   1.099  11.183  0.0674 -0.4844  0.1209
25869W        W41000  14.888  10.959   4.023 -0.2131 -0.1760 -0.2073
25870W        W41001   4.131  12.464  11.337 -0.1794  0.0486 -0.0089
25871W        W41002  12.975  12.369  16.222  0.0221  0.0275 -0.0218
25872W        W41003   8.892  12.310   4.257  0.2619 -0.1266  0.0760
25873W        W41004  14.031  17.436   2.611 -0.2880 -0.2336  0.0188
25874W        W41005   3.169  16.117   2.766  0.1989 -0.1544 -0.1874
25875W        W41006   6.971   5.811  11.814  0.1481 -0.2082  0.3142
25876W        W41007  12.544   0.231   5.673 -0.1125  0.0616 -0.0953
25877W        W41008   6.967   3.334   4.671 -0.2600 -0.1384  0.3946
25878W        W41009   1.829   1.986  16.671  0.2624 -0.2371  0.1033
25879W        W41010   1.204   2.028  11.747  0.1748 -0.0530  0.0147
25880W        W41011   0.810   9.395   1.938 -0.2390 -0.0804 -0.0441
25881W        W41012   9.004  11.592   0.238  0.0373  0.4999  0.1146
25882W        W41013  10.143   2.523  15.340 -0.2221 -0.0092 -0.0390
25883W        W41014  17.239  12.932   6.549  0.3828  0.1395  0.3078
25884W        W41015   4.797   9.444  11.302  0.2568 -0.0597 -0.1083
25885W        W41016   2.699   7.787   1.368 -0.2081 -0.2237  0.0050
25886W        W41017  11.772   7.689  12.058 -0.4908  0.1918  0.1460
25887W        W41018   7.490  14.551  13.840 -0.0620  0.2138 -0.0416
25888W        W41019  16.334  11.166  14.407  0.1115 -0.1915  0.1053
25889W        W41020   0.920  10.436   0.737  0.6944 -0.0644 -0.1185
25890W        W41021   4.103  11.968   5.231 -0.0738  0.3307 -0.0703
25891W        W41022  15.805   0.394   0.306 -0.3083  0.3216  0.1850
25892W        W41023   3.845  11.931   1.910 -0.1150  0.3504  0.3208
25893W        W41024  12.840  11.113  12.202 -0.0472 -0.1539  0.0674
25894W        W41025   7.191  14.947   2.371  0.0263 -0.0509  0.0116
25895W        W41026   7.900   2.957  13.007 -0.0896 -0.0634  0.0635
25896W        W41027  13.255   0.292   1.507 -0.3953 -0.1438  0.0321
25897W        W41028  14.733  13.767  13.067  0.0268 -0.3456 -0.0953
25898W        W41029   3.714  14.728   0.172  0.0673 -0.2523 -0.1513
25899W        W41030  12.256   9.313  14.451 -0.0666  0.0253  0.2812
25900W        W41031   9.519  10.820   0.630 -0.5640 -0.2778 -0.1295
25901W        W41032  13.095  13.257   4.148  0.1075  0.3319  0.0903
25902W        W41033   4.521   0.337   1.716  0.2796 -0.0817 -0.0809
25903W        W41034  11.145   4.866   2.226  0.3013 -0.0754  0.1553
25904W        W41035   9.473   6.929  15.937 -0.0858 -0.1127 -0.1727
25905W        W41036  11.481   3.866  12.952  0.1431 -0.0954 -0.1365
25906W        W41037   7.208  10.004   2.611  0.1850  0.2429 -0.0342
25907W        W41038   7.465  11.926   0.615  0.3331  0.0890 -0.2719
25908W        W41039  14.363   7.026   4.973  0.1616  0.0528 -0.0891
25909W        W41040   4.349  17.075   2.822  0.0524  0.0979  0.1363
25910W        W41041  15.675  10.937  16.800 -0.2523 -0.2311  0.0659
25911W        W41042  15.244   2.849  14.602 -0.0582 -0.0829 -0.1111
25912W        W41043   7.380  10.020  12.554 -0.1769 -0.0253 -0.3701
25913W        W41044   4.312   1.628  15.464  0.2244 -0.1007  0.3246
25914W        W41045   0.338   8.740   0.691  0.0549 -0.1183  0.0209
25915W        W41046  12.221   4.455   2.093  0.1132 -0.1409 -0.1987
25916W        W41047   5.621  12.721  16.339  0.0335  0.0365  0.1028
25917W        W41048   0.168   9.496   4.795  0.3685  0.1627  0.0763
25918W        W41049  16.186  12.220   2.564 -0.0740 -0.1454 -0.0234
25919W        W41050  12.807   5.099  15.488  0.1102 -0.2164  0.0041
25920W        W41051  11.941   8.140  12.228 -0.1449 -0.0626  0.1528
25921W        W41052   9.926   7.150  16.910  0.3360 -0.2345  0.4213
25922W        W41053   5.096  13.438   3.961  0.1618 -0.1414  0.0114
25923W        W41054   1.920  13.983   3.236 -0.0157 -0.1629  0.0119
25924W        W41055   7.000  14.705   2.838  0.0828 -0.0132  0.1344
25925W        W41056   9.007  14.698   5.805  0.0994 -0.1115  0.2936
25926W        W41057   5.467   2.312  14.705 -0.1083 -0.0089  0.0937
25927W        W41058   9.751  13.351   2.742  0.0287 -0.4522 -0.3769
25928W        W41059  16.555  11.256   1.769  0.1204 -0.1563 -0.1177
25929W        W41060  12.313  12.863  14.343  0.3722  0.1944  0.1578
25930W        W41061   2.006  11.307   0.206  0.0716  0.0641  0.0160
25931W        W41062   8.107  11.094   4.508  0.2768 -0.1294 -0.0281
25932W        W41063  17.189   7.568  11.558  0.0094  0.1384  0.1308
25933W        W41064   5.622   7.487   3.926 -0.1530 -0.0464  0.2697
25934W        W41065   8.821   1.901  13.492  0.1074  0.2664 -0.0450
25935W        W41066   2.921   2.822  12.270 -0.1657 -0.0492  0.0172
25936W        W41067   6.269   5.306   4.607  0.3906 -0.0439  0.2011
25937W        W41068   9.742   6.480   1.646 -0.2364  0.3610 -0.1501
25938W        W41069  11.151  11.880  12.860  0.0071  0.2877  0.1252
25939W        W41070  14.950   9.649  14.933  0.0378  0.0456  0.1140
25940W        W41071   2.667   7.439   4.484 -0.0458  0.0627  0.1688
25941W        W41072  11.503   2.051   7.001 -0.0921  0.2247 -0.1524
25942W        W41073   0.679  12.200  14.474 -0.0437 -0.0861 -0.2109
25943W        W41074   0.269  10.650  15.897 -0.0869  0.0745  0.2609
25944W        W41075   6.361   2.915   1.449  0.0022  0.1414  0.2243
25945W        W41076   8.567  13.674   1.875  0.2284  0.0339  0.2606
25946W        W41077   4.982   3.438  16.576  0.0463  0.0098  0.5547
25947W        W41078   4.211   8.660  16.503  0.0950 -0.2148 -0.2339
25948W        W41079   1.930  10.929   4.997 -0.2233  0.0548 -0.3245
25949W        W41080   6.255  10.839  12.425 -0.0162 -0.0171 -0.3600
25950W        W41081  14.644  14.419   1.006 -0.1739 -0.2103 -0.2395
25951W        W41082  14.791  15.431   1.429  0.2286 -0.0256  0.1923
25952W        W41083  17.348  11.256  16.198  0.2497 -0.0522  0.0979
25953W        W41084   0.268   9.450   2.068  0.0903  0.0759  0.0387
25954W        W41085   3.640  16.555   3.659 -0.1465 -0.0259 -0.1589
25955W        W41086  10.593   0.936   3.227 -0.3239  0.2182 -0.2616
25956W        W41087   1.542   6.628  11.544  0.0967 -0.0245 -0.0207
25957W        W41088  11.588   6.376  11.428  0.2242 -0.1870  0.1945
25958W        W41089  17.357  11.229  11.321 -0.1132 -0.0698 -0.0368
25959W        W41090  17.446   6.998  13.695  0.2877  0.0862  0.1238
25960W        W41091  16.229  13.795   3.983  0.2081  0.1773  0.0153
25961W        W41092   4.181  13.673   2.852 -0.1133 -0.2416  0.4059
25962W        W41093  16.792  12.167  13.301  0.1983  0.2306 -0.1019
25963W        W41094   2.179  16.692   0.809 -0.0928  0.2625  0.2420
25964W        W41095  12.456  14.673  13.865  0.0552  0.2322  0.0267
25965W        W41096   1.411  14.414  16.229 -0.0230  0.0036 -0.3050
25966W        W41097   2.561  11.021  12.222 -0.0100  0.1055 -0.1012
25967W        W41098  12.447   3.567   1.378  0.1473  0.0182 -0.1128
25968W        W41099  12.568   6.336  13.451  0.0252 -0.0920 -0.2342
25969W        W41100   5.883  17.363   5.545  0.0664 -0.0000  0.0949
25970W        W41101  12.661  16.712  11.256  0.0173  0.2848  0.1893
25971W        W41102   8.841   7.154   3.860  0.0629 -0.0424  0.0456
25972W        W41103  12.647   8.418  15.708 -0.1163 -0.1720  0.0500
25973W        W41104  17.124   4.449  12.611  0.1731  0.0732 -0.0246
25974W        W41105  17.464   9.430  16.221  0.3228 -0.1686 -0.0771
25975W        W41106   6.088  17.594   3.973 -0.0017 -0.3267 -0.1162
25976W        W41107  12.166   2.339   3.272 -0.1429  0.0256  0.2960
25977W        W41108  15.683  13.459  16.698  0.3000  0.1130 -0.3062
25978W        W41109   9.137   0.991   4.213  0.0849 -0.0990  0.0363
25979W        W41110   6.835   0.906  16.096  0.0740 -0.0056 -0.0463
25980W        W41111   8.794  11.656   2.018 -0.0256 -0.2086  0.0595
25981W        W41112   3.588  12.468   0.355  0.2023  0.0397 -0.2789
25982W        W41113  16.518  11.886  12.845 -0.0771 -0.2365  0.1284
25983W        W41114   9.947   4.722   0.070  0.3721 -0.0623  0.0671
25984W        W41115   2.170   5.490   1.945  0.0082 -0.1705  0.0614
25985W        W41116   0.761   5.648  16.251  0.1470  0.2529 -0.2731
25986W        W41117   8.053  15.938  13.467 -0.0889 -0.3589 -0.1832
25987W        W41118  16.402   1.759  16.525 -0.2287  0.1392 -0.0638
25988W        W41119  10.302  14.624   0.850  0.0614  0.0488 -0.0960
25989W        W41120  14.984  17.514   0.125  0.0762  0.2545 -0.0191
25990W        W41121   5.035   3.774  14.569  0.0775 -0.0940 -0.0891
25991W        W41122  14.146   4.962   2.971 -0.1286 -0.0576  0.1275
25992W        W41123   4.044   1.608   0.284  0.0538  0.2011 -0.3032
25993W        W41124   9.710   0.819   6.194  0.1140 -0.3135 -0.1855
25994W        W41125  15.417   1.217   0.643 -0.2363  0.1040  0.0112
25995W        W41126  17.711   1.751  12.412  0.0025 -0.1304 -0.2792
25996W        W41127   5.904   9.817   6.126 -0.1830 -0.1940  0.2384
25997W        W41128   1.822   7.125  16.101  0.0587 -0.2709 -0.1924
25998W        W41129  17.698   5.618   4.910 -0.5224 -0.1168 -0.0058
25999W        W41130   5.776  11.676  15.238  0.3454 -0.0932 -0.0391
26000W        W41131  13.471  13.734  14.400  0.0414 -0.1813  0.1363
26001W        W41132   8.110  10.446   2.464 -0.0687 -0.0806 -0.1517
26002W        W41133   5.023   3.711   3.218  0.2511 -0.0877  0.0668
26003W        W41134   6.869   7.889  16.506  0.2969  0.0968 -0.1228
26004W        W41135   6.038   8.476  11.478  0.0102 -0.4921 -0.4025
26005W        W41136   8.407  17.246  16.615  0.4444 -0.1096 -0.0262
26006W        W41137  14.084   0.904  16.114 -0.0901  0.1087  0.2208
26007W        W41138  17.153  17.322  14.950 -0.0020 -0.4954  0.0865
26008W        W41139   5.581  17.126  13.059  0.1286 -0.0707 -0.1606
26009W        W41140   9.488  10.657  11.178 -0.1246  0.0706  0.1434
26010W        W41141  13.086   4.538   4.958 -0.0615  0.2254  0.0634
26011W        W41142   9.899  13.566   1.556 -0.0791  0.0331  0.0783
26012W        W41143   4.695  16.518   1.392  0.0463  0.1654 -0.1000
26013W        W41144  13.183   0.741   4.410 -0.2538  0.0584  0.0340
26014W        W41145  15.164  17.278  13.663  0.0025 -0.1002  0.1262
26015W        W41146  10.800  15.869   0.675 -0.2022 -0.0168  0.0150
26016W        W41147  15.740   0.632   3.907  0.3837 -0.0320 -0.0696
26017W        W41148   2.506   2.724  15.074  0.2870  0.0454  0.0171
26018W        W41149  15.068   1.559  14.062  0.3803 -0.0219  0.1883
26019W        W41150   7.507  13.374  15.337  0.0313 -0.1907  0.0416
26020W        W41151   0.313   0.021   1.847  0.1786  0.4618 -0.3439
26021W        W41152  17.289   2.871   0.770  0.0969 -0.0128 -0.3513
26022W        W41153   2.266   8.616  12.106 -0.0669  0.2086  0.0619
26023W        W41154   8.473  15.915   0.797  0.1519 -0.0115  0.1694
26024W        W41155   1.819  17.440  14.409  0.1830  0.0325 -0.0018
26025W        W41156   4.234   1.287  16.861 -0.1745  0.3846 -0.4015
26026W        W41157   1.284  11.654  15.220  0.3025 -0.0616 -0.1304
26027W        W41158  13.177   9.383  15.461  0.1954 -0.2629  0.0285
26028W        W41159  14.992   3.542   5.367  0.2448 -0.2172  0.0030
26029W        W41160  16.851  17.113   2.701 -0.1088 -0.2706  0.0732
26030W        W41161  11.919  11.766  16.613 -0.1643 -0.2788 -0.0025
26031W        W41162   2.007   1.363  14.934 -0.2939 -0.2198  0.0142
26032W        W41163  12.810   6.330  12.316  0.0259 -0.3673  0.0780
26033W        W41164  10.604  10.868   0.660 -0.2387 -0.0349  0.1644
26034W        W41165  13.480  16.179  11.595 -0.2696 -0.0385  0.0535
26035W        W41166   0.416  11.779  14.506  0.0687 -0.1182 -0.4134
26036W        W41167   0.958   4.937   0.288  0.0849 -0.3968  0.1375
26037W        W41168   0.172  12.444  14.001 -0.1739 -0.1122  0.0051
26038W        W41169   3.410  15.673   2.792  0.0541  0.0871 -0.0600
26039W        W41170  14.092   4.504   4.943  0.0019  0.0779 -0.2037
26040W        W41171   3.793   7.469   4.949 -0.0878 -0.0545 -0.1660
26041W        W41172   9.688   7.676   1.198  0.0816 -0.0388 -0.0515
26042W        W41173  13.165  13.115   1.086  0.1862 -0.2113 -0.1399
26043W        W41174  11.397   5.844   1.760  0.4030  0.1128  0.1072
26044W        W41175  14.018   1.176  11.239  0.0953 -0.0330  0.1588
26045W        W41176   7.308   5.401   3.837 -0.0232 -0.0957 -0.0192
26046W        W41177   3.127  14.606  12.138 -0.0560  0.0366 -0.1098
26047W        W41178   4.929  10.800  12.493  0.2285  0.1068 -0.1093
26048W        W41179  12.411   9.201  13.418  0.1565 -0.1339  0.0875
26049W        W41180   2.613   5.820  12.901  0.3569 -0.2241 -0.3989
26050W        W41181   0.686   7.825  16.493  0.1756  0.0828  0.2828
26051W        W41182  17.660  12.392   4.717  0.0954  0.0019  0.2066
26052W        W41183  13.502  14.050   6.053 -0.2256  0.0509  0.0028
26053W        W41184   3.786   7.774   0.053 -0.0976 -0.2288  0.0774
26054W        W41185   8.197  14.783  12.894  0.1239 -0.0576 -0.0201
26055W        W41186   1.910   7.825   5.614  0.0513  0.1381 -0.1314
26056W        W41187   7.188  11.590  16.409  0.1962  0.1182  0.2440
26057W        W41188  14.225   5.547   2.752 -0.2190  0.0934 -0.0849
26058W        W41189   6.866   4.264  14.954 -0.0052  0.1193  0.2289
26059W        W41190  14.764   2.436   0.563  0.1185 -0.2839  0.2440
26060W        W41191   9.187   7.227   5.240 -0.0978  0.0123 -0.1466
26061W        W41192   3.196   2.431  16.144  0.4953 -0.3966 -0.1198
26062W        W41193   3.700  11.773  16.200  0.1358 -0.5533 -0.0767
26063W        W41194   4.457  15.526  14.087 -0.0320 -0.1018 -0.1553
26064W        W41195  16.215   6.564  10.630 -0.0762  0.2711 -0.2448
26065W        W41196   9.549   9.255  14.717  0.1378 -0.2028 -0.1990
26066W        W41197  15.516  16.120   0.324  0.0858  0.0228 -0.0059
26067W        W41198  10.599   5.595  15.934  0.4052 -0.2987 -0.1039
26068W        W41199   1.357  16.210   0.168 -0.2008 -0.0719 -0.0852
26069W        W41200  16.954   2.723   4.468 -0.2372 -0.2781 -0.0040
26070W        W41201   8.647   8.603  13.468 -0.0977 -0.3381 -0.0016
26071W        W41202  12.188   1.928  14.260 -0.1260 -0.2466 -0.2301
26072W        W41203   9.044  11.920  11.184 -0.1461  0.0837 -0.1953
26073W        W41204   6.520   7.413   2.162 -0.2295 -0.2034  0.0013
26074W        W41205  15.876   7.001   2.818 -0.0762 -0.1052  0.0569
26075W        W41206   5.766  13.791  13.761  0.0963 -0.0875 -0.0261
26076W        W41207  11.321   0.165   1.570  0.0136 -0.2065 -0.0646
26077W        W41208  12.322   9.325   4.350  0.0157  0.1390  0.1032
26078W        W41209   3.467   1.312  15.665  0.0108  0.3406 -0.0295
26079W        W41210  11.224   1.106  16.545 -0.0124  0.1457  0.0875
26080W        W41211  10.546   8.838   4.025  0.2080 -0.0181 -0.0788
26081W        W41212  13.759  15.077   4.165 -0.2234  0.2371 -0.0950
26082W        W41213  16.633   2.016   3.491 -0.0746 -0.0627 -0.2157
26083W        W41214   7.558   6.106   2.261 -0.0127 -0.0091  0.0140
26084W        W41215   5.063   4.846   4.855 -0.2003 -0.1309  0.0879
26085W        W41216  15.529  14.314   4.003  0.1857  0.2479 -0.2027
26086W        W41217   3.160   2.114   1.903  0.3503  0.3209  0.1909
26087W        W41218  11.035   4.509  11.363  0.1392  0.3189  0.1058
26088W        W41219  12.155   4.923   1.325 -0.2560  0.0756  0.1463
26089W        W41220   3.142   2.661   1.752 -0.3985 -0.1705 -0.1500
26090W        W41221   5.657   7.947   4.330  0.0092  0.0041 -0.1926
26091W        W41222   5.542  16.129  15.620  0.0698  0.0742 -0.0800
26092W        W41223   5.217  11.262   0.605 -0.1587  0.3159  0.2419
26093W        W41224   4.364  14.834   0.871  0.0096  0.1939  0.2077
26094W        W41225   4.966   8.932   5.725 -0.1430 -0.2525  0.0748
26095W        W41226  14.745   9.721   3.982  0.0951  0.1738 -0.1088
26096W        W41227  11.488   2.888  15.998 -0.0248  0.0579  0.3607
26097W        W41228   7.561   0.637   3.417 -0.0226 -0.1098 -0.1270
26098W        W41229  13.432  12.585  13.351 -0.1766 -0.3232 -0.0187
26099W        W41230  16.482  17.537  14.253 -0.1741 -0.1341  0.2338
26100W        W41231   2.794   8.967   4.318 -0.1513  0.2415 -0.1063
26101W        W41232   0.701  15.678  11.782 -0.0168 -0.0587 -0.2762
26102W        W41233  14.538  12.648   5.050 -0.0057  0.1223  0.0849
26103W        W41234   8.540   7.211  14.491 -0.0951  0.1832  0.3367
26104W        W41235  15.493   5.367  16.115 -0.5040  0.1219 -0.1056
26105W        W41236   2.764  14.405   2.367  0.2134 -0.2469 -0.2014
26106W        W41237  13.284   8.100   2.622  0.2442  0.1137 -0.3612
26107W        W41238   5.668   4.540  14.226  0.0940 -0.0355 -0.0150
26108W        W41239   7.112   3.091  13.062 -0.1862  0.0575  0.0652
26109W        W41240   8.192  15.259  15.026 -0.0554  0.0386  0.0613
26110W        W41241  17.657   5.433  13.052  0.1923 -0.0559 -0.1502
26111W        W41242   3.280   2.013   5.661  0.3149 -0.3953 -0.1269
26112W        W41243   5.216   3.270  15.654  0.0549 -0.1338  0.1078
26113W        W41244  15.061  13.441   6.514  0.0436  0.0402  0.2326
26114W        W41245   4.452   1.170   1.322 -0.0895 -0.1430  0.0846
26115W        W41246   8.624   0.130   3.058  0.2165 -0.0696  0.0298
26116W        W41247   7.116  12.348   3.029  0.0994 -0.3439 -0.1285
26117W        W41248   5.985   6.738  11.285  0.0142 -0.0914  0.2306
26118W        W41249   2.759  16.864  11.370 -0.0295  0.0232 -0.1259
26119W        W41250   4.733  13.527  11.895  0.0124  0.1247  0.0974
26120W        W41251  10.225  16.122   0.412  0.0818  0.0048  0.2057
26121W        W41252   8.802   7.709  15.091 -0.1039  0.0774  0.2299
26122W        W41253   8.666   9.930  13.309 -0.2747 -0.2231 -0.1169
26123W        W41254   7.063  16.925  15.602  0.1675  0.1424 -0.2110
26124W        W41255  17.100  12.949   3.794 -0.1893 -0.0750  0.0868
26125W        W41256  15.618   7.968  16.780 -0.0440  0.0314  0.0804
26126W        W41257   5.076  16.551  11.010 -0.1669 -0.0479 -0.0708
26127W        W41258  11.351   9.271   0.535  0.1110 -0.2562 -0.1721
26128W        W41259  16.658  17.540   3.056 -0.0048 -0.4470 -0.1188
26129W        W41260   4.613   5.472  15.673 -0.2648  0.3229  0.2793
26130W        W41261   8.573   6.523   2.480 -0.0869  0.1186  0.0509
26131W        W41262   1.293  11.712  15.756  0.2147  0.0037 -0.1600
26132W        W41263   8.023   3.785   3.586 -0.1039 -0.2312 -0.2349
26133W        W41264  10.724   0.402   0.521 -0.1785 -0.1595  0.1105
26134W        W41265   3.105  15.030   3.327 -0.0571 -0.1439 -0.0822
26135W        W41266   5.423  12.107  16.651  0.0539 -0.1849  0.0979
26136W        W41267   8.986   4.194   0.691 -0.2510  0.0829 -0.1856
26137W        W41268  13.566  14.678  13.455 -0.1088  0.1735 -0.3493
26138W        W41269   3.313   8.775   0.756  0.0202  0.1308  0.0252
26139W        W41270  13.173   2.096   3.762  0.0604  0.2491  0.0113
26140W        W41271  15.907   2.348   3.788  0.2762  0.0252  0.0343
26141W        W41272   1.976  13.583  15.798  0.0801  0.5622  0.3190
26142W        W41273   5.474   5.104  13.059  0.0726 -0.1331  0.0790
26143W        W41274  17.561  11.942  12.492 -0.0938  0.0223  0.0328
26144W        W41275  17.608  15.102   1.311 -0.2275  0.1584 -0.3953
26145W        W41276   9.228  17.432   3.938 -0.0267 -0.1323 -0.4172
26146W        W41277  11.957   3.194   4.217 -0.1952  0.2201 -0.1767
26147W        W41278   1.928  11.691  14.282  0.1960  0.2631  0.2188
26148W        W41279   2.253   1.777   1.228  0.1531  0.1220 -0.1327
26149W        W41280  10.366   2.927   1.574  0.0067  0.0769  0.1142
26150W        W41281   4.407  11.189   3.168 -0.1392  0.1174  0.1246
26151W        W41282   9.788  16.491  13.093 -0.0501 -0.1481  0.1009
26152W        W41283   5.820  16.916   5.000  0.1062  0.1466  0.2338
26153W        W41284   9.161   7.254  11.181  0.1569 -0.0198 -0.0870
26154W        W41285   0.897   6.529  15.069  0.1357 -0.0775  0.0308
26155W        W41286   9.845   4.128  16.415 -0.0188  0.0587  0.2063
26156W        W41287  11.033   7.483  12.625 -0.1077  0.0441  0.0091
26157W        W41288  16.397  10.012  11.676  0.1951 -0.2591  0.0030
26158W        W41289  11.214  16.062   3.192 -0.4669  0.2005 -0.1126
26159W        W41290   3.183  13.446  15.732 -0.1198  0.2512 -0.0793
26160W        W41291   8.682   6.979   5.278 -0.0215 -0.2444 -0.3155
26161W        W41292   0.908   6.556   2.345  0.1144  0.2007 -0.0685
26162W        W41293   5.685   7.196   4.791 -0.0041 -0.1979 -0.1531
26163W        W41294  13.178   2.373  12.188 -0.0782  0.1005 -0.1317
26164W        W41295  15.708   3.949   2.269 -0.3974  0.1212  0.2086
26165W        W41296   3.987   9.272   5.141 -0.0388  0.1454  0.3346
26166W        W41297  17.012  13.676   2.006  0.0164 -0.0652  0.1216
26167W        W41298  15.825  14.717   3.772  0.2445 -0.2929  0.0824
26168W        W41299   2.990   9.693  13.594 -0.0682 -0.1106 -0.0864
26169W        W41300  15.194  13.032   2.528 -0.1245 -0.0432 -0.0240
26170W        W41301   2.639  15.011  14.240 -0.0025 -0.0074 -0.0712
26171W        W41302   2.547   5.340   3.520 -0.0863 -0.0083  0.0227
26172W        W41303   3.942  14.161   2.899 -0.0436 -0.4150 -0.1305
26173W        W41304   6.532   4.077  15.281  0.4015 -0.2043  0.2381
26174W        W41305  12.244   5.433   3.082 -0.0803  0.0169  0.3815
26175W        W41306  17.191   9.556   0.077  0.0583 -0.3636 -0.0190
26176W        W41307   6.886   1.028   2.938 -0.1120  0.1365 -0.0704
26177W        W41308   2.552   8.584  13.938 -0.0881 -0.1804  0.0163
26178W        W41309   2.301  11.344  16.748  0.0625 -0.0239 -0.0123
26179W        W41310  11.783  17.107  14.658 -0.0186 -0.0241 -0.1535
26180W        W41311  12.621   6.155   2.483 -0.0764  0.0842  0.1242
26181W        W41312   7.365  11.549  11.663 -0.0348  0.0086 -0.1072
26182W        W41313  15.199  17.516   3.875  0.2542  0.1519  0.2580
26183W        W41314   0.660   5.034  11.493 -0.0584  0.1553 -0.1851
26184W        W41315   8.913  10.026  13.779 -0.3865  0.3719 -0.0681
26185W        W41316  17.615   6.676  16.855 -0.1438  0.1644 -0.0757
26186W        W41317  16.933   8.828   0.645 -0.0685  0.2967 -0.0095
26187W        W41318  13.837  16.228  16.178 -0.0731  0.2326 -0.2880
26188W        W41319   8.788  10.092  12.802  0.0924  0.2331  0.2618
26189W        W41320  10.271  12.192  14.752 -0.0423  0.1750  0.0357
26190W        W41321   1.785  10.263   1.704  0.6949 -0.1296 -0.2065
26191W        W41322   7.062   4.998   5.244  0.1048  0.0367 -0.0966
26192W        W41323  12.561  16.239  13.655 -0.0245 -0.0139 -0.0256
26193W        W41324   6.972  11.740   1.285  0.0317  0.2968 -0.0439
26194W        W41325  12.266  14.056   6.405 -0.1601  0.1037 -0.3262
26195W        W41326   6.059   3.371  13.981  0.0404  0.0720  0.1356
26196W        W41327   4.740  10.149   3.909  0.0006  0.1944  0.4162
26197W        W41328   2.924  12.684   3.576 -0.1187  0.3674  0.0122
26198W        W41329   9.459   5.365   5.275 -0.0950 -0.0451 -0.1107
26199W        W41330  14.466  16.287   6.280  0.4411  0.2693 -0.0950
26200W        W41331   4.995   1.019  12.367 -0.0996 -0.3395  0.2639
26201W        W41332  10.916   6.366  15.541  0.0287 -0.3204 -0.0536
26202W        W41333   6.424   1.478   1.916 -0.0840  0.0114  0.2250
26203W        W41334   0.835   5.399   4.502  0.2883 -0.1447 -0.1360
26204W        W41335  14.198  13.763  14.529 -0.0750  0.0467  0.2189
26205W        W41336  13.397   5.551  14.815 -0.0149  0.0007 -0.2246
26206W        W41337   6.749   4.778   3.181  0.0170 -0.0955  0.2282
26207W        W41338   5.769   3.445  12.040 -0.2769  0.0769  0.3276
26208W        W41339   8.834   1.635   0.869  0.1862 -0.0747  0.2285
26209W        W41340  13.574   0.747   1.585 -0.1651  0.0105 -0.2642
26210W        W41341  16.354   9.349   0.683 -0.0117  0.0533  0.3626
26211W        W41342   8.030  13.691   1.957  0.1890 -0.3596 -0.1342
26212W        W41343   4.466  16.226   0.960  0.1297 -0.0681 -0.3880
26213W        W41344  14.293   6.484   3.242  0.1947 -0.0539 -0.2517
26214W        W41345  12.506  17.135   5.161  0.1120 -0.1473 -0.0188
26215W        W41346  17.421   4.808   4.081  0.3284  0.0266 -0.2771
26216W        W41347  11.519   8.955   5.598  0.2045 -0.0741  0.3567
26217W        W41348   7.923   9.628   5.180  0.3239 -0.0733 -0.2696
26218W        W41349   8.779   7.868  14.078 -0.0242  0.0823 -0.1324
26219W        W41350  14.680   5.130  11.537 -0.1425 -0.1442  0.0145
26220W        W41351   7.698   1.590   5.782 -0.0931  0.0758 -0.0302
26221W        W41352  12.876  16.112  16.550 -0.0697  0.2017  0.2610
26222W        W41353   5.933   6.261   4.086  0.3008  0.2409  0.0143
26223W        W41354   0.333   8.045  10.367  0.2810  0.2440  0.0868
26224W        W41355  13.749  16.706  16.935  0.0346 -0.0087 -0.1405
26225W        W41356   3.313  15.048   2.028  0.0070 -0.1949  0.0898
26226W        W41357   2.289  15.155  11.807  0.1784 -0.1244  0.0687
26227W        W41358  10.838   5.313   4.748 -0.3539  0.2768  0.1131
26228W        W41359  13.168  13.809  13.996 -0.0908  0.1137  0.0271
26229W        W41360  16.807   9.175  12.286  0.3337 -0.0797 -0.2476
26230W        W41361  16.466   6.801   5.349  0.3010  0.2633  0.1995
26231W        W41362   2.298  17.642  11.031 -0.0747  0.0254  0.3251
26232W        W41363  10.541   3.785   1.203  0.0554  0.0217  0.0167
26233W        W41364  17.685   6.140   2.670  0.1916  0.3096  0.2758
26234W        W41365  15.132   4.926  11.345 -0.0501  0.0013  0.0461
26235W        W41366  12.916  16.925  13.829 -0.2505  0.0545  0.0515
26236W        W41367  11.599  17.193  16.039 -0.2326 -0.2470  0.1756
26237W        W41368  13.084  11.379  16.701  0.0544  0.0458 -0.1509
26238W        W41369  15.043  12.472  16.076 -0.1025  0.2972 -0.1192
26239W        W41370   9.082   8.455  15.896  0.1454  0.0053 -0.0305
26240W        W41371   4.893  15.957  16.443  0.0380 -0.0948 -0.2227
26241W        W41372   5.142  15.555  16.288  0.5145  0.1048 -0.0853
26242W        W41373   3.731   7.975   4.847  0.0731 -0.2868 -0.3510
26243W        W41374  17.680   2.388   4.815 -0.2255  0.2875 -0.0759
26244W        W41375   7.230   9.793  14.726 -0.2256 -0.0945  0.0866
26245W        W41376   9.003   5.412  14.404  0.1649 -0.1423 -0.0259
26246W        W41377   4.668   1.511  13.491  0.1336  0.1404 -0.2696
26247W        W41378  15.114  16.393  15.555 -0.0810 -0.1571  0.0345
26248W        W41379  13.026   7.541  13.028 -0.0712 -0.1486  0.0589
26249W        W41380  17.132   7.312  16.729 -0.2542  0.0136  0.5299
26250W        W41381  15.207  16.815  13.423 -0.1618  0.0256 -0.4126
26251W        W41382  11.723   8.932  15.881 -0.0215  0.1392 -0.1512
26252W        W41383  12.957   3.625  13.978 -0.0954  0.1610 -0.0470
26253W        W41384   8.267   2.726  11.801 -0.2066 -0.0934  0.2218
26254W        W41385  10.617  14.226   4.636  0.1063 -0.3460 -0.2613
26255W        W41386  13.771  13.059   4.748 -0.0333 -0.2721  0.0163
26256W        W41387  11.377  17.455   0.544  0.1236 -0.0387  0.0551
26257W        W41388  11.894  16.757   6.390 -0.0907  0.0401  0.0351
26258W        W41389   4.418   2.668   1.785  0.1649 -0.2051 -0.1128
26259W        W41390  12.379   3.053   6.084  0.1494 -0.1478 -0.0048
26260W        W41391  11.531  11.643  12.380 -0.4093 -0.2570 -0.1002
26261W        W41392   9.212   9.782   0.588 -0.0282 -0.2340 -0.4168
26262W        W41393  15.486  15.183   5.515 -0.1485 -0.4343 -0.0484
26263W        W41394  16.700  17.389   4.892  0.0148  0.2081  0.1052
26264W        W41395  13.664  13.668   1.819  0.0270  0.1196  0.0869
26265W        W41396  14.756   1.259  15.291 -0.0628 -0.0624 -0.3620
26266W        W41397  14.037   1.269   2.315 -0.0142 -0.0833 -0.0778
26267W        W41398   4.766   3.123  15.847 -0.3181  0.0293  0.0958
26268W        W41399   1.867  13.271   1.511  0.1966 -0.2684  0.1446
26269W        W41400   8.842  15.759   1.198 -0.0380 -0.0785  0.2028
26270W        W41401  16.123  16.349   0.410 -0.1366 -0.0370 -0.0359
26271W        W41402  10.601  15.072  14.746  0.0039  0.2453  0.2282
26272W        W41403  12.729  10.365  14.663 -0.0894 -0.1226  0.1415
26273W        W41404  14.820   8.190   0.930  0.1042  0.1393 -0.0280
26274W        W41405  13.188  13.561  16.288 -0.1322  0.0593  0.1248
26275W        W41406   3.929   8.207  12.455 -0.1525 -0.1719 -0.2365
26276W        W41407   7.594   2.402  12.265 -0.2099 -0.3032 -0.0746
26277W        W41408  11.223   3.894   0.860  0.0676 -0.0778  0.2324
26278W        W41409   0.975   0.129   5.069  0.0749  0.0684  0.0659
26279W        W41410  12.038   6.171   1.196  0.0601 -0.0321  0.0918
26280W        W41411  12.444   5.508   4.614  0.1645  0.2184 -0.0681
26281W        W41412  12.149  17.563  12.628 -0.0903  0.2321 -0.1075
26282W        W41413   9.129   3.060   5.572 -0.1792  0.1064 -0.2216
26283W        W41414   8.868   9.116   6.257  0.0662  0.1298 -0.0703
26284W        W41415  10.949  10.262  14.160  0.0867  0.0645 -0.0276
26285W        W41416  17.076   7.520  12.531  0.1067 -0.3034  0.0175
26286W        W41417   2.069  10.170  13.414  0.1306  0.0490  0.2351
26287W        W41418   4.603   2.075  12.136 -0.0407 -0.1788 -0.0849
26288W        W41419   9.120  13.505   3.836  0.1857 -0.2213  0.2024
26289W        W41420   6.361   3.712   6.285  0.1791  0.0341  0.0980
26290W        W41421  10.660   3.910  13.620 -0.1033 -0.1300 -0.2451
26291W        W41422  12.037   6.822  16.110  0.2721  0.1413  0.0859
26292W        W41423  12.137  17.040  12.350  0.2019 -0.1992  0.1455
26293W        W41424   2.563   7.155  14.702  0.1803 -0.0694  0.2620
26294W        W41425   0.223  12.015  11.529 -0.1702 -0.3098  0.2213
26295W        W41426  11.251  17.012   5.383  0.1067  0.0329 -0.0099
26296W        W41427   3.242  17.023  12.123  0.0462  0.3158 -0.1981
26297W        W41428  15.104  10.429  13.656  0.1840  0.0749 -0.2384
26298W        W41429   4.051   4.109   4.554  0.3882 -0.1413 -0.1222
26299W        W41430   8.691  13.109  12.648 -0.0666  0.0078  0.0272
26300W        W41431   2.669   8.859   3.395 -0.3064  0.3731 -0.2364
26301W        W41432   0.775  16.346   2.877  0.0283  0.1779  0.0664
26302W        W41433   8.655  10.893   5.899  0.2471 -0.2935  0.2274
26303W        W41434  12.845   5.409  15.853 -0.0072  0.1686 -0.4435
26304W        W41435  12.984  11.915   4.031  0.0572 -0.1766  0.0661
26305W        W41436   9.127   7.366  12.049  0.2352 -0.3214  0.0370
26306W        W41437  14.594   1.143  16.330 -0.1453  0.1785  0.2870
26307W        W41438   6.330   6.680  13.380 -0.1956 -0.4340 -0.3914
26308W        W41439   8.103   2.550  14.423 -0.0151 -0.0156 -0.0321
26309W        W41440  15.857  16.209   1.971  0.0235  0.1000  0.1885
26310W        W41441   4.663  10.977  14.030  0.0112  0.0734 -0.1220
26311W        W41442  12.016  15.741   2.310  0.1369 -0.1419  0.0647
26312W        W41443   6.101   5.245   5.701  0.0622 -0.1984 -0.1245
26313W        W41444   6.685  16.554  12.124  0.1674 -0.5046  0.2846
26314W        W41445   8.331  13.340   2.225 -0.1352 -0.3003 -0.0471
26315W        W41446   7.991   1.147   0.038  0.3837  0.2370 -0.0260
26316W        W41447   3.646   6.661  11.524  0.0425  0.1800  0.0723
26317W        W41448  10.123   4.482   3.815 -0.0405  0.1041 -0.2406
26318W        W41449   5.742  14.586  13.481 -0.2977  0.3261  0.1456
26319W        W41450   9.789  12.943   4.080 -0.0390 -0.1994  0.2814
26320W        W41451   4.738   5.696   2.737 -0.4318 -0.1094 -0.0659
26321W        W41452  17.511   1.535   3.823 -0.1723  0.1734  0.0915
26322W        W41453   6.855   6.208   0.786  0.0730  0.0636 -0.0072
26323W        W41454   2.669  12.323  16.858  0.0672 -0.2174  0.1977
26324W        W41455  11.083   9.138   1.178  0.2474 -0.1981  0.1244
26325W        W41456   8.305  16.623  16.100 -0.3555  0.1217 -0.1898
26326W        W41457   9.900   8.130  15.287  0.1784  0.1894 -0.0741
26327W        W41458   7.799  12.318  14.308  0.3432 -0.2961  0.1804
26328W        W41459   1.552   1.553  11.889  0.0104  0.0890  0.0559
26329W        W41460  17.024   1.674  14.257  0.0962 -0.0416  0.1430
26330W        W41461  16.530   5.316  12.457  0.4090 -0.0235  0.1032
26331W        W41462   4.273   9.143  11.747 -0.2278 -0.2532  0.0942
26332W        W41463   5.581   0.039   1.986  0.1652 -0.2016  0.0802
26333W        W41464   9.397   3.984   4.950 -0.1381 -0.3730  0.0912
26334W        W41465  15.845  15.417   3.323  0.0223  0.0808  0.2122
26335W        W41466   0.778  16.028  15.041  0.4782 -0.2531  0.1922
26336W        W41467  12.896   6.976   2.432 -0.1674  0.0954  0.1113
26337W        W41468   2.278  17.394   2.891 -0.0225 -0.1424 -0.0200
26338W        W41469  16.117   8.577   1.336  0.1839  0.0409  0.0192
26339W        W41470   9.106   9.670   5.167 -0.1084  0.0505  0.0484
26340W        W41471  15.220   5.518   5.190  0.3036 -0.0641  0.0440
26341W        W41472   6.377   2.771   5.443  0.1111  0.0941  0.1427
26342W        W41473   3.995   7.495  16.594 -0.2551  0.1025 -0.3363
26343W        W41474   7.268   0.721   2.743 -0.1168  0.0283 -0.2431
26344W        W41475   7.990   5.101   1.435 -0.0597  0.0723 -0.1320
26345W        W41476   1.803   9.574   1.099  0.1764  0.2054 -0.2143
26346W        W41477   2.230  14.597  13.211  0.0701  0.0315  0.0237
26347W        W41478   7.133  11.588  16.892  0.0577  0.2415  0.1228
26348W        W41479   2.346   3.262  11.529 -0.1714  0.0420 -0.0075
26349W        W41480  15.292  11.196   1.681 -0.0907  0.1283 -0.0083
26350W        W41481   0.611   9.841  15.681 -0.0440 -0.0612  0.2320
26351W        W41482   0.006   6.824   2.036 -0.0977  0.2347  0.1628
26352W        W41483  11.900   1.413   5.608  0.1625 -0.0157  0.0883
26353W        W41484   3.309   5.420  10.701 -0.1281 -0.0846 -0.0138
26354W        W41485  16.732   8.397   2.129  0.2901  0.1252 -0.3721
26355W        W41486  15.647  11.542   3.667 -0.5583 -0.1658 -0.2380
26356W        W41487  16.469  10.096  14.151 -0.1321 -0.1476 -0.0511
26357W        W41488   5.648  15.926   3.775 -0.0917  0.0143  0.1582
26358W        W41489  14.066   3.042   5.478  0.1641 -0.1560 -0.1159
26359W        W41490  15.065  16.119  16.031  0.0620  0.2133 -0.2587
26360W        W41491   0.857   0.066  13.468 -0.1216 -0.1498  0.1161
26361W        W41492  10.458  15.482  14.320  0.0292  0.0697 -0.0536
26362W        W41493   7.837   2.037   1.951  0.1670 -0.0371  0.1147
26363W        W41494   0.909   5.810   0.827 -0.1246  0.2388  0.1704
26364W        W41495  15.024  12.575  15.587  0.1597  0.0133 -0.0752
26365W        W41496  12.940   6.750   0.057  0.0642 -0.2674 -0.1924
26366W        W41497  10.823   1.721   6.230  0.0048  0.2277  0.3530
26367W        W41498   7.444   8.936   4.590 -0.0783  0.1141 -0.0686
26368W        W41499   1.434  12.642  13.872 -0.0779 -0.1546 -0.1646
26369W        W41500  11.628   3.384   3.497  0.1072 -0.1045  0.1284
26370W        W41501  12.112  16.023  14.487  0.2236  0.0865  0.0720
26371W        W41502  12.553  15.823  16.824  0.0209 -0.1633 -0.0877
26372W        W41503  11.141   6.446  11.192  0.0992 -0.0475  0.2400
26373W        W41504  14.129   8.982  11.737  0.1785  0.1101  0.1786
26374W        W41505  17.394   8.310  13.634  0.0963 -0.2010  0.2753
26375W        W41506   3.615  12.543   1.938 -0.1727 -0.3123 -0.2739
26376W        W41507   5.223   1.321  14.926  0.3230  0.1396 -0.3931
26377W        W41508   0.112   6.947  16.348 -0.0439 -0.3193  0.0231
26378W        W41509   6.365   1.609   0.922 -0.2664  0.0893  0.0432
26379W        W41510  16.954  16.260  16.370 -0.1817 -0.0776  0.2679
26380W        W41511  11.946   6.641   1.190  0.1136  0.1174 -0.4523
26381W        W41512  10.719   5.710  12.204  0.1886 -0.1074  0.0566
26382W        W41513   1.638  11.351  16.804 -0.2751 -0.0147  0.1162
26383W        W41514  12.630  13.433  13.497  0.1291  0.0582 -0.1113
26384W        W41515  17.541  14.828   0.483 -0.2709 -0.1172 -0.0308
26385W        W41516  12.287   7.487   3.946  0.1076 -0.2388  0.2283
26386W        W41517  10.865   8.521   5.263  0.0471  0.1922 -0.0453
26387W        W41518   4.742   8.673   1.485 -0.2421  0.0623  0.0015
26388W        W41519   3.456   3.674  16.729 -0.2710  0.0109  0.0234
26389W        W41520   6.046   9.360   3.229  0.1570 -0.0174  0.0191
26390W        W41521  16.778  15.915   4.552  0.0525  0.3038  0.2482
26391W        W41522   8.822  13.083   3.765  0.2291 -0.7021  0.0613
26392W        W41523   0.946   0.288   6.580  0.0108  0.1274 -0.1196
26393W        W41524   4.051  17.027   0.945  0.3316  0.0365  0.3496
26394W        W41525  11.837  16.520  15.288  0.1619 -0.1919  0.0576
26395W        W41526  12.145   5.155   5.485 -0.0438  0.1832 -0.0219
26396W        W41527  13.744  14.654   5.923  0.2875 -0.0570  0.0540
26397W        W41528   9.994   4.825  13.032  0.0023  0.0370 -0.1234
26398W        W41529   7.603   5.202  15.088 -0.0338 -0.1017 -0.0183
26399W        W41530   7.150   7.986   4.951  0.1566 -0.2082 -0.1682
26400W        W41531   2.352   4.162  16.851  0.0078  0.0249 -0.0568
26401W        W41532  15.697   7.874  15.813 -0.2030 -0.3571 -0.0797
26402W        W41533   6.320   5.386   0.294  0.1606 -0.3429 -0.1594
26403W        W41534  12.407   5.837   0.264 -0.0613  0.1637  0.2571
26404W        W41535  13.921  11.833  15.876 -0.0378 -0.1706  0.0120
26405W        W41536  12.338  13.712   4.130  0.3519 -0.4269  0.3360
26406W        W41537   1.340   2.955  16.840 -0.1737 -0.0602 -0.1230
26407W        W41538   8.244   9.610  15.442 -0.3040 -0.0069  0.1170
26408W        W41539   2.028  15.693   5.144 -0.1562  0.1756  0.1935
26409W        W41540  14.692   4.001  15.385  0.1752  0.2950  0.0090
26410W        W41541   2.821   9.715   0.625  0.3209 -0.0819 -0.0590
26411W        W41542  15.090  13.387  14.534 -0.2335  0.1799  0.0612
26412W        W41543   9.899  16.906   5.016  0.0631 -0.0312  0.1633
26413W        W41544   8.822  12.852  13.159  0.1845 -0.0098  0.1456
26414W        W41545   9.337   0.018  13.682  0.1029  0.1037 -0.0241
26415W        W41546   5.542   5.021  14.927  0.1559 -0.0338 -0.0306
26416W        W41547   6.423   9.832  16.327 -0.0120  0.3273  0.1325
26417W        W41548   3.280   2.919   2.810 -0.0620 -0.2382  0.3155
26418W        W41549   4.590   4.738  13.942 -0.0380 -0.2069  0.5569
26419W        W41550   0.560   0.426  13.678  0.0738 -0.0351 -0.2643
26420W        W41551   0.840   7.329  12.653 -0.0573 -0.1393 -0.0121
26421W        W41552  10.370  16.644  11.597  0.1175  0.0203  0.0375
26422W        W41553   9.217   9.036  14.170  0.2294 -0.0974  0.0563
26423W        W41554  10.706   2.726  16.161  0.0938  0.0203 -0.0046
26424W        W41555   0.033   5.082  10.989 -0.0370  0.2152  0.0811
26425W        W41556   7.069  11.274  13.663 -0.1449  0.0585  0.0235
26426W        W41557   1.617   8.442  15.939 -0.0173 -0.2529  0.1204
26427W        W41558  16.615   0.781   1.292  0.3206 -0.1357  0.0621
26428W        W41559  14.884   8.090  14.421  0.0954  0.1059  0.3768
26429W        W41560   7.517   3.264  13.868  0.1672  0.0562  0.1180
26430W        W41561  12.684  11.130  11.340  0.1133 -0.2798 -0.1192
26431W        W41562  11.536   1.893   0.537 -0.0537  0.1390 -0.1055
26432W        W41563   7.950   1.365  13.983 -0.1294 -0.1525 -0.0925
26433W        W41564  10.804   1.993  15.487 -0.1277  0.1080 -0.1957
26434W        W41565  15.251   6.858   3.775  0.2931  0.2612 -0.2750
26435W        W41566  14.394  15.216  13.507 -0.0780 -0.2020 -0.2351
26436W        W41567  16.377  10.620  16.931 -0.0316 -0.0518  0.1311
26437W        W41568   9.708   8.443  14.063 -0.1025  0.1309 -0.2770
26438W        W41569   2.261   3.944  14.573 -0.3964  0.1731  0.1588
26439W        W41570  16.526   9.354  11.943 -0.0578 -0.2162 -0.0593
26440W        W41571   3.982   3.499   0.723 -0.1872 -0.0039 -0.1447
26441W        W41572   2.671   0.932   0.003  0.2565 -0.1114 -0.2231
26442W        W41573  11.741  14.857   2.196 -0.0624 -0.1217 -0.0799
26443W        W41574  11.033   8.207   2.849  0.2447 -0.1337  0.0529
26444W        W41575   9.935  16.483  13.574 -0.0937 -0.1047 -0.2620
26445W        W41576  17.585  11.334   4.640  0.1279  0.0820  0.0188
26446W        W41577   6.825  12.530   0.170 -0.2219 -0.2185  0.2691
26447W        W41578   2.233  11.542  13.001 -0.0595 -0.0193  0.0610
26448W        W41579   8.387   4.658   3.674 -0.1962  0.0095  0.1734
26449W        W41580  15.696  13.867   5.913 -0.2850 -0.1247 -0.2388
26450W        W41581   8.193   8.593  14.671 -0.2665  0.0667 -0.0477
26451W        W41582  12.194   4.986   4.761  0.3254  0.3409 -0.1568
26452W        W41583   3.660  13.764   0.531  0.1607 -0.2252 -0.0574
26453W        W41584  10.225  14.691  12.313 -0.2921  0.0039  0.0350
26454W        W41585   6.853  11.019   3.380 -0.1852 -0.0445 -0.0404
26455W        W41586   3.824   4.173  13.486  0.0062  0.2538  0.3693
26456W        W41587  12.057   2.059   2.000 -0.0468  0.0658  0.1176
26457W        W41588   9.147   4.311  11.147  0.0709 -0.1168  0.0658
26458W        W41589   7.101   3.848   0.717 -0.1496  0.0757 -0.2702
26459W        W41590  15.519  11.057   5.622 -0.2130  0.0847  0.2225
26460W        W41591   9.508  10.905   5.491  0.1188 -0.0077 -0.1391
26461W        W41592   3.832   1.271   5.245 -0.0074 -0.0436  0.2532
26462W        W41593  16.204   0.305   3.927  0.0562 -0.1294 -0.1916
26463W        W41594   9.123   0.877  15.723 -0.0793  0.2558 -0.1177
26464W        W41595   4.819   7.680  14.996  0.1975  0.0395 -0.1257
26465W        W41596   4.079  12.050   4.157  0.1856 -0.2442 -0.1609
26466W        W41597   1.336  10.687  14.407  0.2326 -0.4367  0.1693
26467W        W41598   9.340   3.147   2.422  0.1890 -0.0778  0.0233
26468W        W41599  16.175  11.800  16.448  0.2994 -0.0515  0.4667
26469W        W41600  11.156   8.012   1.136 -0.2026  0.1171 -0.2623
26470W        W41601  14.780   8.718  16.210  0.1651 -0.1896 -0.0869
26471W        W41602  10.323   3.954  15.785 -0.4016  0.0180  0.0838
26472W        W41603   7.330  14.578  13.074 -0.2400 -0.1668 -0.0267
26473W        W41604  17.603   9.162   5.099  0.2558  0.3199  0.0789
26474W        W41605  15.421   5.589   2.026  0.0745 -0.0106 -0.0613
26475W        W41606  14.133  13.498  15.842  0.1542  0.2634 -0.1776
26476W        W41607  10.287   6.972  15.941  0.0271  0.0018 -0.0211
26477W        W41608  16.680   1.993  11.446  0.2271  0.0376 -0.0586
26478W        W41609  14.728   9.820   2.756 -0.1476  0.1929 -0.0387
26479W        W41610  16.979  14.158   3.406 -0.2529 -0.1578 -0.1381
26480W        W41611  12.826  15.628  12.164  0.2457 -0.0571  0.0088
26481W        W41612  10.910  15.300   5.993  0.1635  0.1981  0.0295
26482W        W41613  13.783   9.590  11.212  0.2601 -0.2491  0.4644
26483W        W41614   5.601  10.825   4.740  0.1374  0.0865  0.2840
26484W        W41615  16.346   0.877   3.930  0.1430  0.2412 -0.0234
26485W        W41616  15.457  16.925  13.010 -0.0391 -0.3823  0.2297
26486W        W41617  12.467   0.253   4.235  0.1100 -0.0380  0.0308
26487W        W41618   5.135   1.684  15.249 -0.1367 -0.1193 -0.0484
26488W        W41619  15.607   0.501  12.839  0.1380  0.1034 -0.0694
26489W        W41620  12.969   9.467   5.054 -0.0814 -0.0709  0.3645
26490W        W41621  15.960   1.430  13.451  0.0075  0.1262 -0.0084
26491W        W41622   9.128   8.435  13.170 -0.1757  0.2572 -0.1769
26492W        W41623  17.552  12.784  12.858 -0.0311  0.2604 -0.2548
26493W        W41624  11.068  15.045  12.362  0.0935  0.0982  0.0404
26494W        W41625   5.544   4.804   0.594 -0.2585  0.0726 -0.0282
26495W        W41626   1.096  10.675  15.733 -0.1765 -0.3593  0.0525
26496W        W41627   1.490   7.674   4.158  0.1376  0.4719  0.1613
26497W        W41628  15.211   2.564  12.848 -0.0539  0.1445  0.0258
26498W        W41629   8.733   1.946  14.497 -0.1376 -0.0381 -0.5933
26499W        W41630   0.297   6.376  14.703  0.0136 -0.1499  0.2153
26500W        W41631   1.264  13.856  13.271  0.3769  0.0630  0.2010
26501W        W41632   7.454  12.132   4.372 -0.1000  0.2284 -0.0736
26502W        W41633   8.495   8.130  13.702 -0.2169  0.1144 -0.2362
26503W        W41634  10.585   7.522  12.266  0.2156 -0.2519  0.3144
26504W        W41635   0.881  16.049   4.345 -0.2232  0.0361  0.0144
26505W        W41636   9.678  16.388   6.259 -0.5667  0.0855  0.0926
26506W        W41637   1.347  10.729  12.167 -0.0573 -0.1757  0.1812
26507W        W41638   6.803   0.167  12.432  0.1158  0.1945 -0.1770
26508W        W41639   7.047  16.939  16.765  0.0959 -0.0765  0.2303
26509W        W41640   7.930   9.398   0.679  0.0834  0.0453 -0.0187
26510W        W41641   8.257   8.809  14.232 -0.2274 -0.0534 -0.1575
26511W        W41642   2.419  12.034  12.318  0.0395 -0.0073  0.2462
26512W        W41643   2.301   7.133   4.617  0.0513 -0.0232 -0.4640
26513W        W41644   7.362   9.315   0.556  0.1014  0.0585 -0.0212
26514W        W41645   6.958   0.566   0.513  0.0671  0.0718  0.0224
26515W        W41646  15.560   6.578   2.038 -0.1097  0.0693  0.1548
26516W        W41647  12.400   3.476  14.542 -0.0188 -0.3314 -0.1852
26517W        W41648  15.031   9.385   2.307  0.1979 -0.1900  0.1616
26518W        W41649  10.020  12.997   5.384  0.0542 -0.2079  0.0528
26519W        W41650   7.604   6.221  16.686 -0.3296  0.2237  0.1163
26520W        W41651  10.140  15.398  15.323  0.0909 -0.1155  0.2646
26521W        W41652  16.487   9.476  12.937 -0.2030  0.0272 -0.0384
26522W        W41653   6.315  10.267  16.175  0.1703 -0.0161 -0.2261
26523W        W41654   0.500  16.107  13.941  0.2118  0.1613 -0.0292
26524W        W41655   9.349   6.856  14.019 -0.0094 -0.1456 -0.0260
26525W        W41656  15.231  10.844  16.605 -0.0276 -0.0621  0.0004
26526W        W41657  15.372  15.401   5.080  0.0869 -0.4746  0.2734
26527W        W41658   2.948  13.773  16.039  0.1265  0.2559  0.1408
26528W        W41659   3.824   0.933  16.896 -0.2624 -0.0563  0.3518
26529W        W41660   0.789   0.597   2.441 -0.2213  0.0425 -0.1705
26530W        W41661  13.753   1.999  12.875 -0.1340  0.2425 -0.0697
26531W        W41662  15.151  16.040   3.289 -0.2979 -0.1597 -0.3075
26532W        W41663   9.733  17.289   2.127  0.2934  0.0633  0.0145
26533W        W41664   7.619   0.934  15.336  0.0312 -0.0457  0.3344
26534W        W41665   2.302  16.343   3.969 -0.1234 -0.1588 -0.0217
26535W        W41666  14.085   9.987  11.288 -0.2184 -0.1744 -0.0334
26536W        W41667  15.479   9.579   2.160  0.2526 -0.1429 -0.0875
26537W        W41668   3.731  11.223  16.899 -0.1386 -0.0402 -0.2878
26538W        W41669  10.268   4.014  12.045  0.0911 -0.1550 -0.0510
26539W        W41670   4.445   3.506  13.445 -0.2643 -0.1728 -0.1619
26540W        W41671   3.052  15.968  14.803  0.0147 -0.4020  0.0241
26541W        W41672   8.472  15.908   0.177 -0.1064 -0.1971 -0.2748
26542W        W41673   8.240   3.115  16.445 -0.0064  0.3800  0.0280
26543W        W41674   8.254   0.241   5.535  0.0696 -0.3697 -0.1959
26544W        W41675  13.590   3.258   1.229 -0.1949  0.1247  0.0261
26545W        W41676   4.712   1.185   3.283 -0.0717 -0.0358  0.1298
26546W        W41677  12.376  11.229   2.229  0.0379  0.0224  0.1821
26547W        W41678  13.010   6.064   3.322 -0.1923  0.0835  0.0844
26548W        W41679  13.899  11.432   4.819  0.0350  0.1049  0.0068
26549W        W41680  12.123   4.903  13.763  0.1396  0.1032 -0.0262
26550W        W41681   5.778  16.912  16.931 -0.0316  0.0098 -0.0857
26551W        W41682  13.144  12.153  15.343  0.0536 -0.2829 -0.1803
26552W        W41683   2.216   0.286  14.167 -0.1374 -0.1208 -0.0685
26553W        W41684   6.199   0.183   3.557 -0.0838  0.0655  0.0075
26554W        W41685  10.309   0.577   3.917  0.1958 -0.0715  0.2088
26555W        W41686   3.571   0.262   1.663 -0.0928 -0.2195 -0.1538
26556W        W41687  13.382   9.610  11.540  0.0455  0.5663 -0.2147
26557W        W41688   8.598  14.207   0.785  0.0718  0.2129 -0.3015
26558W        W41689  13.917   6.493   5.561 -0.1134  0.3410 -0.0233
26559W        W41690  15.194  11.289   3.177 -0.4760  0.1400 -0.0325
26560W        W41691   3.869  10.790   5.023  0.3611 -0.1758  0.0835
26561W        W41692   8.408   6.994   2.898  0.1536 -0.0855  0.0826
26562W        W41693  16.207   8.193  15.057  0.0385 -0.1021 -0.1000
26563W        W41694  15.843  16.882   3.016 -0.2419 -0.0769  0.1192
26564W        W41695  14.053   0.285   3.473 -0.0807 -0.1988 -0.4241
26565W        W41696   4.200  12.892   3.358 -0.1928 -0.0069 -0.3724
26566W        W41697   7.918   8.581  15.930  0.1434  0.3638 -0.1940
26567W        W41698   5.325  12.438  15.765  0.1944 -0.1317  0.1460
26568W        W41699   3.713   9.482  15.325 -0.1604  0.3211  0.1033
26569W        W41700  16.534   9.021   0.306  0.1560 -0.1032 -0.0826
26570W        W41701  13.353   9.221   3.811  0.0698  0.0787 -0.0906
26571W        W41702  16.253  17.491  12.931 -0.2865 -0.1852  0.0199
26572W        W41703   8.196  16.736   2.612  0.0489 -0.3130  0.1510
26573W        W41704  13.996  15.916  13.782 -0.1366 -0.2558 -0.2450
26574W        W41705  14.117   8.590   0.817 -0.2118  0.1555  0.0751
26575W        W41706  12.690   9.422   3.153 -0.3198 -0.2616 -0.0869
26576W        W41707   6.237   9.504  15.432  0.1950 -0.0472 -0.0499
26577W        W41708   6.589   6.203  14.004 -0.2548 -0.3102  0.0670
26578W        W41709   1.340   3.144  15.502 -0.1563 -0.0769 -0.1110
26579W        W41710   7.740  16.506  14.481  0.0419  0.1438 -0.2333
26580W        W41711   8.230  11.467  15.032  0.1029  0.0453  0.0396
26581W        W41712   6.516  17.585   3.292 -0.1659 -0.0247  0.1574
26582W        W41713  13.148  17.235   5.957 -0.2112  0.2961 -0.2566
26583W        W41714  16.855  11.617   1.666  0.0456  0.2530  0.4059
26584W        W41715   7.282  10.973   4.187  0.2654  0.1756  0.0815
26585W        W41716   4.649   0.681   4.524 -0.3163  0.0576  0.1429
26586W        W41717  14.112  10.579   0.969 -0.1243 -0.1432 -0.0103
26587W        W41718  16.736   9.692   4.888  0.0801 -0.2462 -0.2481
26588W        W41719   8.178   5.308   1.894  0.0953  0.0714 -0.1478
26589W        W41720  16.170  17.051   3.846 -0.3666  0.1441 -0.0039
26590W        W41721   3.277   7.755  16.871  0.0786 -0.3930 -0.2616
26591W        W41722   3.886   1.361   0.683  0.4146  0.5181  0.0146
26592W        W41723   4.860  13.627   4.333  0.0603 -0.1293 -0.3080
26593W        W41724  15.226  17.393   5.895 -0.0228  0.1714 -0.2327
26594W        W41725   3.466   7.772  13.720  0.2304 -0.0736 -0.4257
26595W        W41726  12.063   8.861  13.584 -0.0294 -0.1623 -0.2049
26596W        W41727  11.317  10.188  13.867 -0.2899  0.0618 -0.1445
26597W        W41728   2.574  13.205   5.470  0.0401  0.1759  0.2118
26598W        W41729  11.391   2.209   4.543  0.0287 -0.0255 -0.1322
26599W        W41730   4.901   0.872   1.184 -0.0088  0.2938 -0.1485
26600W        W41731   9.096  14.181  15.270 -0.2903 -0.0458  0.1824
26601W        W41732   6.183   2.051  11.946 -0.3607 -0.0884  0.3285
26602W        W41733  16.959  10.151   5.063  0.3291 -0.2043  0.0633
26603W        W41734   3.719  14.331   2.502 -0.2826  0.1153  0.0997
26604W        W41735   3.373  16.945  13.505 -0.1971  0.1951 -0.1375
26605W        W41736  13.023  15.314   2.595  0.1088 -0.2024 -0.3405
26606W        W41737   3.870  14.278   6.812 -0.0122  0.0740 -0.0329
26607W        W41738  15.402  14.236  13.812 -0.2219  0.0572 -0.3049
26608W        W41739  10.124  17.711  15.791 -0.4239 -0.0194 -0.0679
26609W        W41740   5.203   0.543   0.967  0.4463  0.0296  0.2104
26610W        W41741   1.666   0.746   0.313  0.0168 -0.1373  0.0876
26611W        W41742  16.464  15.302   6.693  0.2592  0.0397  0.1784
26612W        W41743   4.295   0.436  10.682 -0.0827  0.2157 -0.0264
26613W        W41744  14.570  17.188   6.485  0.3042  0.0157  0.3619
26614W        W41745   7.919  10.743   2.147  0.0031 -0.0473  0.2112
26615W        W41746   4.131  11.257  13.429 -0.0155 -0.2936  0.1225
26616W        W41747  17.379   5.871   6.163 -0.1161  0.0762 -0.1304
26617W        W41748   4.540   8.641   2.961  0.1633 -0.2127  0.1117
26618W        W41749   3.750  13.282   2.523  0.1330 -0.1506  0.1285
26619W        W41750   9.331   0.807  14.923 -0.3269 -0.0408  0.0069
26620W        W41751  16.498   5.266   3.541  0.0812 -0.1082  0.1577
26621W        W41752   4.525   2.636   6.081 -0.2129  0.0806 -0.0948
26622W        W41753   0.486   9.417   3.236 -0.0819 -0.1654  0.1052
26623W        W41754   5.212   1.909  15.683  0.1030 -0.1871  0.1932
26624W        W41755   2.901   7.407  13.229  0.2522  0.1210  0.0678
26625W        W41756   3.199   8.785   5.250  0.0160 -0.2180 -0.0339
26626W        W41757  12.297   1.955  12.297 -0.0954  0.0768  0.0169
26627W        W41758   4.551   4.661   0.462  0.0796  0.0253 -0.0553
26628W        W41759  10.978  11.057  14.410  0.1210  0.1744 -0.2521
26629W        W41760   9.074  11.734   3.286 -0.1416 -0.0068  0.1728
26630W        W41761  16.169  13.275   1.360 -0.0482  0.2705  0.1101
26631W        W41762   1.677   7.457  13.647 -0.0055  0.1209  0.2030
26632W        W41763   5.599   8.723  13.808 -0.1130 -0.0520  0.1314
26633W        W41764   5.054   2.209  13.826  0.1193 -0.0869 -0.0962
26634W        W41765  13.554   5.446  13.822  0.1336  0.0973  0.3188
26635W        W41766   3.154  12.760   6.364  0.1689  0.1980  0.0837
26636W        W41767  10.394  16.998   6.617 -0.1076  0.0486  0.0683
26637W        W41768   6.890   6.561  16.236  0.0539 -0.1188  0.0056
26638W        W41769  16.791   4.485  15.770  0.2564 -0.0737  0.0046
26639W        W41770  15.315   0.137   5.782 -0.2233 -0.1595 -0.1909
26640W        W41771  16.129   7.363   3.099 -0.3884 -0.0169  0.2643
26641W        W41772   5.929  16.682   0.472 -0.0097  0.3878  0.0275
26642W        W41773   1.121  10.490  14.793  0.0055 -0.2492 -0.0278
26643W        W41774  14.820  10.547  14.874  0.3215  0.0539 -0.0134
26644W        W41775  16.707  15.151   5.923 -0.0223  0.2035 -0.1526
26645W        W41776   7.098   2.182   1.438  0.1901 -0.0901  0.0679
26646W        W41777   3.626   0.739   6.158 -0.1641  0.0860  0.5003
26647W        W41778  15.074   7.775   1.716 -0.0241  0.0930  0.1072
26648W        W41779  15.264  15.337  10.792 -0.2567  0.0632 -0.1859
26649W        W41780  14.431  14.815  13.161 -0.2535 -0.0928 -0.1229
26650W        W41781   5.118  16.879  16.593 -0.0382  0.1822 -0.2713
26651W        W41782   0.367   7.520  15.382  0.0834 -0.0248 -0.0613
26652W        W41783   5.022   3.983  16.268 -0.0740  0.2414  0.2218
26653W        W41784  13.900   4.556  14.052 -0.2161  0.0098  0.5297
26654W        W41785  10.969   1.703   5.294 -0.0369  0.1878  0.0900
26655W        W41786  10.288   4.576  12.682 -0.2076 -0.1069 -0.4027
26656W        W41787   8.844   3.623  13.711 -0.1312  0.0293 -0.0277
26657W        W41788   5.433  17.218  11.689 -0.1953  0.2919 -0.1585
26658W        W41789   6.630   8.377   0.952  0.1478  0.2874  0.1632
26659W        W41790  11.286  11.356  15.683  0.0555  0.0906 -0.2132
26660W        W41791  13.856   4.076  13.618  0.2243 -0.2203 -0.0531
26661W        W41792  10.842  11.998  15.351 -0.1819  0.0701 -0.1385
26662W        W41793   7.923   0.804   5.485 -0.2892 -0.0512 -0.0195
26663W        W41794  10.061  10.341  16.196 -0.0921  0.0579 -0.2086
26664W        W41795  15.978  12.784  12.572 -0.3608  0.0325 -0.0853
26665W        W41796  12.457   2.508   2.821  0.2368 -0.0173  0.0112
26666W        W41797   6.631   8.671  12.195  0.0055  0.0273  0.0461
26667W        W41798   4.690  16.632   4.614  0.0564 -0.1364 -0.1360
26668W        W41799   8.931   3.584  15.281 -0.1907  0.1311 -0.2359
26669W        W41800   0.693  17.210  11.606 -0.4309  0.1061 -0.1033
26670W        W41801   2.828  15.942   6.089 -0.0439 -0.1483 -0.2043
26671W        W41802   9.582  16.195   2.872 -0.0417  0.2675 -0.1094
26672W        W41803   3.506   8.086  15.182  0.0659  0.2778 -0.3705
26673W        W41804  12.203  12.123   2.312  0.0460  0.2329  0.3963
26674W        W41805   0.345   5.114  14.996  0.0335  0.0952  0.1176
26675W        W41806  10.962   2.959  13.689 -0.0601 -0.1174 -0.0099
26676W        W41807  11.352   0.829  11.768 -0.0230  0.1057  0.0291
26677W        W41808   2.132   9.141   0.975  0.4050 -0.0916  0.1782
26678W        W41809  11.435   0.003  14.695  0.1257 -0.2551  0.0755
26679W        W41810  10.310  14.510   5.667  0.1456  0.0037  0.1874
26680W        W41811   1.288  12.176  15.052 -0.3247  0.2841 -0.1288
26681W        W41812  14.872  14.341  13.775  0.1456  0.2289 -0.1397
26682W        W41813  14.966   5.674  12.647 -0.1528  0.1329 -0.0633
26683W        W41814   3.111   7.497   1.764 -0.3530  0.3340  0.0147
26684W        W41815  12.040  13.753   0.786 -0.2187  0.2223 -0.2323
26685W        W41816  13.165   3.349  13.571 -0.0415  0.1457 -0.2013
26686W        W41817  12.384   4.852  12.682  0.0380  0.0936 -0.1942
26687W        W41818  15.290   5.518  14.392  0.0253 -0.1378 -0.3940
26688W        W41819  12.857  11.642   1.072 -0.1172 -0.1247 -0.1871
26689W        W41820   9.581   1.682   3.252 -0.0550 -0.1183 -0.0039
26690W        W41821   8.531   3.188   5.490 -0.1341 -0.2020  0.3827
26691W        W41822   2.895   0.358   1.405  0.1616  0.0637  0.1157
26692W        W41823  14.097  11.128  14.653 -0.1602 -0.1160  0.2271
26693W        W41824  10.565  15.356   5.577 -0.1554  0.1174 -0.1005
26694W        W41825  12.754   1.528  12.202  0.1243  0.2780 -0.1006
26695W        W41826   5.170   4.729   1.735 -0.1746  0.1078  0.1541
26696W        W41827   4.797  11.683  10.643  0.0620 -0.0300 -0.0561
26697W        W41828   2.736  16.319   4.181  0.2573 -0.2670  0.0358
26698W        W41829  13.638  15.741   6.119  0.2771 -0.3880 -0.3163
26699W        W41830   1.465  13.880  15.931 -0.3109 -0.1514 -0.0190
26700W        W41831  15.194  10.091   2.761  0.2185 -0.4293 -0.2607
26701W        W41832  15.568   4.353  14.098  0.0522  0.1649  0.0859
26702W        W41833   5.635   7.921  13.133  0.1401 -0.0120  0.0751
26703W        W41834  15.726   9.700  16.481  0.0399 -0.1185 -0.1158
26704W        W41835   0.060   6.375   1.707 -0.0936  0.0906  0.1130
26705W        W41836   9.112   0.029  15.608 -0.0844  0.0041  0.0871
26706W        W41837   2.622   8.101   2.174 -0.3310 -0.1314 -0.1612
26707W        W41838   1.999   1.494  13.587  0.1442 -0.3713  0.2511
26708W        W41839  11.627   5.454   1.393  0.2000 -0.1793 -0.0812
26709W        W41840  17.088   9.431  16.516  0.2206  0.3498  0.1966
26710W        W41841   4.302   7.843  15.281  0.0356 -0.0238  0.4192
26711W        W41842  17.251  15.868   5.312 -0.2577  0.0280 -0.0337
26712W        W41843   7.828   6.945   3.178  0.1439 -0.2245  0.0812
26713W        W41844  13.207   5.857   4.667  0.0169 -0.0274  0.0993
26714W        W41845  11.345  10.863  12.734 -0.0526  0.0895  0.1459
26715W        W41846  11.014  14.135  12.060  0.2972 -0.0015  0.0396
26716W        W41847   6.558  14.358  11.979 -0.1408 -0.3011  0.0848
26717W        W41848  15.270   7.341   3.967  0.2573  0.1857 -0.2711
26718W        W41849  13.401   2.352  16.011  0.0747 -0.1767 -0.2047
26719W        W41850  11.143  12.348  14.910 -0.0495 -0.2875 -0.1312
26720W        W41851   0.375  13.190   2.333  0.2072  0.1061 -0.0798
26721W        W41852   3.666  16.072   6.160 -0.4189 -0.0986  0.1229
26722W        W41853   0.123   9.316   4.101  0.0355  0.0191 -0.0234
26723W        W41854   8.892   9.623   4.238 -0.1856 -0.0481 -0.0968
26724W        W41855  10.031  13.698  15.494 -0.0392  0.2552 -0.1142
26725W        W41856  13.451  12.086   3.879  0.4583 -0.1975  0.1319
26726W        W41857  14.799   8.869   1.573  0.1891  0.1687 -0.0066
26727W        W41858  13.659   1.147  16.299 -0.1016 -0.1826 -0.0372
26728W        W41859   5.395   3.516  11.247  0.1353 -0.3253  0.0115
26729W        W41860   2.512   5.634   5.394  0.2325  0.0738 -0.3854
26730W        W41861  11.358  13.975  13.615 -0.0189 -0.0677  0.4176
26731W        W41862   7.980  14.070   4.664  0.3100 -0.1017  0.0634
26732W        W41863  12.652   1.033  12.253 -0.1571  0.1517  0.2779
26733W        W41864   5.258   5.813  15.459  0.0011 -0.0979 -0.1245
26734W        W41865   5.258   6.137   0.832 -0.2178 -0.3672  0.2254
26735W        W41866  11.435  12.402   0.162 -0.1150  0.0891 -0.1069
26736W        W41867   5.577   3.945  14.590 -0.5326 -0.0991 -0.2787
26737W        W41868   4.356   7.089  16.585  0.3122 -0.1125  0.4469
26738W        W41869   9.146   2.271  14.505  0.0434 -0.2493 -0.1564
26739W        W41870   3.681   3.925  15.998 -0.0768  0.1459  0.0708
26740W        W41871  14.809  17.125  14.727 -0.0796  0.0543  0.0497
26741W        W41872   0.977  12.602  11.788  0.0573 -0.3995 -0.0191
26742W        W41873   8.202   2.276   2.174 -0.2302 -0.0365  0.3578
26743W        W41874  13.179   0.585   5.144 -0.0596  0.1230 -0.1812
26744W        W41875   8.323   7.424   2.190  0.1068 -0.1551  0.2124
26745W        W41876   1.149   1.637  16.558 -0.2534  0.0477 -0.0209
26746W        W41877   7.292  10.245   4.908  0.0949  0.3043 -0.0852
26747W        W41878  12.647  11.407   2.829 -0.0667  0.2489  0.1066
26748W        W41879   7.935  15.180  12.742  0.0695  0.0219  0.1034
26749W        W41880   1.572   0.538  13.814  0.1005 -0.2461 -0.0840
26750W        W41881   9.499   8.156  13.570  0.2180 -0.0503  0.3849
26751W        W41882  15.369  12.123  13.765  0.2865  0.0233  0.0155
26752W        W41883  14.950   6.086   0.448  0.1363  0.0776 -0.0568
26753W        W41884   5.827   1.625   6.322 -0.2418  0.1734 -0.2085
26754W        W41885  11.254   5.024   4.205  0.0810  0.1812  0.1135
26755W        W41886   3.194  15.745   2.364 -0.0761  0.0014 -0.0415
26756W        W41887   9.634   8.526  15.464  0.1086 -0.1847 -0.1695
26757W        W41888   8.661   1.452  14.472  0.0017 -0.1042  0.0524
26758W        W41889  11.766  12.995  16.509  0.1814 -0.4170  0.0028
26759W        W41890  14.369   3.495  15.242 -0.4915  0.0624  0.0544
26760W        W41891   9.686  13.769   2.451 -0.0260  0.1067  0.2120
26761W        W41892   6.738   0.668   1.310  0.4187  0.1771 -0.0684
26762W        W41893  11.502  13.925  15.160  0.1104  0.1154  0.1365
26763W        W41894  11.317  11.088   2.014 -0.1223 -0.1656 -0.2473
26764W        W41895   8.549  17.126  11.687 -0.1825  0.1038  0.0858
26765W        W41896   6.206   0.076  14.294  0.0311  0.1371 -0.0030
26766W        W41897  16.085   9.253  13.085  0.0258  0.2142  0.0911
26767W        W41898  13.960  12.230   6.571 -0.1772  0.1520  0.1914
26768W        W41899   4.217  12.853   5.406  0.0511  0.0064  0.2314
26769W        W41900   5.268  11.580  15.132  0.1832  0.0633 -0.0362
26770W        W41901   9.140  16.748   4.641 -0.0611  0.0744 -0.0426
26771W        W41902   8.075   9.889  13.663  0.1695 -0.0446  0.0450
26772W        W41903   7.434  17.287  16.754 -0.0149  0.1042 -0.1523
26773W        W41904   0.908  16.088   3.310  0.1636  0.4926 -0.1393
26774W        W41905   6.013   2.558   3.025  0.0916 -0.2491 -0.0381
26775W        W41906   9.800   7.338   1.627 -0.1063  0.0642 -0.3183
26776W        W41907   4.407  13.439  14.849  0.1542  0.0581 -0.1607
26777W        W41908   7.466  14.828   4.329  0.3022 -0.0299 -0.2078
26778W        W41909  17.143   8.118  14.025 -0.2165 -0.1402 -0.0803
26779W        W41910   9.642   9.380  13.281  0.4294  0.1300  0.1106
26780W        W41911   3.476   9.159  12.462  0.0182  0.0288  0.0430
26781W        W41912   9.819  15.373   0.452 -0.1680 -0.2728  0.4395
26782W        W41913   4.836  10.486   2.466  0.1003  0.1700 -0.2434
26783W        W41914   9.512   9.000   0.777 -0.0286 -0.0451 -0.2339
26784W        W41915  11.198   4.611  14.312 -0.1673 -0.0715 -0.0791
26785W        W41916  15.846   1.994   4.999  0.2591 -0.3944  0.0179
26786W        W41917   8.083   4.997   2.257  0.4043 -0.0640  0.0389
26787W        W41918   0.651   1.405  13.996  0.0261 -0.1643  0.3026
26788W        W41919  11.258  11.803   0.991 -0.0788  0.5349 -0.0244
26789W        W41920   2.103   5.077  11.093 -0.0698 -0.3164 -0.0467
26790W        W41921   2.240   2.099  11.970 -0.0083 -0.0288 -0.0899
26791W        W41922  13.483   2.398  13.014 -0.0005  0.1485  0.3630
26792W        W41923  14.568   8.119  11.635 -0.1818 -0.2767  0.0633
26793W        W41924   9.423  11.764   0.529  0.1466 -0.1907 -0.0139
26794W        W41925   3.451   2.998  14.798 -0.2915  0.1927 -0.1350
26795W        W41926   6.759   8.688  13.204  0.2098  0.1487  0.0022
26796W        W41927  11.123   2.328  15.219  0.1125  0.1564 -0.0437
26797W        W41928   9.796   1.324   3.560  0.2186  0.2024 -0.2848
26798W        W41929   8.021   0.467   0.210  0.0816 -0.1358  0.1736
26799W        W41930   1.147  15.985  13.833 -0.1576  0.0793  0.0809
26800W        W41931   5.638  13.134   3.014  0.3956 -0.0377 -0.1016
26801W        W41932  13.487   3.916   2.650  0.0265 -0.0878  0.0087
26802W        W41933  17.256  12.206  12.267  0.1514 -0.1443  0.0150
26803W        W41934  15.629   1.469   5.967 -0.2040  0.2031  0.2876
26804W        W41935   3.904   9.301   4.627  0.2486 -0.1056 -0.0648
26805W        W41936   9.649  16.923   4.543 -0.1950  0.1518  0.1602
26806W        W41937   9.039  15.461   0.801  0.1738  0.4265 -0.0978
26807W        W41938  13.871  14.666   3.878 -0.1155 -0.1213  0.0357
26808W        W41939  13.385   9.009   1.258 -0.1881 -0.1328  0.1404
26809W        W41940  17.588  10.485   4.021  0.0634 -0.2523  0.2517
26810W        W41941   9.813   1.008  14.188  0.0667  0.0842  0.1219
26811W        W41942   4.050  10.548  12.387  0.2032  0.0870 -0.0183
26812W        W41943   9.338   5.346  13.350 -0.1748  0.1265 -0.2757
26813W        W41944  15.038   9.030   1.032 -0.1980  0.3426 -0.1079
26814W        W41945   3.229  16.283   1.247  0.0099 -0.1731 -0.0589
26815W        W41946   1.540   5.186  14.537 -0.2657  0.1520 -0.0567
26816W        W41947   8.306  17.385  14.105 -0.2054 -0.0129 -0.3207
26817W        W41948  16.595  14.937   4.424 -0.0999 -0.1911 -0.0828
26818W        W41949   4.212   9.468   1.734 -0.0376  0.0359 -0.0582
26819W        W41950  10.248   7.704   1.277 -0.0325  0.0811  0.0721
26820W        W41951   8.378   9.146  16.388  0.1658  0.0407  0.2820
26821W        W41952   3.301  14.023  14.265 -0.0225  0.1538 -0.1766
26822W        W41953  16.913  11.816  12.053 -0.0982 -0.0345 -0.2387
26823W        W41954   5.174  14.353   1.444  0.1140 -0.2773 -0.0180
26824W        W41955   6.064  12.813   0.307  0.3971  0.2422 -0.0093
26825W        W41956  12.527   6.447  11.520  0.0503  0.2308  0.1773
26826W        W41957  16.318   5.773   3.413 -0.2354 -0.0395  0.2688
26827W        W41958  15.430  14.612   1.366 -0.2135 -0.2307 -0.0183
26828W        W41959   9.234  14.295   1.428 -0.2904 -0.0471  0.1510
26829W        W41960  16.638  12.200  14.044 -0.0622 -0.1950  0.0258
26830W        W41961   2.612   4.329  13.008 -0.0409  0.3557  0.4419
26831W        W41962  13.434  13.288  14.613  0.0698 -0.3806  0.0258
26832W        W41963   4.039   8.327   4.721 -0.1863 -0.0506  0.0500
26833W        W41964  10.366   4.351   1.011 -0.1159 -0.1337  0.0851
26834W        W41965  11.346  11.925  15.745  0.0887 -0.0172 -0.1863
26835W        W41966   4.635  16.017  13.332 -0.0907 -0.1600 -0.3021
26836W        W41967  17.032   4.095   2.051 -0.2620 -0.1874  0.1183
26837W        W41968  13.932   8.492   1.414 -0.0900  0.2432 -0.0487
26838W        W41969   6.943   3.095  12.013  0.0162  0.1873 -0.2260
26839W        W41970   8.264   2.666  13.861  0.0633 -0.2286  0.0341
26840W        W41971  17.459  11.103   2.765  0.1325  0.0491 -0.0958
26841W        W41972  10.576  13.618   2.789 -0.0356 -0.0510 -0.0767
26842W        W41973  15.034   0.621  12.944  0.0535  0.3768  0.1668
26843W        W41974  15.524  14.585  15.866 -0.3569  0.0263  0.1294
26844W        W41975  11.831   0.080   1.756  0.0612 -0.1162 -0.2779
26845W        W41976   9.833   9.978  16.469 -0.1836 -0.0098 -0.2013
26846W        W41977   7.829  10.782  14.046 -0.0263 -0.0905  0.2218
26847W        W41978  14.276   1.307   2.766 -0.1036 -0.0479  0.0534
26848W        W41979  16.935  10.897  14.638 -0.1361  0.2640 -0.1766
26849W        W41980   9.557  10.034  14.434 -0.0823 -0.0759 -0.0815
26850W        W41981   2.794   0.671   5.538 -0.1445 -0.0391 -0.0364
26851W        W41982   2.947   9.675   6.134 -0.0884  0.2012  0.1009
26852W        W41983   4.428  17.483   6.122 -0.0415 -0.2236  0.1211
26853W        W41984  16.402  16.771  15.894 -0.2486 -0.2212  0.2977
26854W        W41985   3.965  12.471   4.645 -0.0115  0.2495  0.2234
26855W        W41986  17.512   6.537  12.194 -0.1571  0.1412  0.0673
26856W        W41987  14.535   9.546   2.407  0.0769  0.0711 -0.1560
26857W        W41988   5.844   1.155   5.863 -0.0890  0.0364 -0.1478
26858W        W41989  15.651   5.978   4.203  0.0718  0.0959  0.1011
26859W        W41990  17.159   0.146  15.873 -0.1947 -0.0267 -0.1704
26860W        W41991  11.944  13.569   5.579 -0.2668 -0.3199  0.1243
26861W        W41992  15.515  16.740  12.074 -0.1552  0.0649 -0.3031
26862W        W41993  15.645   4.967  12.147 -0.0446 -0.2577 -0.0171
26863W        W41994  16.550  11.992   0.846  0.2064  0.3450 -0.1711
26864W        W41995   8.835   3.161  14.653  0.3265  0.1166  0.0197
26865W        W41996   3.326   9.402   6.190  0.0408  0.0494  0.0707
26866W        W41997   8.345  17.450   1.360  0.3089 -0.3067 -0.2039
26867W        W41998   4.968   6.617   3.153 -0.0695 -0.0561  0.1730
26868W        W41999   8.519   1.627  13.114  0.0550  0.0624 -0.0913
26869W        W42000   0.324  17.105  16.353  0.0534 -0.0243 -0.0526
26870W        W42001   3.304   2.493   5.873 -0.0437 -0.0039 -0.0169
26871W        W42002   6.651  13.492   0.088 -0.0732 -0.1538 -0.2553
26872W        W42003  12.502  12.043   1.866 -0.0275 -0.3839  0.1018
26873W        W42004   8.288  17.310  12.076 -0.0580 -0.2018 -0.1964
26874W        W42005  16.686   5.482  11.887  0.0674  0.3088 -0.1975
26875W        W42006  13.374   3.609   3.074 -0.0180  0.0254 -0.2010
26876W        W42007  17.583  16.079  13.724 -0.1712  0.1323 -0.1595
26877W        W42008   4.601  15.355   1.964  0.0386 -0.1833  0.0734
26878W        W42009  16.548   0.318   3.041 -0.0657  0.1204 -0.2035
26879W        W42010  11.076   8.155  16.510  0.2403 -0.0642  0.1079
26880W        W42011   2.734  15.360   2.155 -0.2083 -0.2568  0.1301
26881W        W42012   9.461   6.323   0.780 -0.0930 -0.1085  0.4928
26882W        W42013  14.559   4.031   3.762 -0.0177  0.0574  0.0190
26883W        W42014   8.483  11.496  14.146  0.5230  0.2909 -0.0725
26884W        W42015   1.537   3.758   2.576 -0.1383  0.0901 -0.1128
26885W        W42016  15.345  15.201  16.403 -0.1402  0.4953 -0.0784
26886W        W42017  13.589  17.359   0.340  0.1067  0.0378  0.1285
26887W        W42018  17.532   0.111   0.625 -0.4109  0.0280 -0.0189
26888W        W42019   7.094   1.302   6.065 -0.1702  0.0217 -0.0999
26889W        W42020  14.422  11.387  16.602  0.0546  0.1589  0.0285
26890W        W42021   2.296  15.305  14.878 -0.3405 -0.0428 -0.0546
26891W        W42022   7.217   1.208   3.389 -0.0625  0.0121 -0.2183
26892W        W42023  17.081   4.990   0.032  0.1948 -0.2410  0.1616
26893W        W42024   8.917   0.696   3.767 -0.0032 -0.1869 -0.2530
26894W        W42025   0.488   3.748  13.221 -0.0957 -0.3703  0.2127
26895W        W42026   3.398  10.203  14.598  0.0693 -0.1383 -0.3213
26896W        W42027   4.679  10.288  15.179  0.1441 -0.1523  0.0934
26897W        W42028   2.137   0.120  16.711 -0.0108 -0.0076  0.1662
26898W        W42029  16.326  14.909   6.409 -0.0620 -0.5781 -0.0688
26899W        W42030  12.668   8.445   5.714 -0.1069  0.0224  0.1723
26900W        W42031   7.432   6.157   4.487 -0.1237  0.0336 -0.1359
26901W        W42032   0.417   9.641  12.039 -0.0009 -0.2244  0.1048
26902W        W42033  16.459  17.057  12.927 -0.0497  0.0279  0.0895
26903W        W42034   3.427   4.404   4.966  0.0744  0.4114 -0.1895
26904W        W42035   3.741   7.029   2.769  0.1035  0.0746 -0.1966
26905W        W42036   0.106  16.784  15.311 -0.0491 -0.0394  0.0094
26906W        W42037  17.217  15.339  16.641  0.2744 -0.3390 -0.3003
26907W        W42038  11.713  10.602   0.138  0.0987  0.2415  0.1114
26908W        W42039  10.493  10.046  16.910  0.0827  0.0782 -0.2188
26909W        W42040  14.976   4.496  11.980 -0.3274  0.3763 -0.1348
26910W        W42041   8.621   3.122   3.465  0.2237  0.1815 -0.2025
26911W        W42042  12.618   7.887  15.746 -0.0409 -0.0599 -0.0767
26912W        W42043   8.342   6.013  14.076 -0.1122  0.0799 -0.0919
26913W        W42044  17.375  15.408   3.901 -0.1645 -0.0323 -0.0171
26914W        W42045  14.376   5.926   3.475  0.0719 -0.1141  0.1328
26915W        W42046  15.905  16.818  15.937 -0.0943  0.1108 -0.1958
26916W        W42047  12.409  15.102  15.736  0.1140 -0.3077  0.2154
26917W        W42048   8.979  16.354   0.331  0.1793  0.0114  0.2592
26918W        W42049   6.437  13.627   0.885 -0.1853  0.0307  0.2036
26919W        W42050   9.517  13.112   5.445  0.4809 -0.0569 -0.0940
26920W        W42051   9.427  17.570   1.225 -0.1082 -0.0449 -0.0321
26921W        W42052   3.963   3.029   2.271  0.1691 -0.0338  0.1509
26922W        W42053   4.903  10.644   4.256 -0.0479  0.2500 -0.0086
26923W        W42054   3.647  13.688   1.233  0.0780  0.2444  0.3280
26924W        W42055   2.146   4.994   3.784  0.1576  0.0571  0.1871
26925W        W42056   8.339   6.219   0.205 -0.0934 -0.1124  0.0340
26926W        W42057   9.983   5.295  12.803 -0.0067  0.1455 -0.3252
26927W        W42058   5.633  13.642   4.124 -0.1346 -0.1168 -0.0162
26928W        W42059  11.787  12.687  16.928 -0.1701 -0.0441 -0.2530
26929W        W42060  13.204   9.810   1.381 -0.2654 -0.0778 -0.1305
26930W        W42061  15.356   0.804   0.413  0.0101  0.2025  0.0994
26931W        W42062   0.779   6.190  16.901 -0.2196  0.1037 -0.1865
26932W        W42063   2.047  10.567  15.889 -0.1175  0.0989  0.0497
26933W        W42064   5.213  10.591   1.585 -0.0380 -0.1007  0.0563
26934W        W42065  13.359  16.110   5.098 -0.0424  0.0105 -0.1186
26935W        W42066  13.187   9.975  16.911  0.0742 -0.2832  0.1014
26936W        W42067  17.392   2.797  14.352  0.1313  0.0227  0.0123
26937W        W42068  14.958   8.329   1.619 -0.3302 -0.1363  0.1551
26938W        W42069  17.600  17.146  15.607 -0.2015  0.1806 -0.0709
26939W        W42070  10.384  12.202   5.794 -0.3080  0.0306  0.2253
26940W        W42071  10.197   0.993   4.272  0.1416  0.3867  0.0747
26941W        W42072  11.715   2.942   3.807  0.2505 -0.3166  0.0991
26942W        W42073   8.573   7.783   5.650  0.1079  0.0270  0.0834
26943W        W42074  15.264   5.304   4.762 -0.2878 -0.1823 -0.0732
26944W        W42075  17.494   7.266   1.252 -0.1196 -0.0488 -0.0378
26945W        W42076   9.514  13.985   6.350  0.3421 -0.4410  0.1946
26946W        W42077  16.752   4.914   5.792  0.2117  0.0166  0.1500
26947W        W42078  10.364   9.068  12.842  0.0873 -0.0130 -0.2149
26948W        W42079  15.888   8.565   4.705  0.0956  0.0031 -0.2013
26949W        W42080   7.760  13.560   0.489 -0.0618  0.1509  0.2303
26950W        W42081  15.454  12.591   4.278  0.1183  0.1145  0.0091
26951W        W42082   6.082   4.832  13.225 -0.0952 -0.1396  0.2637
26952W        W42083  10.083  15.056   2.918  0.2080  0.1108 -0.1491
26953W        W42084  10.376   2.770   4.267 -0.3620  0.2213 -0.4079
26954W        W42085   2.859  11.125  15.025 -0.0952  0.0277  0.1511
26955W        W42086   8.774  13.397  15.898  0.2641  0.0351 -0.0579
26956W        W42087   3.905   5.578  13.070 -0.1371 -0.1669 -0.0520
26957W        W42088   1.759   8.734   0.843 -0.1132 -0.4232 -0.0975
26958W        W42089  13.573   8.614  15.567 -0.2390  0.0253 -0.0478
26959W        W42090   7.619   3.522  11.601  0.1915  0.1841 -0.2558
26960W        W42091  10.067   4.708   4.458  0.0280  0.0026  0.0860
26961W        W42092   9.837  13.059   0.776 -0.1361  0.1331 -0.1658
26962W        W42093  15.047   5.846   1.819  0.0040  0.2730  0.0815
26963W        W42094  17.055   0.056   3.282  0.0630 -0.3415  0.2144
26964W        W42095  17.501  11.077  12.325  0.0477  0.1723  0.1137
26965W        W42096   8.163  14.269  12.675 -0.0307 -0.0098  0.1850
26966W        W42097   9.494   1.034   0.660  0.0907 -0.0746  0.0403
26967W        W42098   3.585   8.929  15.348 -0.4566 -0.0794 -0.3030
26968W        W42099  10.552  15.324  13.813  0.0110 -0.2551 -0.0335
26969W        W42100   3.759  12.317   2.924 -0.1603 -0.2833 -0.0609
26970W        W42101   7.017  14.406  11.793  0.0013 -0.1885 -0.2086
26971W        W42102   3.248   6.988  15.203  0.2266  0.0049  0.0501
26972W        W42103  15.351   8.850   5.665 -0.1574  0.3365 -0.1589
26973W        W42104   5.800  15.606   2.794 -0.2380  0.1424 -0.0783
26974W        W42105   7.349   1.453   2.367 -0.1267 -0.2171 -0.0311
26975W        W42106   5.612   2.753  10.770 -0.1465 -0.0690  0.1182
26976W        W42107  16.695  14.982   0.883  0.2908  0.0434  0.0910
26977W        W42108   6.132   5.864   0.174  0.2156  0.5322  0.3925
26978W        W42109  11.573  13.811   0.550  0.0398  0.0281  0.0527
26979W        W42110   1.312   9.455   1.353 -0.1482  0.1014 -0.0750
26980W        W42111   0.578   3.864  13.959  0.0333 -0.0502  0.0659
26981W        W42112   1.129   4.850   5.685 -0.1135 -0.1807  0.0881
26982W        W42113  11.278  14.962   2.460  0.4901 -0.1199 -0.1142
26983W        W42114   2.266  11.551  11.639  0.2177  0.0047  0.1227
26984W        W42115  12.202  11.591  14.670 -0.2697  0.3007  0.1936
26985W        W42116  15.063  10.791  14.237 -0.0747  0.0130  0.0683
26986W        W42117   8.829   6.316   0.076  0.0901  0.1488  0.1212
26987W        W42118   4.541  16.740   2.469 -0.1350  0.2542  0.0392
26988W        W42119  14.107   5.922   4.210 -0.1451 -0.1067  0.2220
26989W        W42120   6.469   1.700   4.452  0.1348 -0.2373 -0.1189
26990W        W42121  10.761   5.195   4.262  0.1033  0.0097  0.2075
26991W        W42122   3.479   1.670   2.388  0.1541  0.1835  0.0671
26992W        W42123  17.108   7.912  11.234 -0.3798 -0.1382  0.1981
26993W        W42124  16.740   2.705  15.909 -0.1606 -0.0007  0.1978
26994W        W42125   4.615  16.687   3.248  0.0603 -0.3585 -0.2686
26995W        W42126  12.969  12.533   3.364 -0.0542 -0.0776 -0.0463
26996W        W42127   2.994  14.759   5.675 -0.0283 -0.1708  0.1358
26997W        W42128  16.801  10.575   0.734 -0.0259 -0.0702  0.4502
26998W        W42129   4.597   2.838   1.194  0.1871 -0.1159 -0.0875
26999W        W42130  12.149  11.765   6.480  0.1478  0.0828 -0.0213
27000W        W42131   1.785   1.167  12.205  0.1038 -0.1335  0.0452
27001W        W42132   8.480  11.441   1.661 -0.0655  0.0811  0.0457
27002W        W42133   0.410  17.064   2.556 -0.1091  0.1686  0.0536
27003W        W42134  15.222   5.174  14.728  0.1452 -0.2880 -0.0610
27004W        W42135  17.322  11.239   0.704 -0.1846 -0.0311 -0.1700
27005W        W42136  12.317  16.931   2.932 -0.0148  0.1677 -0.0997
27006W        W42137  11.799  14.102  11.935 -0.1778  0.1814  0.0213
27007W        W42138   5.198   9.471   1.466  0.0688 -0.0521 -0.0268
27008W        W42139  15.245   3.019  13.553  0.2089 -0.0854 -0.1000
27009W        W42140  15.358   6.232   4.576  0.0089  0.1313  0.3308
27010W        W42141   3.735   6.716  10.152  0.1744  0.1037 -0.5293
27011W        W42142   2.872   9.346   5.792 -0.1985 -0.1426  0.0975
27012W        W42143   9.285  17.401   2.573  0.1153  0.1938 -0.0453
27013W        W42144  14.569   2.696   3.700 -0.0484 -0.2257  0.0106
27014W        W42145  11.647  11.394  14.020 -0.1215 -0.0751  0.0530
27015W        W42146   8.587   5.025  13.356 -0.1636  0.2336 -0.0349
27016W        W42147  11.335   3.096  11.061 -0.0724  0.1922 -0.2007
27017W        W42148   3.747   6.077  16.555  0.2720  0.1376  0.1947
27018W        W42149   2.624  15.767  12.923 -0.3615  0.0884  0.0180
27019W        W42150   7.664  13.475   5.924 -0.1218 -0.0178 -0.1053
27020W        W42151  17.569   6.678  11.483  0.3734  0.1689  0.2848
27021W        W42152   8.148  11.705  13.045  0.0889  0.1236 -0.1143
27022W        W42153  13.031   1.539   2.016  0.0104  0.0572 -0.1884
27023W        W42154   9.489   8.061  14.542 -0.0312  0.0299 -0.0047
27024W        W42155   9.391   4.111   2.351 -0.2956 -0.2395 -0.0588
27025W        W42156  13.311   6.292  11.377  0.2278  0.0357 -0.1398
27026W        W42157   8.118  10.390   2.972  0.0345  0.0201  0.0210
27027W        W42158   3.169  10.806   5.608 -0.0280  0.0745  0.1293
27028W        W42159   8.628   5.519  16.186 -0.1921  0.0213  0.0173
27029W        W42160   2.210   2.158   4.859  0.0227  0.1742 -0.1048
27030W        W42161   5.303   1.791   2.755  0.0584 -0.0677 -0.0987
27031W        W42162   0.206   2.951  12.026 -0.2098  0.2889 -0.4159
27032W        W42163  12.125   0.621   3.099  0.3419  0.1910  0.1138
27033W        W42164   5.752   2.784  16.847 -0.0773 -0.3900  0.0127
27034W        W42165  15.998   8.254  15.639  0.0407  0.0402 -0.1486
27035W        W42166  15.499  16.416  13.029 -0.0375 -0.2787  0.2333
27036W        W42167   5.364  15.286  15.894  0.1657  0.2632  0.1814
27037W        W42168   9.555  10.178   5.709  0.0435 -0.0350  0.2633
27038W        W42169  14.209  15.316  15.403  0.0100 -0.0880 -0.0245
27039W        W42170   9.282  17.120  14.940  0.0501  0.2212  0.2544
27040W        W42171   0.563   3.316  14.661 -0.1044 -0.2005 -0.0825
27041W        W42172  13.857   3.203   4.398  0.4035 -0.1320  0.5290
27042W        W42173  16.852   1.727   1.792  0.2132 -0.1247 -0.1490
27043W        W42174   8.869   1.836  16.766  0.3102 -0.2327 -0.1926
27044W        W42175   5.489  14.847  16.118 -0.1128  0.0779  0.2629
27045W        W42176   1.694  11.378  11.799  0.1050  0.2503 -0.2207
27046W        W42177   0.846   9.314   2.824  0.3565  0.1433 -0.5693
27047W        W42178   2.417  16.815   1.237 -0.0864 -0.2217  0.0557
27048W        W42179   3.944   4.171  13.033  0.0838  0.1017  0.1978
27049W        W42180  10.887   8.579  16.064  0.1398  0.1150  0.0988
27050W        W42181   8.363   9.149   6.199 -0.1382 -0.0540 -0.2287
27051W        W42182   6.789  12.840   3.889  0.2454  0.1280  0.2604
27052W        W42183   6.231  13.459   3.565 -0.0364  0.1675  0.0662
27053W        W42184   7.892  16.505  12.228  0.2863 -0.0464  0.0868
27054W        W42185  12.453   6.028   1.593  0.1353  0.0634 -0.2644
27055W        W42186   7.632   5.766  14.962 -0.1313 -0.0424  0.0070
27056W        W42187   0.786   9.307   5.467  0.1033  0.2216  0.1980
27057W        W42188   4.458   1.754   2.984 -0.0966  0.1229  0.1408
27058W        W42189   3.674   9.841  14.987 -0.2335 -0.2196  0.1956
27059W        W42190   2.125   1.308   3.467 -0.1716 -0.1778  0.1805
27060W        W42191  11.115  10.414   1.793  0.0780 -0.2398 -0.0333
27061W        W42192  13.046   7.565   5.269 -0.0577  0.1684 -0.2663
27062W        W42193   6.629  16.333   3.415  0.0308  0.2580 -0.1727
27063W        W42194   1.132   6.538   3.728 -0.1109 -0.0890  0.2727
27064W        W42195   0.102  13.173  12.756 -0.0285  0.0287  0.4741
27065W        W42196  15.118  12.255   4.392 -0.1594  0.0247  0.0163
27066W        W42197  14.299  10.075   3.136  0.0801 -0.0669  0.2683
27067W        W42198   3.762  12.725   4.197 -0.1938 -0.0987 -0.2173
27068W        W42199   9.045   1.554  11.379  0.0042 -0.1653 -0.0598
27069W        W42200   5.698  10.223   0.416  0.1105  0.0272 -0.0772
27070W        W42201   0.567  10.818   3.142  0.1322  0.0149  0.3038
27071W        W42202  10.466  15.798  11.203  0.1701 -0.0582 -0.0643
27072W        W42203   2.181  10.028   3.640  0.2431  0.1036 -0.4002
27073W        W42204   5.147  12.757  16.164  0.1385  0.1503  0.2967
27074W        W42205  11.571  15.720  12.580 -0.2244 -0.0218 -0.0201
27075W        W42206  15.410   9.697  15.049  0.1064  0.3486 -0.0553
27076W        W42207   2.051  12.510  16.466  0.0970  0.2372  0.0952
27077W        W42208   1.066  16.883  15.474  0.1536 -0.0136 -0.1838
27078W        W42209  11.480   6.378   4.686 -0.0638 -0.3524 -0.2631
27079W        W42210  13.017  16.440  13.863 -0.2615 -0.2763  0.1030
27080W        W42211  13.224   6.962   1.134  0.1686 -0.0226 -0.1064
27081W        W42212  10.831   3.286   2.257 -0.1614 -0.2424 -0.2222
27082W        W42213   1.928  11.558  16.414  0.0282  0.0634  0.0209
27083W        W42214   0.590   2.737   4.077  0.2122 -0.0584  0.1103
27084W        W42215   7.560   9.657   0.841  0.1405 -0.0980  0.0159
27085W        W42216   0.885   8.971   1.611  0.0304  0.1073 -0.0753
27086W        W42217   2.579  11.973  16.034  0.2754 -0.0816 -0.1883
27087W        W42218   5.642  13.176  12.062 -0.0358 -0.2068  0.0253
27088W        W42219  14.353   3.700  15.741  0.1493  0.2232  0.0069
27089W        W42220   0.584   4.492  11.999 -0.0914  0.0295  0.4863
27090W        W42221   0.968   0.714  12.293  0.3194 -0.3392  0.4180
27091W        W42222   5.994  13.495  15.412 -0.0076  0.1055 -0.0271
27092W        W42223  11.277   7.161   5.927  0.0152 -0.0533 -0.0629
27093W        W42224  10.954   2.838  11.905  0.0132  0.1271 -0.2355
27094W        W42225   6.625  13.647  14.893  0.1253  0.1146 -0.0057
27095W        W42226  11.731   0.692  12.091 -0.1836  0.1275 -0.4572
27096W        W42227  14.821   7.246  16.743 -0.0703 -0.0220  0.0833
27097W        W42228  11.204   5.994   2.555  0.0927  0.1462  0.2455
27098W        W42229   4.900   8.122  10.690 -0.2565  0.1399  0.3929
27099W        W42230  15.006   5.846  13.099 -0.2721 -0.0936  0.3496
27100W        W42231   1.569   7.253  14.483 -0.2349 -0.0530 -0.0394
27101W        W42232  10.076  10.885   0.728 -0.3017  0.0421  0.0258
27102W        W42233   9.909  11.494  13.188  0.0121 -0.1487  0.0188
27103W        W42234  17.668  10.274   0.696 -0.0152 -0.4124 -0.1909
27104W        W42235   2.437  12.094   6.376 -0.0383 -0.4720 -0.0471
27105W        W42236   9.565   8.499   4.199  0.1232 -0.1911  0.3853
27106W        W42237   3.449  11.599   0.048  0.0266  0.0401  0.1868
27107W        W42238   3.516   5.842  14.451 -0.1048 -0.0018  0.2085
27108W        W42239  13.598  14.997   0.654  0.0688  0.1013 -0.2113
27109W        W42240   7.359   0.507  16.645  0.0516  0.0609  0.1320
27110W        W42241  11.730   5.242  14.515 -0.1600 -0.0022 -0.0637
27111W        W42242   3.102  14.496   1.971  0.0664  0.1670  0.2758
27112W        W42243   0.529   9.151  11.115 -0.1269  0.1293 -0.2013
27113W        W42244   0.512   7.267   3.350 -0.1042 -0.1167 -0.1769
27114W        W42245  14.307  12.556   2.185 -0.2200  0.1421  0.0360
27115W        W42246  15.556   9.296   4.300 -0.1450  0.1095 -0.1417
27116W        W42247   1.320   7.549   1.742  0.1927  0.0174  0.0180
27117W        W42248  10.381   0.435   5.353 -0.0669 -0.1796 -0.2869
27118W        W42249   0.995   0.750  11.506 -0.1415 -0.0127 -0.1642
27119W        W42250  17.090   1.175   4.995  0.1461 -0.0749 -0.0300
27120W        W42251   6.004  11.592  11.743 -0.0756  0.1052 -0.1751
27121W        W42252  16.148   5.127  14.257  0.2396  0.2742 -0.1897
27122W        W42253  10.767   7.757  10.891  0.0506  0.1050 -0.1629
27123W        W42254   2.571   5.173  11.716 -0.2969 -0.2237 -0.0205
27124W        W42255   0.817  14.617   4.298  0.0282  0.1419 -0.3538
27125W        W42256   4.706   0.526  15.926 -0.0174  0.0831  0.3310
27126W        W42257   4.275   1.307   4.360 -0.1598  0.0930  0.1338
27127W        W42258   0.550   1.355   5.509  0.1472 -0.2042 -0.0106
27128W        W42259  16.850  12.620  13.065 -0.0157  0.2448 -0.1838
27129W        W42260   2.275  10.725  15.389  0.2967 -0.0011  0.3369
27130W        W42261  16.077   3.555   3.008  0.0240  0.1303 -0.0331
27131W        W42262  10.293   3.528   4.107 -0.1068  0.1607  0.1467
27132W        W42263  14.181  16.659   0.236 -0.1829 -0.0902  0.1157
27133W        W42264  11.727   5.978   5.632  0.1192  0.0681  0.1826
27134W        W42265   9.227  16.899   5.945  0.1354  0.1856 -0.1459
27135W        W42266   6.517  16.289  15.846 -0.1174  0.1809  0.3668
27136W        W42267   9.320   7.057   3.871  0.0907 -0.0795 -0.0054
27137W        W42268  14.386  15.716  13.555 -0.1836  0.0510  0.1064
27138W        W42269   8.019   2.535  15.388 -0.1779 -0.2349  0.0357
27139W        W42270   7.713  15.926   2.089 -0.1388 -0.1636 -0.1482
27140W        W42271   1.650   0.330  15.525  0.2462 -0.1162  0.1677
27141W        W42272   3.916   8.166   3.820  0.1015 -0.0306 -0.4199
27142W        W42273   7.807  11.205  12.995 -0.1777  0.0986 -0.0656
27143W        W42274   5.539   6.853   1.108  0.0919  0.1813  0.0020
27144W        W42275  13.625   2.930  11.347 -0.0202 -0.0813  0.1563
27145W        W42276   0.391  10.604   0.708 -0.5577  0.4766  0.1008
27146W        W42277  14.346   7.355   5.460  0.0925 -0.1286  0.0533
27147W        W42278  15.376  12.881  15.770  0.0527  0.2365  0.0069
27148W        W42279  15.990  10.919  16.323  0.1788  0.1127  0.2703
27149W        W42280  10.644  15.238  12.688 -0.0399  0.2354  0.1010
27150W        W42281  12.921  16.063   4.837  0.2604  0.0138  0.0708
27151W        W42282   7.970  11.824  12.518  0.3969 -0.2537 -0.0242
27152W        W42283  13.683   3.817  11.274 -0.1615  0.1364  0.0034
27153W        W42284   0.345   8.927   4.938  0.2064 -0.1198 -0.1868
27154W        W42285  13.466   2.387   0.161  0.1431  0.0563  0.1935
27155W        W42286  14.276   6.721   2.310 -0.1019 -0.2334  0.0291
27156W        W42287   9.302   9.743   4.041  0.1942 -0.0563 -0.0497
27157W        W42288  15.381   0.970  12.757  0.0717  0.0217 -0.0638
27158W        W42289   4.681   9.225   0.797  0.1131 -0.0496  0.1563
27159W        W42290   2.769  10.792  16.253  0.1072 -0.2456 -0.2157
27160W        W42291   9.994   9.392  12.342  0.3543 -0.0950  0.0076
27161W        W42292  10.157  15.145   5.034 -0.0497  0.1139  0.0420
27162W        W42293   3.972   5.591   2.087 -0.1957 -0.2596  0.0931
27163W        W42294  14.413  14.228  14.615  0.0797 -0.1639 -0.0169
27164W        W42295   5.904  10.989   1.162  0.2488 -0.1256 -0.2085
27165W        W42296   3.975  14.142   3.868  0.0235  0.1759 -0.0715
27166W        W42297   4.003   6.766  12.554  0.1083  0.0631  0.0223
27167W        W42298   0.226  14.074  15.515  0.0692  0.2822 -0.0177
27168W        W42299   8.111   6.519   4.175  0.1113 -0.2367  0.1061
27169W        W42300   1.749  13.213   3.231 -0.0214  0.4116  0.1599
27170W        W42301  15.530   1.758  13.161  0.0611 -0.2110  0.1349
27171W        W42302  14.946   3.831  14.449 -0.1414  0.0693 -0.4131
27172W        W42303  15.835   3.312   4.852  0.0063  0.1243 -0.0515
27173W        W42304   2.187   2.345  14.937 -0.2756 -0.2633 -0.1680
27174W        W42305  17.593  12.184   4.204  0.0131 -0.1277  0.1465
27175W        W42306   6.012  16.439   0.953 -0.2748 -0.0825 -0.3513
27176W        W42307   3.223   9.976   0.306 -0.0436  0.1411  0.1574
27177W        W42308   3.273   4.069  16.405  0.1311  0.2098 -0.1631
27178W        W42309  15.757   7.234   0.985  0.0167 -0.2376 -0.0554
27179W        W42310   5.957   8.291  13.658  0.1933  0.1944 -0.4113
27180W        W42311  12.751  14.588   5.109 -0.0592  0.0331  0.2016
27181W        W42312   2.753  12.094  15.200  0.0412  0.0266 -0.0701
27182W        W42313   0.517   7.588   4.974 -0.2672 -0.2568  0.1551
27183W        W42314  10.166  16.545   3.838 -0.0366  0.3597 -0.3034
27184W        W42315  15.767   9.184   3.790 -0.1117 -0.2148 -0.0586
27185W        W42316  14.089   7.045   2.754 -0.2538  0.1470 -0.0788
27186W        W42317  10.593   7.911  11.473  0.0286  0.0429  0.1313
27187W        W42318   5.974   4.916   3.339 -0.1720 -0.3346  0.2652
27188W        W42319  13.718  14.078  12.753  0.0130 -0.2193 -0.0440
27189W        W42320  12.223   6.604   3.934  0.0002 -0.0803  0.0356
27190W        W42321   5.207   4.995   3.228  0.4211 -0.1859  0.1645
27191W        W42322  15.432   0.345   0.637  0.1177  0.2722 -0.0948
27192W        W42323   7.378   2.285   1.829 -0.1673  0.1248 -0.0303
27193W        W42324   9.445   9.906  14.928 -0.0428  0.0122  0.2935
27194W        W42325   6.351  10.776   3.392  0.0997  0.0370 -0.0985
27195W        W42326  12.797   1.721  14.949 -0.0801 -0.3123  0.1611
27196W        W42327  13.366   6.170  10.929  0.1543  0.3023  0.0898
27197W        W42328   1.572   4.682  14.460 -0.2089 -0.2326 -0.1702
27198W        W42329   2.952   7.191  11.810  0.2880  0.1213  0.0047
27199W        W42330   4.291  13.453  11.677  0.0707  0.1427 -0.0729
27200W        W42331  12.617   0.687   5.359 -0.0939 -0.0575  0.2570
27201W        W42332   3.559  14.019   3.202 -0.2003 -0.1689 -0.2209
27202W        W42333   6.382   3.262  15.236 -0.0102  0.1783  0.3556
27203W        W42334  11.530  16.185  13.071 -0.6213  0.4119  0.2162
27204W        W42335   6.555  10.666  14.234  0.0417 -0.1313 -0.0896
27205W        W42336   4.092  17.004  15.044  0.0673 -0.2264  0.2907
27206W        W42337   9.232   3.199  15.308 -0.2683 -0.1165  0.1238
27207W        W42338   2.587  11.242  13.812  0.1016  0.0154 -0.0570
27208W        W42339  11.291   5.603  16.637 -0.0614  0.0284  0.1419
27209W        W42340  17.396  14.062   3.977 -0.1022  0.2674  0.1211
27210W        W42341  15.440  12.911   0.614  0.2003  0.0526 -0.1990
27211W        W42342   1.361   6.809  16.151 -0.1613 -0.0865  0.0302
27212W        W42343  11.251  10.317   3.056  0.1779 -0.0384  0.1071
27213W        W42344  13.854   8.061  13.302 -0.0299 -0.1921 -0.1771
27214W        W42345   8.276   4.579  16.546  0.2093 -0.1428  0.2455
27215W        W42346  15.593   9.495   6.358 -0.2401 -0.0820  0.1378
27216W        W42347  14.884   0.129   4.148  0.2001 -0.1504 -0.1672
27217W        W42348   5.876  16.734  13.344 -0.2215 -0.2963  0.0227
27218W        W42349  11.175   6.248  10.516  0.2151  0.1591 -0.1395
27219W        W42350   6.007   0.676  16.344 -0.0085 -0.1094 -0.4476
27220W        W42351  16.129   1.840  16.055  0.0686  0.1840 -0.1289
27221W        W42352   6.471   3.326  14.637  0.4480  0.1180 -0.2176
27222W        W42353  11.967   0.408   2.654  0.2558 -0.1692  0.0713
27223W        W42354  11.254   0.454   6.083 -0.2868  0.2569  0.1786
27224W        W42355   0.806  11.376   0.154  0.0840 -0.0111  0.1470
27225W        W42356   7.271  12.096   0.149 -0.0342  0.3833 -0.1524
27226W        W42357  13.022   9.321  15.934  0.4195 -0.2336  0.1134
27227W        W42358   7.277   6.741   4.913 -0.2139 -0.2358  0.0484
27228W        W42359   9.129   5.719  12.380  0.0477  0.2605  0.0401
27229W        W42360  10.461  13.366  15.626 -0.0345 -0.1412 -0.1477
27230W        W42361  10.889  16.331  14.978  0.0103 -0.2627 -0.0561
27231W        W42362   6.842  14.857  15.298 -0.2418  0.5850  0.0452
27232W        W42363   9.687  11.561   1.608 -0.0428 -0.2557 -0.0926
27233W        W42364   6.907   4.818  11.380 -0.4879  0.3918  0.1778
27234W        W42365  10.997   4.902  16.183  0.2398  0.3267  0.1585
27235W        W42366   6.210  13.282   0.367  0.2695 -0.0160 -0.0996
27236W        W42367  12.086  12.456  11.617 -0.0521 -0.2251  0.3391
27237W        W42368  15.032  14.493  11.898  0.3079  0.0661 -0.0551
27238W        W42369  15.151   4.668   2.599 -0.3264  0.0523  0.1640
27239W        W42370   9.809   2.076  12.345 -0.0148  0.4025  0.0451
27240W        W42371  15.108   4.584   4.400  0.1770 -0.0223 -0.3363
27241W        W42372   8.186  17.324  14.667  0.0457  0.0638 -0.0045
27242W        W42373   9.800  11.247  12.787  0.1200  0.0497 -0.3238
27243W        W42374  10.854  11.190   3.446  0.0564  0.0064 -0.2982
27244W        W42375   5.495  12.315   5.420 -0.0321  0.0204  0.0306
27245W        W42376  12.099   1.186   3.156 -0.3924  0.0301 -0.2135
27246W        W42377  15.948  15.275   5.777  0.0379  0.1860 -0.3483
27247W        W42378   0.909   6.477  13.004  0.2171 -0.0179  0.0222
27248W        W42379  13.953   1.273  16.935  0.0262  0.1154  0.1838
27249W        W42380  11.873   6.718   4.307 -0.1804  0.2187  0.0925
27250W        W42381   0.093   6.377   2.229  0.0567 -0.0205 -0.0384
27251W        W42382  14.812   2.830  13.594 -0.0005 -0.0102  0.0639
27252W        W42383  12.924   2.561   1.578 -0.0531  0.1976 -0.1230
27253W        W42384  13.981   7.097  11.290  0.1571  0.0675  0.2074
27254W        W42385  14.759   6.266   3.304  0.1101  0.0844  0.0225
27255W        W42386  16.365   0.820  16.505 -0.0830  0.1426  0.0898
27256W        W42387  12.431  12.721   5.006 -0.1608  0.3983 -0.1379
27257W        W42388   9.373   6.622   2.521 -0.3487 -0.0752  0.0404
27258W        W42389  14.994   8.174   5.323  0.3220 -0.1101  0.0242
27259W        W42390   7.407   7.389  12.573  0.2425  0.2239 -0.1669
27260W        W42391   4.991  12.975   3.925  0.1423 -0.0932  0.2998
27261W        W42392   1.868   9.765  12.512  0.0710  0.0516 -0.1238
27262W        W42393   6.429   6.477   3.076 -0.4212  0.0359 -0.0080
27263W        W42394  11.009  14.647  14.302 -0.0559  0.0759 -0.0399
27264W        W42395  14.317  11.467   2.450 -0.1532  0.4052  0.0681
27265W        W42396  17.334   4.536  16.149  0.1236 -0.1304  0.3270
27266W        W42397   5.287   4.329  15.372 -0.0593  0.4142 -0.0027
27267W        W42398   7.327   8.787   3.682  0.2905 -0.0173  0.1964
27268W        W42399  11.627   6.877   4.689 -0.1092 -0.0471  0.1367
27269W        W42400   8.765  12.542   0.114 -0.1043 -0.2015  0.3137
27270W        W42401   5.540  12.128  11.099 -0.1249  0.2833 -0.0798
27271W        W42402  15.451   9.586  12.656  0.0782  0.1618  0.0677
27272W        W42403   6.591  13.227  16.111  0.0772 -0.2894 -0.2657
27273W        W42404  14.558   1.626  16.223 -0.0312  0.1213 -0.2726
27274W        W42405   2.928  14.453   4.703 -0.1644  0.3803  0.2829
27275W        W42406   3.803   9.086  12.846  0.3694  0.1326  0.0440
27276W        W42407  12.051   4.892   1.842 -0.1432 -0.1804  0.3031
27277W        W42408   3.019  15.001  15.461 -0.1493  0.1369 -0.0941
27278W        W42409  13.977   9.423  12.609  0.1954 -0.1968  0.0326
27279W        W42410   0.161   9.342  14.923 -0.0157  0.0279  0.0554
27280W        W42411  16.667  10.517  16.170  0.0689 -0.0249 -0.2007
27281W        W42412  15.289   5.394   0.829 -0.0995  0.0368 -0.2328
27282W        W42413  14.319   5.203  14.607  0.1724 -0.0166  0.2014
27283W        W42414   3.025   7.939  15.137 -0.0328 -0.1139  0.3029
27284W        W42415   9.391   3.952   4.463  0.0592  0.0549  0.1963
27285W        W42416   5.721   7.065  12.573 -0.0542 -0.1057 -0.2581
27286W        W42417  15.664   7.418   3.030 -0.1431  0.0685  0.1234
27287W        W42418  15.889  12.128   3.543 -0.0506  0.1864  0.2611
27288W        W42419  12.294   2.822  11.960  0.1506 -0.2869 -0.0725
27289W        W42420   4.349   4.444   3.320 -0.0623 -0.0597 -0.1654
27290W        W42421   1.309   7.496   4.624  0.0406 -0.1255 -0.1391
27291W        W42422  12.490  17.037   5.790 -0.3735 -0.0984  0.1518
27292W        W42423  15.191   9.709   1.751 -0.3029  0.0241  0.0760
27293W        W42424   6.040   0.670   2.532  0.1064  0.0857  0.1624
27294W        W42425  12.830  16.231   5.272 -0.2127  0.0087 -0.1262
27295W        W42426  16.261   8.565  11.072 -0.1477 -0.1450 -0.0942
27296W        W42427   0.516  15.116  15.574 -0.1019 -0.0944 -0.1382
27297W        W42428   8.667  14.926   3.701 -0.1792  0.1003 -0.0323
27298W        W42429  13.398   7.598   1.618 -0.2686  0.1645 -0.2386
27299W        W42430   4.163   7.425  15.611 -0.1067 -0.1326  0.2264
27300W        W42431  14.292  13.798   3.647  0.1212  0.5092  0.0089
27301W        W42432   3.917   2.763  14.062  0.0889 -0.1341 -0.0746
27302W        W42433  17.218   1.735  14.767  0.0946 -0.1435  0.0439
27303W        W42434   6.555  14.444  16.113 -0.1105 -0.0511 -0.3189
27304W        W42435  14.561   0.367  14.416  0.2555  0.0507 -0.0309
27305W        W42436   2.883  12.883  16.233 -0.2052  0.0189  0.1055
27306W        W42437   4.302   5.818   3.108 -0.1691  0.0532  0.0746
27307W        W42438  15.280   5.125  15.739  0.0302 -0.0941 -0.1220
27308W        W42439  16.172   0.622   2.606  0.0518  0.0263  0.1712
27309W        W42440   9.040  15.787  14.597 -0.0621  0.0867  0.0132
27310W        W42441   2.273   3.292  15.356 -0.1498  0.2696  0.1037
27311W        W42442   6.720   2.813  13.975  0.2525  0.2213  0.1549
27312W        W42443  15.289   9.063   2.742 -0.0494  0.1752  0.1217
27313W        W42444  14.240   6.345  15.660  0.2169  0.1947  0.0423
27314W        W42445   0.826   6.587  14.162  0.0454  0.0244 -0.0633
27315W        W42446  13.628  10.372   2.115 -0.0061 -0.1840  0.1176
27316W        W42447  17.254  12.455  11.791  0.0828  0.3179 -0.3620
27317W        W42448  12.553   9.719  12.711  0.1674 -0.0056 -0.2857
27318W        W42449   5.693  15.605   2.075 -0.1003  0.1740 -0.2074
27319W        W42450  14.759  11.251   3.608  0.3322 -0.0521 -0.3535
27320W        W42451   2.389   7.690  12.363  0.1999 -0.0987  0.2748
27321W        W42452  16.516   5.463   6.381 -0.2933  0.0359 -0.1348
27322W        W42453   0.080  14.216   1.081 -0.1112  0.0608  0.1668
27323W        W42454  14.326  14.709  14.622  0.2427 -0.3556 -0.0935
27324W        W42455  12.135   6.350   0.221 -0.0422 -0.2772  0.0424
27325W        W42456   2.984  11.879  13.198  0.1106 -0.1321  0.0140
27326W        W42457  11.081  10.977   5.891  0.1544 -0.1027  0.4541
27327W        W42458   8.699  16.348   6.334 -0.3087  0.0017  0.3343
27328W        W42459  10.504  17.392  14.306  0.0288 -0.3039 -0.0628
27329W        W42460   8.980   2.289   5.847 -0.0571 -0.2287  0.0445
27330W        W42461  10.773   2.626  11.096  0.2937  0.0887  0.0205
27331W        W42462   1.218   2.418   3.365 -0.2232 -0.2089 -0.0436
27332W        W42463  15.764  16.933   1.715 -0.1636 -0.1600 -0.1370
27333W        W42464  12.543   3.860  16.457 -0.0059  0.0396 -0.0714
27334W        W42465  15.526   8.333   3.453 -0.1046 -0.3575  0.1142
27335W        W42466   2.797  17.493   2.764  0.2542 -0.2683  0.3454
27336W        W42467   7.383   9.638   0.091 -0.0618 -0.0039 -0.0138
27337W        W42468  11.660  15.935   1.287  0.0906  0.0137 -0.0776
27338W        W42469   4.245  17.171  14.564  0.2777 -0.0395  0.1740
27339W        W42470   1.766   1.569  14.478 -0.1065 -0.1179  0.0704
27340W        W42471  13.965   1.631  14.107 -0.1088  0.1228  0.1567
27341W        W42472   2.309  14.357   3.048 -0.0753  0.0362 -0.1538
27342W        W42473  16.158  10.059   2.688 -0.0547 -0.0377 -0.0575
27343W        W42474   9.140  13.026   4.986  0.2605  0.0765  0.2900
27344W        W42475   5.517  10.862  16.851  0.0378 -0.1024 -0.2219
27345W        W42476  15.546   7.795   3.757  0.1362 -0.0010  0.2943
27346W        W42477  15.232   0.203   3.065 -0.0036  0.1604  0.2510
27347W        W42478  13.056   3.989  16.615 -0.0786 -0.0941 -0.1671
27348W        W42479  15.565  16.282  12.573 -0.1391 -0.0554  0.2474
27349W        W42480   7.602   6.405   4.128 -0.1011 -0.5438 -0.0634
27350W        W42481   0.977   7.719  13.619 -0.0670  0.2074  0.0683
27351W        W42482   5.217   7.622   3.559  0.1463 -0.0781 -0.1429
27352W        W42483   9.290  15.589  12.251 -0.2083  0.0528  0.0554
27353W        W42484   6.497   4.984  12.846  0.1040 -0.1432  0.0570
27354W        W42485   8.700  11.943  12.150  0.0660 -0.0887  0.1038
27355W        W42486  15.606   2.222  13.943  0.4410 -0.1749 -0.1855
27356W        W42487   8.098  12.439   4.573 -0.0819 -0.1519 -0.0443
27357W        W42488   4.806  11.448  13.857 -0.3290 -0.3818 -0.0061
27358W        W42489  16.943   1.045   3.916  0.0555  0.0179 -0.0220
27359W        W42490   3.222   7.220  12.226  0.1950  0.0874  0.0261
27360W        W42491  10.667  12.454   0.619  0.3325 -0.1307  0.3252
27361W        W42492   7.321  12.484  14.044 -0.1704 -0.2180 -0.0153
27362W        W42493   6.923  15.026   1.769 -0.0569  0.1292  0.0507
27363W        W42494   3.692   7.505   3.096 -0.1123 -0.0779  0.1235
27364W        W42495  12.039  12.618   1.466  0.2558 -0.0618 -0.0882
27365W        W42496   4.019   1.571   2.595  0.1626  0.0918  0.2383
27366W        W42497   2.039   6.588  15.623 -0.1256 -0.2333 -0.0251
27367W        W42498   6.534   7.109  11.766 -0.0320  0.0544 -0.0915
27368W        W42499   8.757   8.978   1.010  0.0546  0.2281 -0.3119
27369W        W42500   2.116  16.956   2.527  0.0038 -0.0599  0.3727
27370W        W42501   3.308  10.040  13.338  0.0029  0.0805 -0.0662
27371W        W42502   9.316  15.582  15.430 -0.0256 -0.0080 -0.1135
27372W        W42503  11.640   8.640  14.845 -0.0021 -0.1437 -0.2622
27373W        W42504  13.578   4.626   1.389 -0.0722 -0.0611  0.3120
27374W        W42505   9.812  15.404  16.731 -0.1493  0.0141 -0.0881
27375W        W42506   2.095   1.498  15.446  0.4073  0.2492 -0.1995
27376W        W42507  14.880  13.739  15.561 -0.0376 -0.0062 -0.0662
27377W        W42508  10.126  17.540  12.529 -0.0674 -0.0663 -0.0903
27378W        W42509   4.957   2.086   1.017  0.1349  0.2275  0.0904
27379W        W42510  10.891   0.133   1.914  0.2589 -0.1110 -0.2061
27380W        W42511  12.753  10.032  13.689 -0.2603  0.1617 -0.0326
27381W        W42512   6.266   5.637   6.015  0.0470  0.2806  0.2544
27382W        W42513  16.939   6.157  16.396 -0.2513  0.2492  0.1157
27383W        W42514  10.558   8.259  16.350  0.1547  0.0150  0.0553
27384W        W42515  13.053   4.724   1.593  0.0721 -0.0713 -0.1979
27385W        W42516  17.415   7.028  14.825  0.3458  0.0940  0.1523
27386W        W42517  10.482  15.664   6.181 -0.1466 -0.0585 -0.1323
27387W        W42518   2.877   0.401  12.558  0.1227  0.1618  0.3387
27388W        W42519  11.979   3.332  15.307  0.0426 -0.2396 -0.1318
27389W        W42520  16.307  14.494  14.951  0.0690  0.1366  0.0686
27390W        W42521  12.416  10.233   5.482  0.3716  0.1049 -0.0902
27391W        W42522   9.744   4.337   4.162  0.1935  0.3439  0.2581
27392W        W42523   7.599   1.350   0.339  0.0096 -0.0558  0.4347
27393W        W42524   6.921   8.191  16.098  0.2583  0.1486  0.0742
27394W        W42525   3.085   7.839  12.989  0.0949 -0.0291 -0.0756
27395W        W42526  11.375   5.065  14.230  0.1604  0.2501  0.2367
27396W        W42527  13.007  13.898   0.601 -0.1687  0.0279 -0.1639
27397W        W42528   1.286  16.386   3.544  0.1611 -0.1790  0.0992
27398W        W42529   5.515  12.249   2.057 -0.0509  0.0025 -0.0722
27399W        W42530   4.419   8.574   4.968  0.0291  0.1854 -0.2848
27400W        W42531   0.249   1.439   2.395 -0.1047  0.1848  0.1879
27401W        W42532   1.969  14.877   0.637 -0.0210 -0.1146 -0.1314
27402W        W42533   1.078  16.431   2.061 -0.0324  0.1896  0.1705
27403W        W42534  11.394   2.602  15.548 -0.0793 -0.2324 -0.1160
27404W        W42535   9.847   3.762   3.798  0.1386 -0.1432  0.0401
27405W        W42536   5.964  15.896   0.057  0.1766 -0.0069  0.0357
27406W        W42537  17.333  17.063   0.521  0.0580 -0.2743 -0.1818
27407W        W42538  10.279   4.002   3.613 -0.2337  0.0955  0.4001
27408W        W42539  10.639   3.523   1.753 -0.2708 -0.3426  0.0047
27409W        W42540  16.106  13.103  15.769  0.2737  0.3156 -0.4205
27410W        W42541  11.112   1.667   0.352 -0.2406 -0.0988  0.3019
27411W        W42542   9.951   7.010  13.116  0.0146  0.0431 -0.0865
27412W        W42543   8.099   8.193  16.173  0.1948 -0.0833 -0.4344
27413W        W42544  15.252  14.000  11.805  0.1307 -0.3307  0.2910
27414W        W42545   4.273  10.869   0.685 -0.0239  0.1393  0.1741
27415W        W42546  10.900   7.369   5.041 -0.0682  0.2136  0.0253
27416W        W42547   3.494  14.743   6.004 -0.0974  0.0867 -0.0625
27417W        W42548  10.385   2.442   2.279 -0.0635  0.3411  0.2140
27418W        W42549   0.921  15.115   4.257 -0.1185 -0.0591  0.0561
27419W        W42550  11.498   7.291  11.159 -0.2138  0.0858  0.0460
27420W        W42551  14.981  12.587  12.225  0.1103 -0.2744  0.2011
27421W        W42552  11.896   6.563  15.108 -0.2307  0.2672  0.0218
27422W        W42553   5.522   3.329   3.231  0.1027  0.0382  0.3050
27423W        W42554   4.405  15.858  16.580  0.1753  0.0956  0.1942
27424W        W42555   4.869  14.848  11.915 -0.0392  0.0782  0.0529
27425W        W42556  11.844  14.647  14.570  0.0507  0.0974 -0.1167
27426W        W42557   9.938   9.605   6.170 -0.0540 -0.1102 -0.0419
27427W        W42558   5.257  11.971   0.739  0.4916  0.0519  0.0946
27428W        W42559   4.458  13.983  16.167  0.4035 -0.0856 -0.2113
27429W        W42560   1.946  10.485   1.296 -0.1859  0.2573 -0.0214
27430W        W42561   5.112   0.786  11.915  0.0129 -0.0544  0.0583
27431W        W42562   7.888  14.688  11.650 -0.0898  0.1784 -0.0245
27432W        W42563   1.567  15.377  15.778  0.1566  0.3032  0.1259
27433W        W42564  10.232  17.592   3.530 -0.3990 -0.0831  0.0207
27434W        W42565  14.015   9.422   3.681  0.0377 -0.2370  0.0692
27435W        W42566  15.245   4.392   0.761 -0.0103  0.0048  0.0675
27436W        W42567  12.599  10.076  11.116 -0.1202  0.0213 -0.0367
27437W        W42568   9.189   1.759  14.344 -0.2080 -0.4275  0.0233
27438W        W42569   8.087  12.528   0.572 -0.1811  0.0799 -0.0650
27439W        W42570   5.168   4.363   9.991  0.0767  0.2316  0.0526
27440W        W42571  11.678  13.204   5.329 -0.0658 -0.3011 -0.3779
27441W        W42572  12.990   8.074  11.964 -0.2654  0.2151 -0.1011
27442W        W42573   4.510   3.766   3.098 -0.0421 -0.0480  0.0737
27443W        W42574   3.314   8.246  12.322 -0.2772 -0.1197  0.0526
27444W        W42575   2.456   5.746   2.787  0.1215 -0.2427 -0.2507
27445W        W42576  14.153   8.119   2.827  0.1132 -0.2946  0.1370
27446W        W42577  15.098   3.697  15.887 -0.0943  0.0125  0.1007
27447W        W42578   9.726  14.067  16.659 -0.0747  0.1253  0.0203
27448W        W42579   5.855  15.678   4.147  0.0062 -0.0933  0.1888
27449W        W42580  11.071   7.764  11.303  0.1008 -0.1370  0.3178
27450W        W42581   9.919  12.796  16.166  0.0111  0.0929 -0.2214
27451W        W42582   9.472   0.837  13.132  0.0782  0.0320 -0.1738
27452W        W42583   3.101   7.910   2.168  0.1044 -0.0246  0.1256
27453W        W42584  13.447   4.784  11.087  0.1546 -0.1163  0.1209
27454W        W42585   5.419   2.606   4.531  0.1584 -0.0433  0.2666
27455W        W42586  17.267   0.336  12.741  0.1843  0.0590 -0.0659
27456W        W42587  10.102  12.722   4.936 -0.0449 -0.0616 -0.0274
27457W        W42588   4.245  16.884  13.623  0.2671  0.0716 -0.3054
27458W        W42589  17.534   8.698   4.968  0.3552  0.2535 -0.0089
27459W        W42590   5.859   6.400   2.445 -0.0599 -0.2289  0.1506
27460W        W42591   1.577  10.030  13.173 -0.0250 -0.0409  0.2495
27461W        W42592  11.952  17.699  14.651 -0.0999  0.3034  0.2176
27462W        W42593   6.150   4.175   3.929 -0.0769  0.3351 -0.3189
27463W        W42594   6.282   3.776  13.908  0.5603 -0.2262  0.0433
27464W        W42595   0.349   4.890  15.448  0.0006  0.0776  0.3194
27465W        W42596   1.361  17.457  11.142 -0.2427 -0.3621 -0.0650
27466W        W42597   2.472  10.248   0.124 -0.0514  0.0611 -0.3267
27467W        W42598   9.707   4.230   5.296  0.1469 -0.2609 -0.1260
27468W        W42599  17.362   0.270  13.583 -0.2023 -0.2385 -0.1383
27469W        W42600   1.281   1.215   0.245  0.1536 -0.0838 -0.0021
27470W        W42601   2.041  14.752   1.154 -0.3009 -0.1369 -0.0084
27471W        W42602   2.448  10.036  11.918 -0.4058 -0.1769 -0.4077
27472W        W42603  13.066   8.889  12.504 -0.1626 -0.1551  0.1280
27473W        W42604  10.468   0.895   1.482  0.0286  0.2310 -0.0479
27474W        W42605   3.863   8.623   2.131 -0.0183 -0.0734  0.1565
27475W        W42606   0.315  13.484   0.752  0.1661 -0.2251 -0.1014
27476W        W42607   6.172   6.700   3.903  0.0207  0.0285  0.1527
27477W        W42608   4.298   0.295   0.014 -0.1056 -0.0541 -0.1969
27478W        W42609   7.085   0.167   2.068 -0.2651  0.1884  0.0750
27479W        W42610  13.427  15.625   1.947 -0.0832  0.2505  0.2749
27480W        W42611   8.627   6.630  11.162  0.0066  0.1282 -0.0192
27481W        W42612  16.882   5.623  12.795 -0.1399  0.1023  0.0969
27482W        W42613  11.254  12.503   0.677  0.0061  0.2000  0.1005
27483W        W42614  13.551  15.154   1.840 -0.2041  0.0933  0.0658
27484W        W42615   4.868   1.472  16.729 -0.1735 -0.2902 -0.1273
27485W        W42616   3.363  10.758  13.802  0.0940  0.0808  0.2709
27486W        W42617   2.830  13.428   2.929 -0.0828 -0.0172  0.2577
27487W        W42618   6.297   2.299   5.663  0.0353 -0.3328  0.2149
27488W        W42619   6.720  14.741   2.329 -0.1056 -0.0853  0.1609
27489W        W42620  15.890   0.324  13.828  0.0771  0.2043  0.2332
27490W        W42621   0.093  12.134   0.455  0.0458 -0.0034  0.1111
27491W        W42622   0.011   8.207   1.485  0.3651 -0.0730 -0.0326
27492W        W42623  15.967  12.694  16.518 -0.0312 -0.2423 -0.1517
27493W        W42624   3.466  12.324  15.719 -0.0804  0.1737 -0.1520
27494W        W42625   1.328  16.886   4.243  0.2217 -0.0102 -0.3321
27495W        W42626   3.420   9.334   3.173 -0.1099  0.0402  0.2670
27496W        W42627   6.687  11.463   0.939  0.0847 -0.0705  0.2380
27497W        W42628   4.418   6.432   0.316 -0.1724  0.3125  0.0150
27498W        W42629  10.545  11.441   1.658  0.1132  0.0226  0.5435
27499W        W42630   8.302   1.512  16.165 -0.4105  0.2944 -0.3191
27500W        W42631  14.400  14.481   3.056 -0.0789  0.1960  0.0797
27501W        W42632  10.416   1.631  15.494  0.0405  0.0487  0.1022
27502W        W42633   1.289  10.133   3.355 -0.0396 -0.2904  0.3923
27503W        W42634  10.254  15.285  12.376  0.0150  0.2731  0.2964
27504W        W42635  12.044  11.990   0.444  0.0176 -0.1749  0.1737
27505W        W42636  11.009   1.421   4.016 -0.0615  0.2570 -0.1256
27506W        W42637  16.028  14.374  12.497 -0.1369 -0.1341 -0.0372
27507W        W42638  13.167  13.911  16.641 -0.2803 -0.4314 -0.3874
27508W        W42639  11.951  10.091   4.156 -0.0986 -0.0517  0.1429
27509W        W42640  11.587  14.954  15.140 -0.2257  0.0616 -0.0965
27510W        W42641   5.970  17.042   3.142 -0.0402  0.2122  0.1653
27511W        W42642   1.928   6.874   4.794  0.1940  0.1270 -0.1316
27512W        W42643   9.197  15.904  10.993  0.1183 -0.3481  0.0855
27513W        W42644  16.211  17.101  15.526 -0.0875 -0.0279  0.1315
27514W        W42645   0.117  16.212   1.208  0.0511  0.1127  0.0490
27515W        W42646  17.609   6.697  12.971 -0.1730 -0.2788  0.1472
27516W        W42647   6.651  11.635   6.034 -0.0478 -0.0664 -0.2335
27517W        W42648  13.322  17.251  12.043 -0.0952  0.0382 -0.2230
27518W        W42649   7.546   0.050  11.958 -0.2584  0.1459  0.2220
27519W        W42650   6.955  13.346  12.046  0.0085 -0.0300  0.3090
27520W        W42651   5.329   6.368   1.854  0.0262 -0.0206  0.1377
27521W        W42652  13.099   2.065   3.217 -0.1308  0.2650 -0.2390
27522W        W42653  10.627  16.589   6.068 -0.2101  0.0053 -0.1375
27523W        W42654   7.417   5.807  15.882 -0.0328 -0.2118  0.0104
27524W        W42655   0.751   9.606  12.586  0.3457  0.0539  0.1592
27525W        W42656   9.726  15.073   3.400  0.1535  0.0937 -0.0484
27526W        W42657  16.283   6.438  15.381 -0.0365  0.2236 -0.2195
27527W        W42658  16.192  10.871   5.259 -0.2036  0.1602  0.0496
27528W        W42659  14.405  13.692  14.077 -0.1241  0.2366 -0.3069
27529W        W42660   1.678   6.794   1.386 -0.1465 -0.1560 -0.0449
27530W        W42661   6.680   6.786   6.066  0.1106 -0.0341 -0.2823
27531W        W42662   5.740  13.064  13.431  0.0458  0.3710  0.0512
27532W        W42663  14.547   9.520   5.507 -0.0354 -0.2953 -0.2292
27533W        W42664  16.633  12.654  15.975 -0.2579 -0.1140  0.0355
27534W        W42665  11.247   2.781   1.077 -0.0873 -0.0494  0.2096
27535W        W42666   1.052  10.906   3.872 -0.2433  0.1493  0.0124
27536W        W42667  14.832   3.182   3.263  0.1111 -0.0683  0.2508
27537W        W42668  15.658  17.009   4.575  0.0613 -0.1081  0.0328
27538W        W42669   8.086   4.475  15.870 -0.0077 -0.1845  0.2888
27539W        W42670   9.980   7.921   5.237 -0.2439  0.1112  0.2636
27540W        W42671   8.279   5.803   5.485 -0.0911 -0.0980 -0.0992
27541W        W42672  17.598   2.737  13.906  0.0174  0.0308 -0.1048
27542W        W42673  11.216  14.748   0.870  0.1383  0.0148 -0.0317
27543W        W42674  11.458  12.738  12.481  0.2465  0.3675 -0.0555
27544W        W42675   6.492   5.769  15.159  0.0217 -0.1940  0.4789
27545W        W42676  15.710  15.835   1.518 -0.2274 -0.1602  0.1124
27546W        W42677   1.266   7.991  12.839 -0.0727  0.1502  0.0820
27547W        W42678  10.841   1.478  16.882 -0.3089  0.0309  0.0406
27548W        W42679   0.458  13.878   2.519  0.3098  0.3204  0.1182
27549W        W42680  13.016   9.373  11.247  0.0802  0.2548 -0.2774
27550W        W42681   5.181   2.727   0.459 -0.2487  0.0066 -0.0282
27551W        W42682  13.235   0.039  14.424 -0.1658  0.0903 -0.1537
27552W        W42683  14.712  17.634  15.670 -0.1232  0.1208 -0.1230
27553W        W42684  14.507  10.980   5.667  0.0942 -0.2007  0.0169
27554W        W42685   6.485   4.145  14.468  0.0854 -0.1173 -0.1297
27555W        W42686  13.966  11.208  16.580  0.1526 -0.1448 -0.0622
27556W        W42687  16.207   7.002   6.186 -0.0472 -0.0330  0.1894
27557W        W42688  14.091   1.746   0.067 -0.1501  0.0196  0.3081
27558W        W42689   0.154  17.340  13.912 -0.3106 -0.2870  0.2534
27559W        W42690   2.592   0.688  15.686  0.5133 -0.0077  0.2296
27560W        W42691   2.749   7.388   0.488  0.0760  0.2543  0.2380
27561W        W42692   3.787   0.014  12.785  0.2130  0.5878  0.3259
27562W        W42693   6.151  12.616   2.550 -0.0273  0.0354  0.0136
27563W        W42694   3.835  16.182  15.098  0.0409  0.0499 -0.0666
27564W        W42695   3.264   9.314  15.731  0.0269 -0.1004  0.0179
27565W        W42696   5.415   2.826   1.374  0.3321 -0.0750 -0.0343
27566W        W42697   1.795  11.972   5.692 -0.1652  0.2680  0.1419
27567W        W42698   4.405   5.386   2.242 -0.2028  0.1098 -0.2048
27568W        W42699  11.901  15.296   1.884  0.0651  0.1524  0.0725
27569W        W42700  13.603  14.647  14.573 -0.0222  0.2894 -0.1993
27570W        W42701   4.154  16.452  16.267 -0.1448 -0.0086  0.2832
27571W        W42702  11.467   4.393   3.149 -0.1661 -0.0460  0.1574
27572W        W42703  15.292  16.011  16.432 -0.1541 -0.0067 -0.0940
27573W        W42704   7.717   3.779  12.585 -0.1695  0.1098  0.2018
27574W        W42705   5.502  15.561  11.813  0.1276  0.1756 -0.1235
27575W        W42706   9.153   3.804   0.905 -0.1608  0.1318  0.1142
27576W        W42707  16.831  17.118   5.282 -0.1170 -0.2342 -0.1848
27577W        W42708   0.133   2.922  12.985  0.1413 -0.2457  0.2538
27578W        W42709  13.727   3.788  14.949  0.1055  0.3634  0.0385
27579W        W42710   0.805  14.757   0.485  0.1489  0.0141  0.1857
27580W        W42711   1.731  11.016  14.635 -0.0906 -0.0185 -0.0307
27581W        W42712  12.010   5.199  12.939 -0.1229  0.1303 -0.0494
27582W        W42713  17.404   3.618  13.533 -0.2206  0.4392  0.3386
27583W        W42714   5.102   9.377  15.234 -0.0115 -0.1679  0.0282
27584W        W42715   3.230  10.042   4.061 -0.0581  0.1391  0.2647
27585W        W42716   6.730  13.065  14.828  0.1989 -0.1341 -0.1991
27586W        W42717   2.605   1.377   4.603 -0.2981  0.1796  0.1356
27587W        W42718  17.248   8.027   1.797 -0.2808  0.0432 -0.1231
27588W        W42719   2.013  16.893  15.077  0.6473 -0.0820  0.3188
27589W        W42720   6.130   6.964   2.239 -0.0184 -0.1002  0.0333
27590W        W42721   3.528   5.740  11.558 -0.1769  0.0028 -0.0486
27591W        W42722  15.064   7.773   3.957 -0.3282 -0.5261 -0.0427
27592W        W42723   6.310  10.499   1.099  0.2064  0.2442  0.0010
27593W        W42724  16.498  11.475  16.738  0.2683  0.1491 -0.0122
27594W        W42725   4.608   7.714  12.572  0.1925  0.0785  0.0652
27595W        W42726  11.884   5.470  15.824  0.0323 -0.0041 -0.0504
27596W        W42727  16.853  14.265   2.929 -0.0663 -0.2610  0.0099
27597W        W42728   3.635   8.381   0.693 -0.2866 -0.0622 -0.2104
27598W        W42729  12.550   9.346  16.209 -0.2387 -0.2354  0.1847
27599W        W42730   8.744   1.398  13.566 -0.1908  0.2152  0.4063
27600W        W42731  13.690  15.118  16.853  0.0215  0.0666 -0.0900
27601W        W42732   1.077   3.406  11.907  0.0983 -0.1239  0.2174
27602W        W42733   3.121   1.730  13.319 -0.1278  0.3999 -0.2689
27603W        W42734  15.066  10.106   4.121 -0.1373 -0.3235 -0.0685
27604W        W42735   2.988   1.935   0.025 -0.2836 -0.0937 -0.0953
27605W        W42736  16.243  11.142   1.344  0.2916 -0.0236  0.1666
27606W        W42737  16.549   6.397   2.116 -0.1317 -0.1787 -0.0580
27607W        W42738   6.318   4.463   2.183  0.0258  0.4106  0.0511
27608W        W42739  12.214   9.950   4.999 -0.2888 -0.0930  0.3195
27609W        W42740   3.481  10.481  14.193  0.2481  0.2358 -0.1848
27610W        W42741   2.082   9.426  13.816 -0.0337  0.0828 -0.0253
27611W        W42742   1.655   2.405   1.240 -0.3039 -0.1800  0.0871
27612W        W42743  12.892   6.837  15.592  0.1711  0.1768 -0.0894
27613W        W42744   8.094   0.339  16.622 -0.0920 -0.1020 -0.2059
27614W        W42745   0.703  15.710   5.651 -0.4222 -0.0576 -0.4040
27615W        W42746   9.472   4.050  14.588 -0.0328  0.3905 -0.2596
27616W        W42747   6.736   2.942  14.880 -0.4322 -0.0346  0.0931
27617W        W42748  13.893   7.251   3.355 -0.4071 -0.1752  0.0790
27618W        W42749  13.247   5.827  12.901 -0.0167 -0.0161  0.0614
27619W        W42750   1.616   9.982  16.082  0.1003  0.2238  0.0379
27620W        W42751   6.597   8.406   4.385  0.0677 -0.2195 -0.0958
27621W        W42752  13.094  16.836   0.094 -0.0260 -0.0565  0.0490
27622W        W42753   9.879   9.869   1.836 -0.0797 -0.3049  0.2931
27623W        W42754  15.798  13.896  16.497  0.1472 -0.0090 -0.3671
27624W        W42755   7.136   5.800   2.241  0.0624 -0.0704 -0.1349
27625W        W42756   1.807   5.855  11.789  0.0457 -0.1690  0.1355
27626W        W42757   4.042  13.335   1.312  0.2286 -0.2130  0.1741
27627W        W42758   7.815   3.095   2.655  0.0668  0.0219  0.1412
27628W        W42759   1.471  10.032   4.283 -0.2010  0.0167  0.0543
27629W        W42760   8.422   4.347   4.177 -0.2924 -0.0445  0.2467
27630W        W42761  16.287  10.042  15.392  0.1924 -0.3707 -0.0156
27631W        W42762  12.591  13.323  12.674  0.3066  0.0245 -0.2660
27632W        W42763   2.788  13.898  11.089  0.2674  0.1236  0.2558
27633W        W42764   7.066  12.244  12.288  0.0466  0.0205 -0.0384
27634W        W42765  13.136  10.105  15.947  0.4141 -0.1433 -0.1175
27635W        W42766  12.090  17.102  12.858  0.0034  0.3770  0.0005
27636W        W42767  11.853   7.857  14.650 -0.0450 -0.1686 -0.0191
27637W        W42768   9.569  11.285   4.498 -0.4822 -0.1447  0.1416
27638W        W42769  16.631  12.895   0.782 -0.0359 -0.0253 -0.1023
27639W        W42770  17.606   4.304  16.541 -0.1396 -0.0445 -0.4447
27640W        W42771  13.386  14.912  16.511  0.1014  0.3932 -0.2186
27641W        W42772  10.610  13.068   2.466  0.0964 -0.3104 -0.1842
27642W        W42773  10.288   7.300   2.808  0.0849 -0.0222 -0.0453
27643W        W42774  14.701   2.366  13.787  0.1341  0.0606 -0.3906
27644W        W42775   1.427   6.261   0.315 -0.0222  0.0880 -0.1282
27645W        W42776  16.781   9.811  12.109  0.0489 -0.4540  0.2027
27646W        W42777  12.436  14.208  16.025  0.2600  0.1051 -0.2175
27647W        W42778  15.803   0.249   1.991  0.2575 -0.0633 -0.0548
27648W        W42779  13.156  13.434  12.313 -0.1057 -0.0160  0.0609
27649W        W42780  15.545   8.565   1.365 -0.0601  0.0928  0.1380
27650W        W42781   8.823  12.804   6.223  0.0207 -0.0416  0.2689
27651W        W42782  10.948   0.490  11.541  0.3432 -0.2842 -0.1098
27652W        W42783   9.241   8.741  16.324  0.2171  0.1415 -0.0075
27653W        W42784   7.592   7.793   1.504 -0.0534  0.0295  0.0651
27654W        W42785  11.770  14.286  14.981  0.0576  0.0797 -0.0866
27655W        W42786   5.610   2.656  11.304 -0.2874 -0.2243  0.0358
27656W        W42787   3.123   9.071   3.468  0.1282  0.2644 -0.0154
27657W        W42788   9.008  15.618  13.183 -0.0262 -0.0217 -0.2511
27658W        W42789   4.350  15.413  13.256 -0.1067  0.0633  0.1601
27659W        W42790   3.028   8.174   0.045  0.1188  0.2419 -0.1103
27660W        W42791  12.229  15.697  14.851 -0.1665  0.1304 -0.0823
27661W        W42792  13.272   8.033   3.110 -0.1731 -0.6341 -0.2552
27662W        W42793   2.754   6.403   4.064  0.0473  0.1349  0.1683
27663W        W42794  15.402   0.743  16.845 -0.0342 -0.0281 -0.0702
27664W        W42795   5.729  14.055   4.296 -0.1189 -0.2022  0.0240
27665W        W42796   2.346  14.865  14.635  0.1582  0.1401  0.4611
27666W        W42797  10.969   7.154  11.064  0.1209 -0.0379  0.1969
27667W        W42798  10.364   6.811   1.181  0.1083  0.1335 -0.3897
27668W        W42799  14.389   7.442  11.357  0.2403 -0.1982 -0.0366
27669W        W42800   3.117   2.634   0.593  0.1512  0.1949 -0.1081
27670W        W42801   3.456   4.356  14.457 -0.1334 -0.1746  0.0237
27671W        W42802   7.903  15.544   2.465  0.2563 -0.0485  0.1889
27672W        W42803   1.947   9.519   0.275  0.1996  0.0459 -0.1273
27673W        W42804  10.514   6.311  12.456  0.1380 -0.3811 -0.2006
27674W        W42805  11.152   4.439   4.828  0.0118  0.1482 -0.2275
27675W        W42806   9.321   4.854   1.103  0.1778  0.1701 -0.0471
27676W        W42807   1.308   5.247   4.487 -0.2920 -0.5011  0.0941
27677W        W42808  11.997   6.213   3.330 -0.1967 -0.0202  0.0010
27678W        W42809  17.144   0.333  11.731  0.0201 -0.0291 -0.1620
27679W        W42810  10.995   1.273   2.916  0.0334  0.0485 -0.0143
27680W        W42811  15.688   5.249  16.744 -0.1630 -0.3011  0.0485
27681W        W42812   2.544  12.362  16.364 -0.0685 -0.1891  0.2575
27682W        W42813   2.998   5.667  16.815 -0.0811 -0.0840 -0.2052
27683W        W42814  16.862  10.175  12.444 -0.0306 -0.0700 -0.3019
27684W        W42815   4.813   6.054  14.032  0.4015  0.1393 -0.0183
27685W        W42816   6.429   0.211   0.007 -0.1994 -0.0535  0.0352
27686W        W42817  14.061   5.840  15.379  0.2201  0.2081 -0.1607
27687W        W42818   2.425  17.513  13.101  0.0053 -0.3592  0.1997
27688W        W42819   0.962  10.016  12.745  0.1832 -0.1329  0.2806
27689W        W42820   3.450   4.515   0.830 -0.0685 -0.1469  0.2093
27690W        W42821  10.247  12.292   0.938 -0.2868 -0.1915 -0.3007
27691W        W42822   0.231  15.681   5.886 -0.1138  0.0565 -0.1237
27692W        W42823  16.762   4.128  11.489  0.2702  0.0944  0.1793
27693W        W42824   8.949   6.257   2.654  0.1508 -0.1605 -0.4519
27694W        W42825  15.717   0.320  12.216 -0.1159  0.0915  0.1285
27695W        W42826   1.843   2.843   4.287  0.1484  0.0513 -0.2526
27696W        W42827   8.409   7.045  11.588  0.0125  0.1813  0.0358
27697W        W42828   7.610   2.092  13.282  0.0846  0.1221 -0.1071
27698W        W42829   7.681   4.898   2.742 -0.1215  0.1724  0.1634
27699W        W42830   9.232   3.061  12.045 -0.1475  0.2429  0.2559
27700W        W42831   4.912   8.396   5.725 -0.2900 -0.1301 -0.2140
27701W        W42832  10.047  15.813  14.377 -0.2673 -0.2888  0.0621
27702W        W42833  14.824  17.250   5.520 -0.0395 -0.1153  0.0813
27703W        W42834  10.185  10.545   4.411 -0.0904  0.2352  0.1765
27704W        W42835  10.473   0.081   2.133  0.4111 -0.5116  0.2561
27705W        W42836   8.861  15.122   4.525 -0.0534  0.1565  0.2292
27706W        W42837   0.204   9.855  11.616 -0.0976  0.3246 -0.0079
27707W        W42838  10.091   2.136   0.937  0.1205  0.2084 -0.0425
27708W        W42839   2.894  10.609   4.944  0.5528  0.0869 -0.3071
27709W        W42840  13.480   3.408   2.635 -0.1313 -0.1584 -0.2931
27710W        W42841  15.098  17.313   2.231 -0.4801 -0.1470  0.0427
27711W        W42842  10.070  13.368   4.188 -0.1980 -0.4370  0.4492
27712W        W42843   6.980   9.180   3.693  0.0375 -0.1313  0.0381
27713W        W42844   5.644  17.527   0.301 -0.0788 -0.2684  0.1038
27714W        W42845  10.808   9.678   4.665  0.0702 -0.2381 -0.2506
27715W        W42846  13.643   5.584   2.609  0.0236 -0.0787 -0.1439
27716W        W42847   9.034  15.180  15.391 -0.1142  0.0353  0.1717
27717W        W42848  11.769   1.692  12.453  0.0044  0.1000  0.2041
27718W        W42849  15.198   4.373  13.760  0.0763 -0.2749 -0.2099
27719W        W42850   7.134   4.690  14.702 -0.1155  0.0424  0.0167
27720W        W42851  15.520   9.006  12.617  0.0804  0.0512 -0.0212
27721W        W42852   3.614  14.962  14.170  0.0020 -0.1691 -0.0336
27722W        W42853   1.232   2.629  16.477  0.1903 -0.1204 -0.1194
27723W        W42854  13.828   8.504  12.269 -0.0929  0.1186  0.1597
27724W        W42855   7.499   8.269   5.315 -0.0590  0.0728  0.0015
27725W        W42856   2.124  10.856  11.535  0.1130  0.0979 -0.2447
27726W        W42857  13.583   9.408   1.548 -0.0075  0.1392  0.0292
27727W        W42858  16.562  17.454   6.143  0.0140  0.0741  0.1467
27728W        W42859   8.875   2.791  13.833  0.3443 -0.0745 -0.1691
27729W        W42860  14.839  15.829   2.063  0.0921 -0.1851  0.1215
27730W        W42861   3.364   4.592   4.478  0.2221  0.3588  0.0007
27731W        W42862   8.300  10.252  15.550  0.0720  0.0665 -0.3361
27732W        W42863   4.505   3.365   3.971 -0.0405 -0.0552 -0.0919
27733W        W42864   6.672   8.449  16.490 -0.0648  0.1022 -0.0579
27734W        W42865   7.059  16.241   3.760 -0.0331 -0.1751  0.3058
27735W        W42866   8.846   9.507  13.386  0.3301  0.1546  0.0941
27736W        W42867   0.415  17.370   0.404 -0.0374  0.4591 -0.1105
27737W        W42868  14.962   3.395  13.404 -0.0285  0.0499 -0.2248
27738W        W42869  11.211   5.713   1.189  0.1362  0.0438  0.0463
27739W        W42870   1.797  14.061   0.375  0.1036 -0.0982  0.1514
27740W        W42871   2.076   7.093  14.820 -0.1320  0.1430 -0.2215
27741W        W42872  13.457  11.278  13.729  0.1095  0.1937  0.2308
27742W        W42873   8.927   1.162   2.306  0.1747  0.0452 -0.1122
27743W        W42874  12.932  10.416  14.150 -0.1467 -0.0906 -0.0396
27744W        W42875  17.217  17.371  15.959  0.1958 -0.1801  0.0880
27745W        W42876   2.919  17.599  16.260 -0.0987  0.0852  0.2298
27746W        W42877   4.628   3.538   2.334  0.1291  0.0029  0.2581
27747W        W42878   4.913   3.731   4.846  0.0861 -0.1130  0.2342
27748W        W42879   4.610  12.607   3.314  0.0216 -0.2420 -0.2230
27749W        W42880   0.675   1.869  13.802 -0.2379 -0.0282  0.1820
27750W        W42881   8.860  16.443   0.796  0.0718  0.0575  0.0321
27751W        W42882  15.968   3.717   5.733  0.2053  0.1643 -0.2929
27752W        W42883  13.250   3.596   2.235 -0.0985 -0.1017 -0.0589
27753W        W42884   3.225  11.640   0.991  0.1233 -0.0925 -0.0916
27754W        W42885   4.370  11.963   3.197 -0.0735 -0.0212  0.0560
27755W        W42886   4.657   2.281   5.689  0.1355 -0.1315 -0.0332
27756W        W42887   7.805   8.354  14.488  0.1434 -0.4277  0.0321
27757W        W42888   0.716  15.240   2.793  0.0631  0.1748  0.0635
27758W        W42889  13.379  15.144  15.868 -0.1142  0.0560  0.0269
27759W        W42890  14.902  12.759   2.839 -0.0339  0.1881 -0.0628
27760W        W42891  15.698   8.503   3.918 -0.0966  0.0488  0.1980
27761W        W42892  15.967  14.314  16.777 -0.0994 -0.0920  0.2207
27762W        W42893   0.279   1.003  15.901  0.2109 -0.0920 -0.3468
27763W        W42894   3.325   0.962  16.843 -0.0287  0.1037  0.1207
27764W        W42895   0.063  15.432  12.726  0.1589 -0.1197  0.2526
27765W        W42896   7.708   9.881  16.285 -0.0948 -0.1294  0.4185
27766W        W42897   6.611   3.267   5.490  0.0548  0.0241  0.2980
27767W        W42898  12.567   7.427  12.152  0.4233  0.2566  0.1649
27768W        W42899  16.511   1.748  12.844  0.1104 -0.0556 -0.1835
27769W        W42900  14.033   9.249   1.390  0.4288  0.1771  0.1588
27770W        W42901   7.070  10.661   1.383  0.2103  0.2393  0.1334
27771W        W42902  11.164   1.263   4.994 -0.1838  0.2986  0.0882
27772W        W42903   2.255   2.097   2.098  0.0651  0.0434  0.0211
27773W        W42904   8.374  11.293   3.485  0.0184 -0.1762 -0.1120
27774W        W42905  12.693   1.574   1.624  0.1656  0.1501 -0.2298
27775W        W42906  14.464   9.960   1.620 -0.0685 -0.0305  0.1458
27776W        W42907   2.994  17.275   4.140 -0.1294 -0.0410 -0.3949
27777W        W42908  10.834   6.189  12.063 -0.1647 -0.0863 -0.4296
27778W        W42909  12.817  13.091  16.743  0.2141 -0.2223  0.0863
27779W        W42910  15.532   1.081   3.583 -0.2492  0.3042 -0.2340
27780W        W42911  13.913  17.647   4.227  0.1253  0.1816  0.0253
27781W        W42912   0.907  13.976   2.219 -0.0879 -0.1687  0.0407
27782W        W42913   1.193  15.626  12.941  0.2406 -0.0399 -0.2434
27783W        W42914  10.527  10.586  14.844  0.0346  0.1081  0.1521
27784W        W42915   5.651   0.971  13.721  0.2298 -0.0092 -0.0410
27785W        W42916  14.271  11.004  11.000 -0.1568  0.0704 -0.1541
27786W        W42917   6.750   2.833   1.220  0.0005 -0.0698  0.2095
27787W        W42918  14.015   9.198   2.783 -0.2399 -0.1418 -0.0805
27788W        W42919  12.576   8.860   1.049 -0.1136 -0.2385 -0.2210
27789W        W42920  12.999  12.044  16.792 -0.2138  0.1737  0.3177
27790W        W42921   7.150  17.231   0.287 -0.3632 -0.0086 -0.0686
27791W        W42922  12.075  12.216   6.212 -0.0359 -0.1846 -0.0353
27792W        W42923  11.164  10.310  15.981  0.1683 -0.0985 -0.1037
27793W        W42924  15.940   6.603   5.446  0.1632 -0.0666  0.0430
27794W        W42925   7.578  11.574  15.792 -0.1248 -0.1067 -0.0194
27795W        W42926   4.241  15.536  14.560  0.4071 -0.2017  0.0821
27796W        W42927   7.742   1.207  15.901 -0.0257  0.2277  0.1168
27797W        W42928   6.001  16.019  12.292  0.0626 -0.1319  0.1995
27798W        W42929   1.125   6.495  12.498 -0.1026  0.2337 -0.1391
27799W        W42930   4.169  16.427  14.770  0.2026 -0.3240  0.3818
27800W        W42931   1.351  13.418   6.051 -0.2343 -0.0617  0.0309
27801W        W42932   8.608  12.868  15.749 -0.0207 -0.0238 -0.1820
27802W        W42933  14.885   7.263   1.615  0.1005  0.0999  0.0034
27803W        W42934   0.434   3.086   3.197 -0.2044  0.1032 -0.0632
27804W        W42935  15.438   7.411  11.874  0.0203  0.0855  0.2096
27805W        W42936   5.049   0.991   4.764 -0.0369  0.0751 -0.2459
27806W        W42937   6.063   7.454   0.711 -0.0349 -0.0559 -0.2445
27807W        W42938  12.009   8.211   3.204 -0.0223 -0.0085 -0.1120
27808W        W42939   7.581   0.937   5.153 -0.0652  0.0584 -0.1352
27809W        W42940   7.365   7.535   0.253  0.3577  0.0336  0.0865
27810W        W42941   1.494   1.030   0.666 -0.1467  0.0340  0.1388
27811W        W42942   6.470  15.830   4.740  0.0547 -0.0684 -0.1853
27812W        W42943  17.365   7.393   2.553 -0.0451  0.0564 -0.1134
27813W        W42944   7.556  17.275  16.256  0.2546  0.0434 -0.0340
27814W        W42945  15.943   6.885  14.569  0.0492 -0.0810  0.0158
27815W        W42946  11.857   1.271  14.843 -0.0133  0.0331  0.1634
27816W        W42947  13.112   6.962   2.874  0.0244  0.0969 -0.2170
27817W        W42948   4.643  17.470  14.801 -0.0038 -0.0984  0.0219
27818W        W42949   2.033   0.896   5.231 -0.0740  0.1193 -0.2772
27819W        W42950   0.328  13.144   2.850 -0.1821  0.1373  0.1995
27820W        W42951   6.374   6.096   3.933  0.0008  0.0945 -0.1854
27821W        W42952   0.106  11.403   0.641  0.2722  0.1767  0.2159
27822W        W42953   2.740   2.989  12.723  0.0360 -0.2344 -0.1524
27823W        W42954   5.006  12.402  15.319 -0.0241 -0.0574  0.1033
27824W        W42955  10.084  14.204  12.161  0.1536 -0.1899 -0.0732
27825W        W42956   2.354  17.582   3.407  0.0219  0.0867  0.0041
27826W        W42957   7.258   1.202  13.573 -0.2604  0.2828 -0.0450
27827W        W42958   5.758   4.810  16.697 -0.0269  0.3680  0.4477
27828W        W42959  15.538   7.071   2.298  0.1165 -0.1242  0.5094
27829W        W42960  13.341  14.069  16.159  0.1275 -0.1196 -0.0207
27830W        W42961  12.105  11.730   1.903 -0.0149  0.2122 -0.0395
27831W        W42962  11.960   4.827  16.531 -0.2878  0.2043  0.0063
27832W        W42963  13.846   8.272  16.251  0.1589 -0.3377  0.0389
27833W        W42964  14.599   6.953  15.911  0.0327 -0.0325  0.0399
27834W        W42965   4.689   8.748   2.001 -0.0795 -0.2685 -0.0118
27835W        W42966   4.765  13.932   4.764  0.0716  0.0370 -0.2357
27836W        W42967   1.242  13.702   1.036  0.0097 -0.1011 -0.2105
27837W        W42968   0.046   4.999   3.776  0.0438 -0.2499  0.0371
27838W        W42969  12.186  15.519  15.502 -0.2525  0.0644  0.1440
27839W        W42970  14.174   4.539   3.222  0.4867 -0.1075  0.0437
27840W        W42971   7.951   4.943  15.984 -0.1488 -0.3006  0.1797
27841W        W42972   1.667   0.997  16.757 -0.0969 -0.0869 -0.0598
27842W        W42973  15.573   5.980  15.437 -0.1977 -0.3960  0.1335
27843W        W42974  10.529   4.652   5.881  0.0153 -0.1364 -0.2909
27844W        W42975   9.864   2.651   4.076  0.0922  0.1538 -0.1966
27845W        W42976   7.758   8.908   0.493 -0.0734 -0.0240 -0.2867
27846W        W42977  13.051  12.611   1.232  0.1831 -0.0562  0.1795
27847W        W42978  15.673  15.367   1.870  0.0029  0.0320  0.1981
27848W        W42979  11.813  12.406   2.287 -0.0531 -0.0277 -0.0568
27849W        W42980   6.464   3.854   5.593 -0.1336  0.0837 -0.1999
27850W        W42981   9.662   4.784   5.249 -0.0778 -0.0309  0.0813
27851W        W42982   6.018   1.136   3.325  0.2810  0.0336 -0.1748
27852W        W42983  14.356   8.373   1.694 -0.3295 -0.0753  0.4008
27853W        W42984  17.521   5.821  16.720 -0.2572  0.0658 -0.1381
27854W        W42985   9.760  14.521  12.023  0.1518  0.1052  0.1706
27855W        W42986   7.065   0.533  12.494 -0.0135 -0.0767  0.0697
27856W        W42987   1.102   8.854   2.751 -0.2408  0.1889  0.1952
27857W        W42988   4.430   0.360   4.186  0.1655 -0.1955 -0.1219
27858W        W42989  14.525  12.908  11.382 -0.2321 -0.0279 -0.1056
27859W        W42990   8.808   8.592  16.542 -0.1296  0.1992 -0.0217
27860W        W42991  16.827   8.795  11.280  0.2161  0.0882  0.1122
27861W        W42992   6.327   1.156   0.692  0.0390  0.1691 -0.2270
27862W        W42993   1.709   4.514   0.502  0.1808  0.0440  0.1504
27863W        W42994   5.344  14.252  12.187 -0.2180  0.0099  0.0530
27864W        W42995   8.428   4.506   2.504  0.0364 -0.3136  0.0208
27865W        W42996   6.076   5.284  15.993  0.0691 -0.2932 -0.2231
27866W        W42997  17.013   7.488   3.426 -0.0322  0.1433  0.2614
27867W        W42998   2.194  15.112  13.169  0.2742 -0.2808  0.4544
27868W        W42999   9.202   3.559   5.660 -0.0980  0.0433 -0.3369
27869W        W43000  11.905  11.502   0.598 -0.0329 -0.0241 -0.1808
27870W        W43001   1.085   0.735   0.536  0.2084 -0.1293 -0.4861
27871W        W43002   9.604  16.432   2.205  0.0459  0.1784  0.1997
27872W        W43003   0.435  11.122  13.696 -0.0410  0.0606 -0.0209
27873W        W43004  17.396   5.316   2.426  0.1198 -0.2425 -0.2541
27874W        W43005   6.108  11.514  14.334  0.0982  0.0719 -0.2704
27875W        W43006  14.657  12.382  13.026  0.0292 -0.0962  0.1971
27876W        W43007  15.626   6.646   0.256  0.1640  0.1484  0.1553
27877W        W43008   9.524  13.174   3.679  0.2128  0.0472 -0.2629
27878W        W43009   6.202   0.342   4.804  0.0294 -0.1095 -0.1718
27879W        W43010  16.847   2.656  14.563  0.0140 -0.2260  0.0021
27880W        W43011  16.075  13.843  15.092  0.0029  0.0643  0.0900
27881W        W43012   0.788  10.475  14.353  0.1048  0.0168 -0.0989
27882W        W43013   3.140  16.258   2.177  0.1511  0.1670 -0.4032
27883W        W43014  14.899   3.575   2.919 -0.0074  0.1807  0.0315
27884W        W43015  11.864   7.894   3.914 -0.1177 -0.1369 -0.0190
27885W        W43016   7.051  12.611  14.958  0.1524 -0.1849  0.2075
27886W        W43017   9.516   9.668   5.884 -0.2091  0.0114 -0.1531
27887W        W43018   4.696  13.572   5.740  0.0135  0.1418  0.1338
27888W        W43019   9.332   0.297  14.735 -0.1403  0.2950  0.3187
27889W        W43020  11.089   0.518  13.751  0.2203  0.2572 -0.2438
27890W        W43021   5.651   4.578  11.927  0.1250 -0.0414 -0.0148
27891W        W43022  13.666  16.604  16.366 -0.1953 -0.0507 -0.2114
27892W        W43023  16.564  11.989  16.820  0.1231  0.1898 -0.0229
27893W        W43024  15.109  16.899   4.399 -0.0618 -0.0785  0.2134
27894W        W43025   0.323  15.162  14.365 -0.1850  0.0444 -0.2772
27895W        W43026   2.175  16.911   5.834  0.0707  0.1592 -0.0610
27896W        W43027   6.846  15.704  13.661  0.2227  0.0770  0.1352
27897W        W43028   9.642   5.772   0.127 -0.2055 -0.0547 -0.2085
27898W        W43029   1.982  14.936  16.897  0.0690 -0.0389 -0.0337
27899W        W43030   7.314   3.894  14.271  0.0544  0.1311  0.2014
27900W        W43031   4.505  14.096  13.451  0.0305 -0.2017  0.1374
27901W        W43032   5.844   4.454   3.608  0.1891  0.0368  0.1062
27902W        W43033  13.792  15.656  15.540 -0.2053 -0.3270 -0.0787
27903W        W43034   3.495  15.392   1.049  0.0584  0.0112  0.1061
27904W        W43035   3.705  11.331  16.433 -0.1743 -0.0942  0.1262
27905W        W43036   7.379   0.588   2.114  0.0379 -0.0949  0.1262
27906W        W43037   7.528   8.560   1.063  0.0394  0.1589  0.0152
27907W        W43038   8.841  10.017  16.757 -0.1131 -0.2150 -0.0341
27908W        W43039  14.337   2.903   5.923 -0.0379  0.1497 -0.0767
27909W        W43040  16.823  17.098   0.556  0.3558  0.0568 -0.2164
27910W        W43041  17.628   1.545  16.484  0.2099  0.0308  0.1738
27911W        W43042   0.196  14.006   5.372  0.0954  0.1383 -0.1086
27912W        W43043   3.196  12.468   0.015 -0.0446  0.0861 -0.2991
27913W        W43044  11.362   3.470   3.049 -0.1226  0.2368 -0.0398
27914W        W43045   6.660  10.095   5.690  0.0801 -0.1832 -0.0701
27915W        W43046   5.457  11.658  13.174  0.0172  0.2163 -0.0293
27916W        W43047   6.873   3.648   5.237 -0.1087  0.0984 -0.0410
27917W        W43048  14.475  17.608   1.073 -0.0562 -0.0475 -0.0578
27918W        W43049   3.197  16.328   3.788  0.1288  0.0217 -0.0208
27919W        W43050   6.578   3.457  13.102 -0.0265  0.1925  0.2602
27920W        W43051   7.621   2.530   3.460  0.0268  0.2581 -0.1175
27921W        W43052  11.438  15.099   1.890  0.1635 -0.0748 -0.0103
27922W        W43053  15.662   9.248  16.329  0.0533  0.3651 -0.1008
27923W        W43054   7.673   6.078   0.578  0.2269  0.1772 -0.3010
27924W        W43055   5.899  13.858  11.452  0.0466  0.0719 -0.2015
27925W        W43056  10.294  10.699   3.399  0.1655  0.0337  0.0275
27926W        W43057   2.192   9.352  13.285 -0.4257  0.0002  0.3655
27927W        W43058   5.228  14.970   5.073 -0.0389 -0.0359  0.1190
27928W        W43059  17.305  14.092  14.843 -0.1066  0.1001  0.0808
27929W        W43060   5.234   8.386   4.803  0.0592  0.1099 -0.1018
27930W        W43061  10.219  16.560   5.713  0.1595 -0.3255 -0.3385
27931W        W43062  13.428   2.313  16.576  0.0395  0.0083  0.2459
27932W        W43063   5.877  17.397  13.543 -0.0271 -0.2930 -0.2655
27933W        W43064   1.073   3.663   4.930 -0.0949  0.1255  0.3037
27934W        W43065   4.123   0.772   2.857  0.2162  0.2150  0.2544
27935W        W43066  11.035  10.599   5.026 -0.2113  0.0791  0.1391
27936W        W43067  14.197   4.380   0.812 -0.0890  0.2537 -0.0783
27937W        W43068   7.691  16.427  15.818  0.1221  0.3162 -0.0077
27938W        W43069   2.352   3.984   0.565 -0.2123 -0.0245  0.1534
27939W        W43070  10.039  14.984  14.981 -0.0709 -0.0424 -0.0713
27940W        W43071  17.541   1.322  15.123 -0.0306  0.3161  0.1171
27941W        W43072  12.501   7.651   0.096  0.0057 -0.1208 -0.0129
27942W        W43073  10.398   5.712   4.723  0.0911  0.3241 -0.0995
27943W        W43074  12.756   6.772  14.723  0.1731 -0.3010 -0.1571
27944W        W43075   4.105  12.235  10.897  0.0487  0.0765 -0.0014
27945W        W43076   2.118   5.604   3.865 -0.1601 -0.0331 -0.0495
27946W        W43077   0.552  17.214   2.034  0.1036 -0.2790 -0.0894
27947W        W43078   2.583   8.678  16.221 -0.1618 -0.1438  0.2486
27948W        W43079  14.351   8.347  13.053  0.0384  0.1557 -0.1039
27949W        W43080   2.742  14.393  13.457  0.0199 -0.2535 -0.1040
27950W        W43081   8.550  15.517  11.646  0.7720 -0.1234 -0.0560
27951W        W43082  10.942  14.300   1.079 -0.3670 -0.2093 -0.0474
27952W        W43083   6.420  17.038   2.382 -0.2745 -0.1636  0.1051
27953W        W43084   6.373   7.038   0.835 -0.0888 -0.0198 -0.0116
27954W        W43085  12.210   3.138  14.074 -0.1566  0.2419  0.2091
27955W        W43086   0.830  13.633  13.288 -0.1539 -0.3578 -0.2042
27956W        W43087  16.153   0.775   0.047 -0.1424  0.1659  0.0548
27957W        W43088   8.960  14.537   2.492 -0.0500  0.0321 -0.0811
27958W        W43089   7.604  11.886  14.140  0.0620 -0.1509  0.1085
27959W        W43090  10.154  15.037  14.270 -0.2718  0.1526 -0.1571
27960W        W43091   8.755   2.733  16.281 -0.1142 -0.1532 -0.0762
27961W        W43092  15.867  10.053   4.717 -0.0950  0.1213 -0.0432
27962W        W43093   0.419   3.667  14.951  0.1611  0.2353 -0.1156
27963W        W43094   1.180  11.203  16.847  0.1656  0.0929  0.0360
27964W        W43095   2.760   4.690  11.762 -0.0376 -0.0003  0.1545
27965W        W43096  11.607   3.787  16.528  0.0297  0.2825  0.1337
27966W        W43097   7.414   8.775  16.660  0.0408 -0.0491 -0.0178
27967W        W43098   4.951   2.740  16.058 -0.0514  0.0021  0.1681
27968W        W43099  14.434   1.886  12.332  0.1766  0.0537  0.2223
27969W        W43100   8.770  11.902   1.579 -0.0508 -0.3906 -0.0177
27970W        W43101  17.486   2.132   0.157  0.1325 -0.3472  0.0523
27971W        W43102  17.651  14.445   5.516  0.3200 -0.1840  0.0823
27972W        W43103  15.814  16.620   5.705 -0.2394 -0.0388 -0.1700
27973W        W43104   8.683  16.544   1.376  0.2082  0.3952  0.2872
27974W        W43105   1.555   2.547   5.132  0.0882  0.1643  0.1894
27975W        W43106  15.893   1.538   2.074  0.0936  0.3802  0.0516
27976W        W43107  17.272  11.734   2.123  0.3098 -0.1103 -0.3657
27977W        W43108   7.649  10.587   3.527 -0.0948  0.1874  0.1544
27978W        W43109  11.392  14.343  14.451  0.0221  0.1328 -0.1020
27979W        W43110  10.455  14.177  14.888  0.0406 -0.1519 -0.0607
27980W        W43111   5.543   0.952   4.047  0.0488 -0.2284 -0.3511
27981W        W43112  15.156  15.493   2.113 -0.0683 -0.0762 -0.0908
27982W        W43113   0.557   0.998  11.402  0.2243 -0.5516 -0.0575
27983W        W43114   4.306   6.192  16.371  0.2948 -0.3184 -0.0753
27984W        W43115  12.891  13.471  11.812  0.1811 -0.1129 -0.1560
27985W        W43116   1.175  16.020   2.864 -0.2287  0.1195 -0.1328
27986W        W43117  11.816   3.768  13.387  0.0497 -0.1533 -0.0968
27987W        W43118  14.634   1.025   2.530 -0.1976  0.2186 -0.1489
27988W        W43119  11.285   1.245   0.059  0.1436 -0.1659  0.0435
27989W        W43120  16.997  11.303   3.132 -0.0496 -0.1431 -0.2200
27990W        W43121   3.079   0.064   1.782 -0.1238 -0.0109 -0.0662
27991W        W43122   0.647   6.106  16.409  0.1098 -0.0696  0.1993
27992W        W43123   3.314  16.272  14.276  0.1631 -0.0117  0.1780
27993W        W43124  11.284   4.174  16.293 -0.1330  0.5158 -0.0042
27994W        W43125   5.001  10.153  13.687  0.1087  0.1401 -0.1515
27995W        W43126   1.182   6.066  16.335  0.0234 -0.0498  0.1278
27996W        W43127  13.850   3.971   0.765  0.0406 -0.1485 -0.0769
27997W        W43128   7.529  15.971   3.496 -0.1067 -0.2550  0.1977
27998W        W43129  17.042  15.503   1.596 -0.0120 -0.2774 -0.1623
27999W        W43130   3.170   8.244   0.780 -0.2518 -0.2154  0.1246
28000W        W43131   5.672   6.482   3.737  0.1639 -0.0267 -0.2797
28001W        W43132   9.133   5.803  13.732 -0.0620 -0.1209  0.1214
28002W        W43133   7.599   7.267   6.123 -0.0706 -0.0679  0.0845
28003W        W43134  14.319  17.271  14.812  0.2553  0.0343  0.0161
28004W        W43135  13.325   3.625  10.912  0.0581 -0.2055  0.0600
28005W        W43136   8.543   9.746   1.927 -0.1187  0.2308  0.0455
28006W        W43137  12.873  12.949  15.565  0.1023  0.1160 -0.5276
28007W        W43138   5.389  15.622  13.882  0.0184  0.1346 -0.1559
28008W        W43139  14.282  14.701   1.278 -0.0100 -0.2751  0.0360
28009W        W43140   7.921  10.224  14.244  0.3844  0.0131  0.2369
28010W        W43141  12.971   2.565   3.637  0.1443  0.2297  0.1875
28011W        W43142  11.091  12.736  15.237 -0.1913 -0.3514 -0.2119
28012W        W43143  16.708   5.785   2.674 -0.1485  0.2848 -0.1225
28013W        W43144   4.417   2.775  12.636  0.0009  0.1622  0.2215
28014W        W43145  14.441  13.878  15.978 -0.2386 -0.0644  0.0099
28015W        W43146   6.969  16.025  15.963 -0.0970 -0.0722 -0.1352
28016W        W43147   9.756  11.476   6.200  0.0866  0.0557 -0.1304
28017W        W43148  12.524  15.342   5.040  0.2342  0.1066  0.1117
28018W        W43149  17.624  16.424   2.834 -0.0058  0.0599 -0.2165
28019W        W43150   1.094  17.013   0.611 -0.1246  0.0890  0.4105
28020W        W43151   3.140   9.193  12.827 -0.2229  0.2022  0.2800
28021W        W43152   5.333   2.944  14.293  0.0174 -0.1536  0.1449
28022W        W43153  13.893  13.069   3.055 -0.0898 -0.3067 -0.1579
28023W        W43154  13.207   8.273   5.812  0.2520  0.1744  0.0917
28024W        W43155  13.261   5.483  15.603  0.1318 -0.0642 -0.1714
28025W        W43156   6.264   3.620   1.694 -0.0816 -0.2312 -0.1913
28026W        W43157  10.613  15.442   2.401 -0.2632  0.0753 -0.4543
28027W        W43158   1.718   4.132   5.815  0.2847  0.4241  0.1214
28028W        W43159  15.935   8.219   5.157 -0.1320 -0.1426  0.1757
28029W        W43160   5.164   6.191   4.556  0.0420  0.0381  0.1323
28030W        W43161   5.143   8.549   2.607 -0.1905  0.0825  0.1186
28031W        W43162   2.977   2.636  11.776 -0.2096  0.0110  0.2000
28032W        W43163   5.209   7.162  11.867  0.1655 -0.1088 -0.0099
28033W        W43164   0.916  12.600   4.833  0.1010  0.0828  0.0597
28034W        W43165  13.437   1.563  11.946 -0.3559 -0.0655  0.1239
28035W        W43166  16.766  14.164  14.649 -0.0900 -0.1390 -0.1250
28036W        W43167  16.030   1.598  12.590 -0.0089 -0.2585 -0.0086
28037W        W43168  15.863  11.104  14.535  0.0762 -0.2054 -0.1523
28038W        W43169   3.817  15.622   0.749  0.1097  0.1651 -0.0700
28039W        W43170   8.892   1.299  11.960  0.1214 -0.0810  0.0627
28040W        W43171  10.949  15.265  11.805 -0.0212 -0.0004  0.0164
28041W        W43172  16.135   8.570  11.869 -0.1026 -0.2226  0.3096
28042W        W43173  11.125   0.976   4.295  0.0630 -0.2668 -0.2865
28043W        W43174  11.579   8.439   1.130 -0.1007  0.0679 -0.0067
28044W        W43175  13.445  12.265   5.814  0.1257  0.0051  0.2704
28045W        W43176   8.397   6.289   5.633  0.1112  0.1516  0.0886
28046W        W43177   8.339  10.556  15.164 -0.2525  0.1936 -0.0856
28047W        W43178  11.941  10.853  14.372 -0.0358  0.1077  0.0222
28048W        W43179  16.880   6.730   1.748 -0.1420 -0.0884 -0.3980
28049W        W43180   8.704  10.258   1.800  0.0889  0.1513  0.2043
28050W        W43181  14.199   3.612   5.615  0.1458 -0.1500  0.0558
28051W        W43182   5.334  10.418  16.478 -0.0168  0.2961 -0.0899
28052W        W43183  11.810  14.879   5.002  0.0478 -0.0740  0.2537
28053W        W43184  15.852  16.326  15.083 -0.1606  0.1267 -0.0316
28054W        W43185   8.241  14.295  14.231  0.0698 -0.1592  0.3158
28055W        W43186   9.834   2.702  13.842  0.0527  0.1504 -0.2349
28056W        W43187   4.892  10.621  15.471  0.3740  0.1470  0.1287
28057W        W43188   9.737  13.441  14.177  0.0067 -0.1282  0.1383
28058W        W43189   7.922   2.075   0.946 -0.1304 -0.0842  0.1336
28059W        W43190  16.434  10.787   0.446  0.0641  0.1203  0.0072
28060W        W43191   3.305   2.175  15.654 -0.1205 -0.1987  0.0387
28061W        W43192   5.741   2.849   1.828  0.0300 -0.1015  0.0063
28062W        W43193   8.430   8.925  11.674 -0.0877  0.3171  0.1162
28063W        W43194  10.051  10.845  16.760  0.0801 -0.0062 -0.3725
28064W        W43195  16.092  10.318   1.872  0.1043 -0.0585 -0.0945
28065W        W43196  14.737  13.120  14.929  0.0229 -0.1572  0.0185
28066W        W43197   2.235   6.065   3.652 -0.0706  0.3662 -0.1351
28067W        W43198  13.979   2.115  12.392 -0.0087  0.0206 -0.1059
28068W        W43199  12.358  16.756  15.684 -0.0092  0.0294 -0.1067
28069W        W43200  16.925  13.035   5.087  0.0436 -0.0204 -0.0631
28070W        W43201   7.079   7.949  11.580  0.0063 -0.1021  0.0967
28071W        W43202   1.313   4.200  11.778  0.0222  0.0858  0.1155
28072W        W43203   2.011  11.938  13.258  0.3320  0.0967 -0.1068
28073W        W43204  14.828   0.052  16.134 -0.1221 -0.1769  0.2626
28074W        W43205   6.152  16.919   0.931 -0.3951  0.1339  0.0898
28075W        W43206   3.751   0.097   5.549 -0.0347  0.0156  0.1909
28076W        W43207   5.519  15.012   2.797  0.0470  0.0444  0.0162
28077W        W43208  12.762  13.885   3.291  0.1558 -0.2140 -0.1718
28078W        W43209   5.279  14.413   5.989  0.2014 -0.0653  0.4329
28079W        W43210   3.956  10.929  15.593 -0.0669 -0.2811 -0.0268
28080W        W43211  13.050  15.896  16.084  0.1322 -0.1132 -0.2997
28081W        W43212  14.665   9.277   4.568 -0.1516 -0.2947 -0.2075
28082W        W43213  14.400   1.201  14.438  0.1827  0.2431  0.2633
28083W        W43214   6.738  10.888  12.365  0.0851 -0.2095  0.1021
28084W        W43215  13.378   7.864  11.031  0.0018 -0.2100 -0.3591
28085W        W43216  13.343  17.696   3.975  0.2166  0.0201 -0.2023
28086W        W43217   1.599   7.930  13.450 -0.0042  0.3928 -0.1196
28087W        W43218   3.808   1.368   4.203 -0.0344 -0.2050  0.0748
28088W        W43219   9.185   1.680  11.873  0.3123 -0.1679  0.2123
28089W        W43220  12.187   0.436  12.092 -0.3007  0.3531 -0.1665
28090W        W43221  10.619   6.434   1.457 -0.1522 -0.3653 -0.2461
28091W        W43222   2.222   0.998  16.115  0.0824  0.3290  0.0325
28092W        W43223   6.009   5.017  12.751 -0.4653 -0.3362  0.1116
28093W        W43224  14.349  10.735  12.962 -0.2242  0.1237  0.0379
28094W        W43225   8.636   1.294  15.409  0.1057 -0.1844  0.0476
28095W        W43226   2.891  11.468  16.806 -0.2635  0.1143 -0.1598
28096W        W43227  11.560  17.103  13.006  0.1511 -0.0471 -0.0361
28097W        W43228  10.148  11.727   1.846 -0.4287 -0.1527 -0.0491
28098W        W43229   2.360   3.475   5.429 -0.0779 -0.0907 -0.0685
28099W        W43230   9.198   8.348  12.083  0.2935 -0.1187 -0.0285
28100W        W43231   6.707  11.177  16.738 -0.1943  0.0746  0.0831
28101W        W43232   3.300  11.435   5.788  0.2224  0.1292  0.0013
28102W        W43233   2.073  14.424   2.435 -0.2470 -0.1696  0.2727
28103W        W43234  14.983  16.333   5.094 -0.0606 -0.1264  0.0756
28104W        W43235   2.398  13.724  14.542  0.2761  0.1052 -0.0634
28105W        W43236   0.871  10.538   2.496  0.2274  0.1591 -0.1451
28106W        W43237   6.873  11.487   4.620  0.0850  0.0348  0.0518
28107W        W43238   1.738   7.236   4.492 -0.0039 -0.2964 -0.0277
28108W        W43239  16.601   6.637   3.664 -0.1139 -0.2313  0.1934
28109W        W43240  14.472   8.952  11.286  0.0264 -0.0569  0.0777
28110W        W43241   3.254  12.689  14.530 -0.0340 -0.0218 -0.1123
28111W        W43242   9.898   8.238   1.442 -0.0024  0.1217 -0.1984
28112W        W43243   9.347   5.397   0.117  0.0848 -0.0804 -0.0110
28113W        W43244  17.065   1.531  15.209  0.3936 -0.1046 -0.2756
28114W        W43245   0.051   7.326  14.564  0.0669  0.1063  0.0476
28115W        W43246  13.056   0.492   1.048  0.0711  0.1075 -0.0925
28116W        W43247  15.888   8.732  12.399 -0.1645 -0.2010  0.1841
28117W        W43248   9.935   5.273  16.341 -0.1058  0.0751 -0.1427
28118W        W43249   5.515  15.792  11.277  0.0883  0.3381  0.1271
28119W        W43250   2.974   8.693   3.814 -0.3103 -0.0633  0.2919
28120W        W43251  15.519  16.581  15.310 -0.0840 -0.0003  0.2100
28121W        W43252  16.571  10.874   4.312 -0.3240 -0.1176  0.2311
28122W        W43253   9.677  10.397  12.180 -0.0267 -0.1486  0.0537
28123W        W43254   0.186   9.588   0.124 -0.1043 -0.0217 -0.2695
28124W        W43255   0.346   0.533  15.672  0.1161 -0.0135  0.1021
28125W        W43256   0.306  13.748  13.647  0.0004 -0.0197  0.1174
28126W        W43257  12.050  16.143  12.833  0.2131  0.0897  0.3554
28127W        W43258   8.550   7.057   2.363  0.0634  0.2431  0.1272
28128W        W43259   8.596   7.976  14.712  0.1443  0.1168 -0.1235
28129W        W43260   8.352  11.583  15.519  0.0628  0.1740 -0.3903
28130W        W43261   3.395   1.445   3.889  0.0004  0.1370  0.0656
28131W        W43262   4.957  15.060  16.884 -0.0010 -0.0583 -0.0744
28132W        W43263   8.689  12.083   3.129  0.1049  0.0675 -0.0405
28133W        W43264   1.064  14.976  13.787  0.0182  0.1660  0.1366
28134W        W43265  16.335   5.790  15.032  0.2775  0.3832 -0.0132
28135W        W43266  12.384  12.843  15.394  0.0665  0.1671  0.1548
28136W        W43267  14.137  16.006   5.601  0.1866 -0.0890  0.0800
28137W        W43268   0.122  10.592  13.695 -0.1639 -0.1532 -0.3261
28138W        W43269   5.802  14.278   5.205  0.1435  0.0995 -0.1938
28139W        W43270  16.010   1.868  13.051 -0.3701 -0.0556  0.1497
28140W        W43271  10.281   6.151   1.882 -0.0731  0.3637  0.1393
28141W        W43272  13.214  15.534  14.713 -0.0980 -0.3248  0.2622
28142W        W43273   2.826   4.596  13.367 -0.4783  0.0383  0.0043
28143W        W43274   2.854   7.194   4.075 -0.1591  0.0971 -0.0124
28144W        W43275   3.901   5.941  16.103  0.1792 -0.2388 -0.1694
28145W        W43276  15.573   9.684  15.664 -0.1698 -0.2235  0.0391
28146W        W43277  14.108  13.836   2.556 -0.1654 -0.0063  0.1732
28147W        W43278   9.967  14.537  14.244 -0.3872  0.4402  0.1957
28148W        W43279  12.995   2.947   4.751 -0.3790 -0.1911 -0.0643
28149W        W43280   6.757   5.827   5.153  0.0278  0.0036  0.2432
28150W        W43281  11.834   4.801   5.770  0.2641  0.0860  0.0450
28151W        W43282   7.181   9.594  16.079 -0.1829  0.0336  0.0214
28152W        W43283  17.141  11.437   0.284  0.2770  0.2039  0.1420
28153W        W43284   8.935  16.282   2.369  0.1493 -0.1148  0.1493
28154W        W43285   0.917   3.976   5.274  0.3452  0.0152 -0.3084
28155W        W43286   3.981   0.326  13.624 -0.2679  0.1596 -0.0520
28156W        W43287  13.425   6.953  15.463  0.1324  0.3841 -0.1923
28157W        W43288   1.953  17.263  12.557  0.1546  0.3524 -0.1358
28158W        W43289   9.516  13.110  11.928  0.1287  0.0079 -0.3293
28159W        W43290  14.556  14.244  15.639  0.2508 -0.1207 -0.1069
28160W        W43291   3.588   3.952   3.394 -0.0420  0.0078  0.1216
28161W        W43292   7.315   0.503  15.248 -0.2858  0.0043 -0.1604
28162W        W43293   3.755   2.895  11.398  0.0198  0.2347  0.0658
28163W        W43294  14.908  15.692   5.929  0.0029 -0.1739  0.0894
28164W        W43295   0.508   2.821  14.422 -0.1818 -0.0509  0.0255
28165W        W43296   2.625   5.450  15.958 -0.1852 -0.0932  0.0082
28166W        W43297   2.917   4.097  13.689  0.3208  0.0079 -0.1586
28167W        W43298   9.252   2.538  11.517  0.2359 -0.0899 -0.0032
28168W        W43299   5.784   5.209  16.443  0.1199  0.0287 -0.0024
28169W        W43300   2.857  14.172   5.098 -0.3420  0.1690  0.4235
28170W        W43301   8.712   9.746  14.363  0.2991 -0.0535  0.1034
28171W        W43302  10.928   9.399   3.504 -0.2767 -0.0334 -0.3612
28172W        W43303   3.966   0.769   2.169 -0.0896  0.0444 -0.0387
28173W        W43304  16.130   4.266   4.544 -0.0243 -0.1794 -0.2156
28174W        W43305  13.009   7.711  16.008 -0.2283 -0.3662 -0.1324
28175W        W43306   1.754   7.999  11.273 -0.1216 -0.0610  0.0273
28176W        W43307  17.253   4.341  12.111  0.1021 -0.1184 -0.1099
28177W        W43308   2.664   0.710   4.033 -0.2087 -0.0044  0.0132
28178W        W43309  17.479   2.027   2.449 -0.2621 -0.2656  0.3328
28179W        W43310  10.428   4.699  13.260  0.1283  0.0089 -0.0872
28180W        W43311  12.938   2.353  16.850 -0.1692  0.1437  0.4304
28181W        W43312  17.041  16.658  16.719 -0.0672  0.0097 -0.0177
28182W        W43313  10.560   8.392  11.705 -0.0481 -0.4518 -0.1318
28183W        W43314   0.134   2.858  11.562  0.0782 -0.1277  0.2572
28184W        W43315  10.442   3.591   2.260 -0.1786  0.0494  0.0878
28185W        W43316   9.865  10.383   0.443  0.0311 -0.0174  0.1946
28186W        W43317  12.365   7.454  14.232  0.0146 -0.0986  0.3371
28187W        W43318  15.859   5.343  15.711  0.1225 -0.1770  0.1960
28188W        W43319   1.018   9.635   0.145 -0.1453 -0.0844  0.2528
28189W        W43320  16.843  11.334  14.224  0.0254  0.1843 -0.0061
28190W        W43321   1.428  13.351  11.524 -0.0113  0.0375  0.2926
28191W        W43322   8.499   0.625   2.939 -0.1179  0.1055 -0.1671
28192W        W43323  10.691   0.942   4.099 -0.2240  0.2617 -0.3813
28193W        W43324  13.288   1.343   3.993  0.1858  0.1313  0.2177
28194W        W43325  10.250   7.931  15.610  0.4634  0.3038  0.2262
28195W        W43326   7.035   1.860  12.484 -0.0693  0.1845  0.3705
28196W        W43327  15.673   2.055   4.083 -0.1654 -0.1319 -0.2204
28197W        W43328   2.542   3.973   3.354 -0.2931  0.0390 -0.2032
28198W        W43329  17.064  13.433  12.127  0.1143  0.2233 -0.3192
28199W        W43330  10.093  11.330  14.646 -0.0814 -0.2159 -0.0032
28200W        W43331  12.763   3.956   2.036 -0.1407  0.4336 -0.0230
28201W        W43332   3.977  14.394   3.360 -0.0541 -0.2097  0.1816
28202W        W43333   4.969  11.133   3.109 -0.1690  0.0600 -0.1764
28203W        W43334   7.711  15.137  15.178  0.1221 -0.0782 -0.1492
28204W        W43335   7.210  12.226  13.630  0.0790  0.0592 -0.3016
28205W        W43336   2.651   3.833   1.942 -0.1293  0.0051  0.2058
28206W        W43337  11.103   9.848   3.297 -0.0990  0.2434  0.0832
28207W        W43338  14.689  11.116  15.788  0.1032 -0.0239 -0.1340
28208W        W43339   2.710   4.796  12.661 -0.0083 -0.0236  0.0460
28209W        W43340  17.649  11.030  13.969 -0.0004 -0.1889  0.3037
28210W        W43341   2.474  13.056   4.951  0.0555  0.0675  0.2543
28211W        W43342   4.338  12.367  16.879  0.1086 -0.0517 -0.2068
28212W        W43343  10.874  15.753   3.013  0.0606 -0.1819 -0.0548
28213W        W43344   8.578  12.639  16.517 -0.0214 -0.0762  0.2011
28214W        W43345  13.838   6.191  12.289 -0.2570  0.3830 -0.2812
28215W        W43346   9.357  10.219   3.383 -0.1178  0.2320  0.1145
28216W        W43347   2.666  10.973  16.702  0.0556  0.0473  0.2489
28217W        W43348  12.933   1.702  11.749 -0.0396 -0.0888 -0.3966
28218W        W43349   8.509  15.157   1.792 -0.1011  0.1679 -0.0816
28219W        W43350   6.139   8.687  16.709  0.1485 -0.3659  0.0618
28220W        W43351  11.673   7.072   1.276 -0.0428  0.2628  0.0923
28221W        W43352   6.427  15.281   0.424  0.3452 -0.1788  0.2935
28222W        W43353  16.467   5.960   1.892  0.0203  0.1192  0.1966
28223W        W43354  11.429   0.681  13.309  0.3093 -0.1910 -0.1270
28224W        W43355  13.571  14.161   1.876 -0.0276  0.2914 -0.3974
28225W        W43356  10.504  17.561   2.614  0.0001  0.2034  0.0415
28226W        W43357   3.973  15.439   3.994  0.0857 -0.1086 -0.0954
28227W        W43358   2.758  12.633   5.017 -0.0981  0.2129  0.1288
28228W        W43359  15.522   3.332   3.663 -0.0986 -0.0125 -0.1486
28229W        W43360  17.713   1.407   0.404  0.1348  0.1029  0.0408
28230W        W43361  14.673   9.000   0.172  0.0193  0.2578 -0.0264
28231W        W43362  16.436   9.878   1.782 -0.1421  0.3229  0.3008
28232W        W43363   7.003  13.457  15.183  0.0682  0.2966 -0.1120
28233W        W43364  16.778  13.365  14.414 -0.0161  0.0620 -0.0170
28234W        W43365   4.729  10.868   0.115 -0.1722  0.0751 -0.1696
28235W        W43366  16.773   7.745  12.211 -0.1915 -0.5422 -0.0363
28236W        W43367   1.483   5.180   4.970  0.1319  0.0175 -0.0171
28237W        W43368   3.154   0.837   4.472 -0.3568  0.0939  0.1246
28238W        W43369  17.471   8.954  11.101 -0.1380  0.0928  0.3132
28239W        W43370   0.881   2.939  11.141 -0.3330  0.0752  0.0701
28240W        W43371  15.337  11.152   3.880 -0.0037  0.4521 -0.1925
28241W        W43372  13.672  14.231   4.127 -0.0367 -0.0535  0.1309
28242W        W43373   2.273  10.439  14.007 -0.2636  0.0256  0.2336
28243W        W43374   7.277   3.762  12.778  0.0684 -0.2512 -0.0848
28244W        W43375   7.060   4.004  16.747 -0.1225  0.0536 -0.0730
28245W        W43376   9.856  16.524   3.359  0.2479 -0.1882  0.0780
28246W        W43377   4.134   5.372  13.415  0.4689 -0.1153 -0.0546
28247W        W43378   9.046   8.298   4.511  0.0198  0.1500  0.0812
28248W        W43379  16.119   9.683  13.378 -0.3132  0.0745  0.1631
28249W        W43380   2.282  11.218  11.252 -0.2655  0.3662 -0.2066
28250W        W43381   7.390   5.741   5.755 -0.0330  0.0198  0.0742
28251W        W43382  13.292  10.462   1.238  0.0619  0.0269  0.1322
28252W        W43383   8.659  12.946  12.125 -0.3810  0.2164  0.0836
28253W        W43384   0.394   6.881   3.098  0.3712 -0.0514  0.1911
28254W        W43385   5.734  12.154  15.637  0.2142  0.3510 -0.3025
28255W        W43386   2.381   2.180   4.148 -0.2997 -0.0918 -0.2381
28256W        W43387   0.209   5.954   4.150  0.1163  0.2103  0.3633
28257W        W43388  17.553  16.725  14.548 -0.3512  0.1194 -0.0511
28258W        W43389   6.069   1.241   2.685 -0.0740 -0.1381  0.2629
28259W        W43390  14.373   0.164   4.016  0.0666 -0.1827 -0.0339
28260W        W43391  15.323  16.259  12.154 -0.3266  0.0554 -0.0061
28261W        W43392  13.415  11.628  11.826 -0.1003 -0.1426 -0.2349
28262W        W43393  14.753  14.641  14.232  0.2659 -0.0890  0.0380
28263W        W43394   1.505   1.268  13.478  0.3078  0.0507 -0.2471
28264W        W43395  14.188   6.067   4.737  0.2738 -0.2301 -0.1648
28265W        W43396  13.573   0.692  14.458 -0.0705 -0.4501 -0.1473
28266W        W43397   8.334   4.387  12.260 -0.3234  0.2321 -0.1633
28267W        W43398   5.554   9.549  10.784 -0.0889 -0.2367  0.0680
28268W        W43399  13.064  10.482  16.897 -0.0598  0.0205  0.0401
28269W        W43400   9.785  17.405   3.442 -0.0385  0.1288  0.0383
28270W        W43401   4.486   9.102   5.794 -0.0110 -0.1495  0.0954
28271W        W43402  16.079  13.140  13.585  0.0004  0.1741 -0.1279
28272W        W43403  11.381   0.262   5.163 -0.1822 -0.1113  0.1534
28273W        W43404  11.904   3.530  14.231  0.0399  0.0445 -0.2463
28274W        W43405  11.005   0.068   3.431  0.2703 -0.1722 -0.1528
28275W        W43406  11.417   9.345   3.760 -0.1701  0.0961 -0.4379
28276W        W43407   3.079  15.141   1.474  0.2623 -0.0777 -0.1441
28277W        W43408   6.714   9.531   1.941 -0.1295 -0.2599  0.1396
28278W        W43409   5.983   0.646   2.004  0.4421  0.1215 -0.1953
28279W        W43410  13.190  14.917   2.834 -0.0692 -0.1400  0.1208
28280W        W43411   2.820   1.869   3.840 -0.0571  0.1218 -0.1383
28281W        W43412   5.890   4.855  12.260  0.1362  0.1695  0.1809
28282W        W43413   3.395  11.832   6.029  0.1999 -0.1252  0.1612
28283W        W43414   8.544  14.467  12.953 -0.2208  0.1422  0.0780
28284W        W43415  12.850  13.681   4.019  0.3532 -0.0308  0.5453
28285W        W43416   8.769   6.720  10.568  0.3411  0.0523 -0.1701
28286W        W43417   1.176  16.698  14.446 -0.0811  0.1812  0.0381
28287W        W43418   8.411  10.613   1.537 -0.0059  0.0649  0.1396
28288W        W43419   0.475  12.004   3.176  0.0536 -0.2231  0.1919
28289W        W43420   5.394   2.913   2.274  0.0150 -0.2132 -0.2158
28290W        W43421   0.864   7.828  11.183  0.1367  0.0489 -0.2135
28291W        W43422   9.888   9.481  16.380 -0.0866 -0.1281 -0.0788
28292W        W43423  16.855   5.184   1.671 -0.3173 -0.1361  0.1038
28293W        W43424  15.476   6.115   2.375 -0.1108 -0.3942  0.1368
28294W        W43425   7.909   3.406  15.547  0.1468  0.0473 -0.1439
28295W        W43426   6.389   7.564   4.767 -0.0475  0.1212 -0.0588
28296W        W43427  10.823  13.630   4.663 -0.0782 -0.1339 -0.0656
28297W        W43428   1.668   7.751   5.133 -0.0029 -0.0554  0.2263
28298W        W43429   3.397  14.020  12.134 -0.3416  0.0101 -0.0137
28299W        W43430   0.059   5.654  15.843 -0.1703  0.0338  0.3472
28300W        W43431   8.089   1.399   0.437  0.2138  0.1292 -0.1727
28301W        W43432   3.688   8.547  13.466  0.0220  0.4133  0.0112
28302W        W43433   1.473   6.581   1.764  0.2118 -0.2031 -0.0807
28303W        W43434  12.837  17.076   4.754 -0.0229 -0.0257 -0.1519
28304W        W43435   0.726  15.705   0.409  0.0153 -0.2237  0.1838
28305W        W43436   8.425   8.907  16.799  0.0366  0.1872  0.2572
28306W        W43437  14.838  10.548   4.353 -0.1669  0.1010  0.0700
28307W        W43438   0.433  10.586  12.257  0.1752 -0.1798 -0.2336
28308W        W43439   0.596  15.180   3.734 -0.2023 -0.2471  0.0244
28309W        W43440   2.728   6.009  16.545 -0.0134  0.2358 -0.2639
28310W        W43441  10.606  12.145  14.419 -0.1612 -0.0497  0.0008
28311W        W43442   8.958  11.252   1.670  0.2882 -0.1006 -0.0689
28312W        W43443   7.919   0.841  12.847  0.1184 -0.4224 -0.0210
28313W        W43444  10.761  14.928   6.485  0.1971  0.1302  0.2615
28314W        W43445   7.167  15.905   1.973  0.1562 -0.0965  0.2219
28315W        W43446  13.853   4.256   1.239 -0.1075  0.0764 -0.0175
28316W        W43447   2.048  16.411  16.460 -0.0491 -0.0138  0.1117
28317W        W43448   6.150   3.998   3.437  0.0832 -0.1854  0.1243
28318W        W43449  13.259  11.286  12.446 -0.2574  0.0565 -0.2069
28319W        W43450   8.751  11.832  14.397 -0.1819  0.0789 -0.1952
28320W        W43451   2.683  14.346  14.051 -0.0216  0.1374  0.1337
28321W        W43452   8.135   0.852  14.246  0.3295 -0.1979 -0.2578
28322W        W43453  11.222   9.547   1.361 -0.0402  0.0537 -0.1009
28323W        W43454   5.173  13.388  12.123  0.0551  0.1135  0.0990
28324W        W43455  11.980  16.907   4.981 -0.1506  0.0196  0.0174
28325W        W43456   2.194   3.501  13.311  0.3010  0.0901  0.0731
28326W        W43457   0.901   2.216   2.547  0.1767  0.3513  0.1227
28327W        W43458   9.870   5.549   4.133 -0.1728 -0.2258 -0.0174
28328W        W43459  10.287   1.031  13.916  0.1370 -0.1591 -0.3940
28329W        W43460  11.491   2.188  15.946 -0.2484  0.0660  0.0433
28330W        W43461   6.802   9.149  11.906  0.1208  0.0929 -0.0340
28331W        W43462  17.673   8.530  15.288 -0.1842 -0.5710  0.0320
28332W        W43463   5.628   5.573   1.999 -0.0938 -0.1231 -0.2148
28333W        W43464   7.496  10.564  14.425  0.2031  0.0685  0.1351
28334W        W43465   4.723  15.419   0.166 -0.2618 -0.1042 -0.0305
28335W        W43466   4.067  15.264   4.978 -0.1355 -0.0645  0.0066
28336W        W43467  11.181   3.358  16.622 -0.1628  0.0435 -0.0708
28337W        W43468  11.142  16.611   3.252  0.2557 -0.2082  0.0635
28338W        W43469   1.911  17.499  13.386 -0.1056  0.1135  0.1709
28339W        W43470  16.359  16.904   5.702  0.0682  0.0130  0.0716
28340W        W43471   9.136   1.497  15.815  0.3156  0.1108  0.1430
28341W        W43472   8.163   8.035  12.743  0.2892  0.1289  0.0466
28342W        W43473  15.460   3.725   2.677 -0.1327  0.0010  0.0742
28343W        W43474   6.895  17.377   5.226 -0.1149  0.0501 -0.0129
28344W        W43475  15.656   6.627  14.246  0.4522  0.1862 -0.1655
28345W        W43476  11.153  10.691   0.696 -0.2279 -0.2445 -0.1871
28346W        W43477  10.509   5.118   9.992 -0.1183  0.3208 -0.1205
28347W        W43478   5.019   2.124   5.306 -0.1613 -0.1910 -0.2730
28348W        W43479   4.723   4.978   4.480 -0.1301  0.1113 -0.2068
28349W        W43480   5.552   0.418   4.216 -0.3131  0.0067 -0.0762
28350W        W43481   1.389   6.692   2.280  0.0163 -0.1107 -0.1022
28351W        W43482   3.126   5.063  15.526  0.0173 -0.1458  0.2605
28352W        W43483   1.310   2.442  10.924  0.1526  0.0671 -0.1118
28353W        W43484   1.225  15.403   1.000 -0.1419 -0.1257 -0.3680
28354W        W43485  11.092  15.745   0.277 -0.0515  0.0022  0.3430
28355W        W43486  12.742  15.693   3.286 -0.0319 -0.2281 -0.0694
28356W        W43487   7.552   7.884   4.396  0.1840 -0.2160  0.0017
28357W        W43488   0.910   9.446  11.057 -0.2363 -0.0205 -0.1426
28358W        W43489  15.919   6.132  14.131 -0.0590 -0.1019  0.2513
28359W        W43490  15.968  14.334  11.516 -0.0408 -0.0729 -0.1941
28360W        W43491  11.194   2.341  13.647 -0.0643 -0.2750 -0.3412
28361W        W43492   5.555   2.398  13.380 -0.1403  0.2801 -0.1702
28362W        W43493  10.725  17.245  16.435  0.4545 -0.0105  0.3205
28363W        W43494  10.217  17.261  16.070 -0.3002  0.0556 -0.2667
28364W        W43495  10.798   3.063   1.802  0.0117 -0.0091  0.0627
28365W        W43496   7.106   5.155  11.076 -0.1597 -0.1157  0.3281
28366W        W43497   2.759  15.883   1.997 -0.0762  0.0156 -0.1436
28367W        W43498   5.699  14.813   5.150 -0.3575  0.0104  0.1179
28368W        W43499   6.190   4.711   3.867  0.1730 -0.0361 -0.0841
28369W        W43500   4.725  13.524  12.374 -0.0455 -0.3932 -0.1113
28370W        W43501  11.212   5.873   4.006 -0.0492  0.2531 -0.4125
28371W        W43502  12.105  12.855   0.321 -0.0851 -0.3619  0.1504
28372W        W43503  16.156  12.179  14.776  0.1386 -0.1045  0.0476
28373W        W43504  17.209   7.197   3.068  0.0526 -0.0302 -0.0755
28374W        W43505   3.202  11.389  13.192  0.0207  0.0355  0.1507
28375W        W43506  16.222  12.597   5.449 -0.1195 -0.0416  0.3197
28376W        W43507   4.902   7.647  12.955  0.0990 -0.0851 -0.0235
28377W        W43508  11.538   0.846   5.904  0.1005 -0.1982 -0.1243
28378W        W43509  17.596  15.052   5.193 -0.3901  0.0615 -0.0445
28379W        W43510   7.418  13.278   3.221 -0.0197  0.1693 -0.2699
28380W        W43511  12.285  14.356  11.931  0.0105 -0.0971 -0.0375
28381W        W43512  11.212  12.989   5.956 -0.0248  0.1122  0.1984
28382W        W43513  13.649   7.224  11.836  0.2214  0.0710  0.0525
28383W        W43514  16.187  17.395  14.944  0.2505 -0.1119 -0.3023
28384W        W43515   7.763  12.231   0.858 -0.2609 -0.1338  0.1145
28385W        W43516   1.782  14.931   3.916 -0.0525 -0.0884 -0.1603
28386W        W43517   8.838   7.907   3.632  0.0117  0.1751 -0.3631
28387W        W43518   2.529   4.135   1.563 -0.1083 -0.0844 -0.0348
28388W        W43519   4.938   8.452   3.838  0.0660 -0.3871 -0.1534
28389W        W43520  15.442  14.204   5.543 -0.0633 -0.0285  0.2205
28390W        W43521   5.062   8.093   2.700  0.0996 -0.2093 -0.0598
28391W        W43522   6.456   3.612   3.286 -0.0035 -0.1549  0.1578
28392W        W43523   9.738   7.755  12.586 -0.1212 -0.4060 -0.1227
28393W        W43524  16.068  16.741  12.136 -0.0305 -0.1624  0.1028
28394W        W43525   1.605  11.210   3.361 -0.0837 -0.0446  0.0189
28395W        W43526  14.823  11.444  11.178 -0.0740 -0.0052  0.3061
28396W        W43527   2.955   9.526   1.153 -0.0502  0.2290  0.0228
28397W        W43528   4.182  16.478  12.253 -0.1056  0.0251  0.1682
28398W        W43529   6.940   2.633  16.282  0.3731 -0.3921 -0.0097
28399W        W43530   1.137   8.625   5.258 -0.0802 -0.0510  0.1006
28400W        W43531   5.228  15.874   4.647 -0.0536 -0.2736  0.6023
28401W        W43532   8.741  10.312  15.863  0.0030 -0.4546  0.1131
28402W        W43533   3.534  14.661   3.423  0.1030 -0.0839  0.3329
28403W        W43534   5.503  16.345   5.572  0.0411  0.0432  0.0427
28404W        W43535  14.764   6.520   0.800  0.0461 -0.2291  0.1792
28405W        W43536   3.123  15.964   1.645  0.1963 -0.0814 -0.2232
28406W        W43537   2.954  12.894   5.409 -0.0605  0.1018 -0.0881
28407W        W43538  17.629  13.875  11.464  0.1256 -0.0817  0.2583
28408W        W43539   6.455   1.319   3.069  0.3122  0.2046 -0.3695
28409W        W43540   0.797   0.130   1.694 -0.0403 -0.2713  0.1948
28410W        W43541  10.329   7.753   2.660 -0.2230  0.1306  0.0326
28411W        W43542  10.252  15.949   5.014  0.1607 -0.1743 -0.0919
28412W        W43543  13.536   5.625  12.123 -0.3062 -0.1868  0.0371
28413W        W43544  15.722   0.306  16.008  0.1862 -0.1518  0.1218
28414W        W43545  14.047  13.890   2.045 -0.2999 -0.0808 -0.0093
28415W        W43546   8.310   2.766  12.623 -0.4495 -0.3350 -0.0452
28416W        W43547   7.801   2.156  15.000  0.0516 -0.0357  0.1411
28417W        W43548   3.236  12.712  12.959 -0.1306 -0.1320  0.0657
28418W        W43549   2.259   7.867  16.919 -0.1149 -0.1734 -0.0262
28419W        W43550   0.631   6.782  14.685 -0.2633  0.0450 -0.1370
28420W        W43551   7.619   7.614  15.704  0.3102  0.0270 -0.1890
28421W        W43552   4.592   0.159  13.955 -0.0421  0.1287  0.0935
28422W        W43553  13.691   6.583  15.670 -0.0606  0.0090 -0.0673
28423W        W43554   7.325  15.959  15.537  0.2621  0.2160  0.2669
28424W        W43555   5.660   2.457  11.863  0.0898  0.0812 -0.0787
28425W        W43556  10.382  15.656  10.730 -0.2734 -0.0584  0.1902
28426W        W43557  17.095  14.062   6.108 -0.0460  0.1492  0.4109
28427W        W43558   3.727  16.565   6.052 -0.0504 -0.4322 -0.2228
28428W        W43559   5.040   1.086   0.200 -0.0390  0.1130 -0.2395
28429W        W43560  14.453   0.650   0.413  0.1718  0.0711 -0.4263
28430W        W43561   5.803   8.525  15.717  0.0015 -0.2686  0.2399
28431W        W43562   4.563  12.593  12.387 -0.0748 -0.0202 -0.3306
28432W        W43563   6.090  14.337  15.922  0.0248  0.1057 -0.1930
28433W        W43564   1.212   7.716  16.562  0.2948 -0.0901  0.1045
28434W        W43565   1.111  12.630   1.287 -0.3909  0.0363  0.2239
28435W        W43566  15.333  10.756   4.470  0.1122  0.3183 -0.1546
28436W        W43567   7.181   0.899   1.549  0.2600  0.0900  0.0485
28437W        W43568  15.508  13.668  12.880 -0.2489  0.1408 -0.1453
28438W        W43569   0.279  10.098   1.126 -0.2447  0.1395  0.0989
28439W        W43570  16.649   1.205  13.183  0.0634 -0.0818  0.4415
28440W        W43571   4.492   9.649   2.145  0.0785  0.0460  0.2504
28441W        W43572   7.276   5.052   0.951 -0.0552  0.2828 -0.0668
28442W        W43573   5.061  14.229  13.422 -0.1473 -0.0416  0.1718
28443W        W43574   1.419   8.962  12.854  0.3569  0.0436  0.0441
28444W        W43575   2.256   3.192  12.809 -0.1624  0.3146 -0.1831
28445W        W43576  10.372   1.659  15.998 -0.1622 -0.0411 -0.1582
28446W        W43577  16.386   6.290  16.847  0.2776 -0.0047  0.2841
28447W        W43578   0.271   1.876   0.180 -0.0531 -0.0638 -0.0088
28448W        W43579   6.157  13.791  15.816  0.5082  0.4634  0.0476
28449W        W43580  13.374   8.287   6.252 -0.1647 -0.1019  0.0027
28450W        W43581  13.178   1.190   2.817 -0.1859 -0.4360  0.1249
28451W        W43582  16.906  10.556   1.232 -0.1129 -0.1442 -0.0727
28452W        W43583   6.756   8.042  14.509  0.0501 -0.2869 -0.3214
28453W        W43584  10.663  10.408  12.632  0.1407 -0.0489 -0.0154
28454W        W43585  13.123  16.675   3.187 -0.0459 -0.1077 -0.1799
28455W        W43586   9.841   8.867  16.857  0.3881  0.1302  0.1455
28456W        W43587   2.780   3.935  15.986  0.2835 -0.1709  0.0639
28457W        W43588  12.686   9.331  13.012 -0.2899  0.2750 -0.0770
28458W        W43589   0.243   6.335   1.120 -0.0438  0.0911 -0.1551
28459W        W43590   4.560   6.112   5.014  0.0993  0.0641 -0.2629
28460W        W43591   5.082  12.469   0.476  0.0217 -0.1794 -0.0610
28461W        W43592  13.873  14.603   0.812 -0.1615 -0.1330  0.1769
28462W        W43593   5.173   8.850  16.804  0.0731  0.0231 -0.2046
28463W        W43594   5.677  12.692   2.732 -0.1845  0.0954  0.2563
28464W        W43595   8.788   5.947   4.299  0.0529 -0.0062  0.4992
28465W        W43596   7.796   7.763   0.988  0.0817 -0.0108  0.2532
28466W        W43597  17.322   1.613   3.063 -0.0811  0.1904  0.0513
28467W        W43598   4.720   8.431  11.835  0.2334  0.0098  0.0307
28468W        W43599   3.814  14.409   5.813  0.0346 -0.1644  0.1111
28469W        W43600   7.299  14.335   0.034  0.1046  0.1512 -0.2830
28470W        W43601   8.216  12.219   0.988 -0.3354 -0.3387 -0.3049
28471W        W43602   3.525  13.859   0.052  0.0119 -0.0914 -0.0936
28472W        W43603  13.784  10.619  16.809 -0.1394  0.1051 -0.1047
28473W        W43604  16.194   9.756   0.903  0.1886  0.0796 -0.2082
28474W        W43605   8.606   5.363   3.627  0.4226 -0.2045  0.3090
28475W        W43606   7.153   4.877   0.043 -0.0049  0.3844  0.0022
28476W        W43607  17.063  13.685   0.862 -0.3513  0.2045  0.1549
28477W        W43608  12.432   2.963  13.283 -0.0507 -0.0309 -0.3025
28478W        W43609  11.880  10.343  16.606  0.1811  0.3685 -0.0502
28479W        W43610  11.874  15.500   0.435  0.4234 -0.1004  0.1396
28480W        W43611  11.287  13.518  11.733 -0.1331  0.1558 -0.0348
28481W        W43612   6.537   6.215   2.666  0.0100  0.2119  0.1916
28482W        W43613   1.828  14.233   5.092  0.1787 -0.1982 -0.1019
28483W        W43614   1.119  10.225   1.453 -0.0421 -0.0059  0.0735
28484W        W43615   1.559   8.394   0.441  0.0101  0.0072 -0.0557
28485W        W43616   8.770   7.137   1.529 -0.0503 -0.3476  0.0413
28486W        W43617  15.778  17.504   2.272  0.1004 -0.1098  0.0927
28487W        W43618   7.668   7.282  11.034 -0.2050  0.4506 -0.2871
28488W        W43619  15.336  13.633   1.696 -0.0860 -0.2398 -0.1351
28489W        W43620   8.248   0.354   2.462  0.1152 -0.0865 -0.0454
28490W        W43621   0.310   8.138  15.212 -0.1048 -0.0963  0.0380
28491W        W43622   9.269   2.290  15.447 -0.1957  0.0863  0.0357
28492W        W43623   7.964   6.809  15.946 -0.2062  0.1394  0.0900
28493W        W43624   8.870   6.988  12.829 -0.3361  0.5105  0.0854
28494W        W43625  12.790  16.696  16.616  0.2583  0.0524  0.3681
28495W        W43626   8.875   2.089  12.050  0.0791 -0.1522 -0.1712
28496W        W43627   9.683   6.037   5.136 -0.1904 -0.0894  0.1068
28497W        W43628  14.707  12.880   2.135 -0.0007 -0.1258 -0.2422
28498W        W43629   2.007  16.795   0.339  0.0615  0.0078 -0.0677
28499W        W43630  14.827   9.557  13.694 -0.1288  0.1126 -0.1909
28500W        W43631   8.999  15.275   1.714  0.3133  0.0896 -0.2971
28501W        W43632  12.010  14.515   1.304  0.0629  0.0412 -0.3082
28502W        W43633   6.944   2.897   5.618 -0.0086 -0.1247 -0.0276
28503W        W43634  17.173   7.388   1.661 -0.0240  0.0631 -0.0048
28504W        W43635   1.551   6.590   5.577  0.2077 -0.1559  0.0520
28505W        W43636   5.510  14.171  13.765 -0.1332 -0.1462  0.1411
28506W        W43637  16.540  17.106  12.162  0.0282 -0.3832 -0.2415
28507W        W43638   5.585  10.962  11.257  0.0124  0.2739 -0.0696
28508W        W43639  14.975   1.340   3.670  0.0774 -0.1853  0.3853
28509W        W43640  15.235  12.991   4.056  0.2300  0.2301 -0.2353
28510W        W43641  12.927   2.422  13.819 -0.1706 -0.0777 -0.1665
28511W        W43642  14.417   8.854   4.770 -0.2212  0.1553  0.1734
28512W        W43643  17.390  16.204   1.025 -0.2679 -0.2767 -0.0661
28513W        W43644  13.980  15.392  13.699  0.0463 -0.0373  0.2279
28514W        W43645  11.819   1.914  12.905  0.0619 -0.0592 -0.0086
28515W        W43646  15.109  12.007   5.082 -0.0197 -0.1148  0.0726
28516W        W43647  13.107   6.778   5.368  0.1160 -0.0691 -0.0436
28517W        W43648  14.930  16.312   1.385  0.2040 -0.1128 -0.1341
28518W        W43649   0.231  10.998   4.587  0.1987  0.0228 -0.0990
28519W        W43650  13.642  16.791   3.506  0.0729  0.2262  0.2846
28520W        W43651   2.736  12.073   0.356 -0.1168 -0.3449  0.0748
28521W        W43652   7.957   7.195  11.462  0.1432 -0.0141 -0.0599
28522W        W43653  14.545  11.046  11.471 -0.2181 -0.0302  0.0726
28523W        W43654   3.471   5.199  15.219 -0.1070 -0.3985 -0.1966
28524W        W43655  15.818  11.331   5.320 -0.0701 -0.3280  0.0861
28525W        W43656   7.774   5.117  11.776  0.0966 -0.1174 -0.2275
28526W        W43657   3.210   8.940   6.281 -0.1071 -0.1220  0.0081
28527W        W43658   4.402   2.704  14.093  0.1447  0.1456  0.1267
28528W        W43659   7.300   2.498  11.744 -0.0317  0.1016  0.0574
28529W        W43660  17.190  12.597   3.341 -0.0688  0.0218 -0.0411
28530W        W43661  12.438   3.272   4.097 -0.1760 -0.0291  0.1390
28531W        W43662   2.912   7.767   2.669  0.2514 -0.0626 -0.2099
28532W        W43663   2.992   3.961  16.899  0.3734  0.0191 -0.1853
28533W        W43664   7.240   4.780   2.932 -0.1280  0.0709  0.1565
28534W        W43665  13.556  16.478   2.730 -0.1764 -0.3264  0.0950
28535W        W43666  14.171  11.216  15.702 -0.2609 -0.1629 -0.1424
28536W        W43667   5.670   1.953  12.102  0.0469 -0.1814  0.1662
28537W        W43668  11.025   6.055  13.563  0.0011  0.0041 -0.0628
28538W        W43669   8.637   1.817  14.068 -0.1175  0.1525 -0.1884
28539W        W43670  12.781   3.656  12.258 -0.1919  0.1760 -0.1491
28540W        W43671  17.284  17.628  16.859  0.2129  0.0128 -0.1383
28541W        W43672  12.426   2.467  16.694  0.1524 -0.0950 -0.2022
28542W        W43673   7.393   9.979  15.202 -0.1156 -0.0326 -0.0514
28543W        W43674   4.405  12.914  14.879  0.4092 -0.1402 -0.3978
28544W        W43675   9.619   3.179  11.779 -0.1620 -0.1934 -0.2073
28545W        W43676   8.607  12.797  15.189 -0.1074 -0.1103  0.0882
28546W        W43677   4.506  15.261   1.089 -0.0955  0.1154  0.0999
28547W        W43678   3.590  12.396   1.443 -0.0220  0.1197 -0.0849
28548W        W43679  11.683  12.563  15.499  0.3993 -0.1148 -0.0032
28549W        W43680   7.133   3.317   3.844 -0.2282 -0.0469 -0.1228
28550W        W43681   5.894   5.700   4.723  0.1127  0.0893  0.0180
28551W        W43682   3.917  13.064   4.670 -0.1311 -0.5363 -0.2532
28552W        W43683   9.992   8.104   2.915  0.2563 -0.0848  0.0257
28553W        W43684   7.729   2.888  14.215  0.1256 -0.2128  0.1761
28554W        W43685  13.176   4.329   1.833  0.0981  0.0885  0.0057
28555W        W43686  16.514   6.881  14.289 -0.1446  0.0256  0.1154
28556W        W43687   4.410   3.617  12.557  0.0893 -0.2012  0.3640
28557W        W43688  10.225  13.429   0.706  0.0818  0.0178 -0.2525
28558W        W43689   7.917  10.248  12.804  0.0607 -0.0781 -0.0425
28559W        W43690  10.958  14.836  16.482  0.2177 -0.2832 -0.1614
28560W        W43691   0.741   3.377  13.526 -0.1906 -0.0747  0.0968
28561W        W43692   1.478  14.941   2.153  0.0151 -0.1342 -0.0047
28562W        W43693  12.533  15.881  16.227 -0.0201 -0.0781 -0.1031
28563W        W43694  16.613   0.255   6.117  0.0055  0.1781  0.1812
28564W        W43695  17.030  14.499  16.263  0.0623  0.1900  0.2123
28565W        W43696   0.866  14.784   5.060  0.1603 -0.1057  0.0268
28566W        W43697   4.574  17.300  13.692 -0.1871 -0.1862  0.1743
28567W        W43698   3.530   0.603   2.134 -0.1525 -0.0355  0.0168
28568W        W43699   7.123  15.488  14.729 -0.0645 -0.2042  0.2076
28569W        W43700   3.214  11.896  13.992 -0.2637  0.3890  0.2298
28570W        W43701  15.375  10.038  11.503 -0.3770  0.1166 -0.2041
28571W        W43702  11.691   4.709   3.902  0.0408 -0.4092 -0.2760
28572W        W43703   6.531   7.514   0.891  0.2442  0.3346 -0.3857
28573W        W43704  11.219   3.620   4.236 -0.1955 -0.1226 -0.0480
28574W        W43705   1.398   1.125   3.080  0.4754 -0.1235  0.0054
28575W        W43706  15.891   8.407   1.755  0.1302 -0.1011 -0.0732
28576W        W43707   2.604   1.434   3.276 -0.0588 -0.1739  0.1874
28577W        W43708  14.726   7.873  12.089  0.1256  0.0329 -0.3200
28578W        W43709  10.136   5.692  14.528  0.1901  0.1023  0.2150
28579W        W43710  11.416  13.627   0.119 -0.0306 -0.1031  0.4073
28580W        W43711   4.387   4.734  16.397  0.2319  0.0381  0.0982
28581W        W43712   6.162  11.870  15.062 -0.3221  0.0481  0.1973
28582W        W43713  13.986  14.106   4.504  0.2037  0.1495  0.1499
28583W        W43714   8.086   6.945   3.827  0.0182 -0.0109  0.1552
28584W        W43715   4.140   8.890  13.241  0.1478  0.1326  0.0885
28585W        W43716  15.977  12.978   3.493 -0.2231 -0.1262  0.2233
28586W        W43717  17.656   9.660   5.227 -0.1309  0.2621  0.0994
28587W        W43718  16.195   0.108  12.427  0.2212 -0.2551 -0.1111
28588W        W43719   6.780   2.245  12.621 -0.0502  0.0363 -0.2584
28589W        W43720  11.775   2.546   6.320 -0.1716 -0.0401 -0.0716
28590W        W43721  13.549   1.120  11.585 -0.0214 -0.2025  0.1871
28591W        W43722   8.265  15.623   3.867  0.0707 -0.0760  0.0508
28592W        W43723  11.244   4.167   1.351 -0.1216  0.0890  0.1761
28593W        W43724   6.268   5.688   5.447 -0.0914  0.0631  0.2988
28594W        W43725  10.840   0.496   3.254 -0.0641 -0.0107  0.0011
28595W        W43726  17.622   6.162   4.485  0.2521  0.2896 -0.0371
28596W        W43727  14.677   7.614   3.506  0.0672 -0.0778  0.0786
28597W        W43728   9.070   3.933  14.886  0.1544  0.3867  0.0291
28598W        W43729   7.424  15.648   1.624 -0.0271  0.0808 -0.4072
28599W        W43730   1.133  10.174  13.196  0.3420  0.0163 -0.4425
28600W        W43731   2.031   9.754  13.029  0.2341 -0.0723 -0.1009
28601W        W43732   9.165   0.223   2.508  0.1269 -0.0209 -0.3858
28602W        W43733   5.195   4.254  14.548 -0.3715  0.0838 -0.4884
28603W        W43734   1.859   6.162  11.206 -0.0785 -0.2670 -0.1701
28604W        W43735  13.048   0.615  16.105 -0.1414 -0.0384  0.1471
28605W        W43736   1.020  11.767   5.379  0.0539 -0.1563 -0.3006
28606W        W43737  14.370   4.887  15.738 -0.2273 -0.3351 -0.0331
28607W        W43738  15.358  13.571  16.299  0.1687 -0.1657  0.1472
28608W        W43739   8.064  14.701  15.970  0.0921 -0.0306 -0.4441
28609W        W43740   6.806   9.567   0.528 -0.2665  0.1474  0.0869
28610W        W43741   5.538   1.825   2.246  0.1515 -0.1425  0.0356
28611W        W43742  16.043   1.965  12.155 -0.1216  0.1112 -0.1110
28612W        W43743   9.948  16.614  12.456  0.0645  0.0339  0.1407
28613W        W43744  12.822  10.533   3.939  0.1314  0.1064 -0.2521
28614W        W43745  16.506   8.390  11.511 -0.0507 -0.2649  0.0191
28615W        W43746  13.181   6.924   2.029  0.0125  0.2583 -0.0004
28616W        W43747  12.537  11.950  14.842 -0.1378 -0.1186 -0.0192
28617W        W43748   5.987   8.653   3.724  0.0306  0.0970  0.1025
28618W        W43749  13.450  11.731  12.336 -0.0132  0.0367  0.3263
28619W        W43750   6.213   8.577   5.005  0.0392  0.0934 -0.0702
28620W        W43751   6.764   7.169   3.640  0.0142  0.2384 -0.2175
28621W        W43752   3.894   1.483  12.837  0.2077 -0.0476 -0.1432
28622W        W43753   1.211  14.076  14.037  0.1029  0.1714 -0.0166
28623W        W43754   6.302  15.422  16.401 -0.0943  0.0750  0.1238
28624W        W43755  15.222   6.230  11.427  0.3180 -0.1279  0.3304
28625W        W43756  15.091   3.311  16.861  0.0375  0.0293 -0.1362
28626W        W43757  10.265   4.408  16.749  0.0676  0.0432  0.3562
28627W        W43758   6.743  16.977  12.496  0.0381  0.0973  0.1918
28628W        W43759  12.863  15.681   2.175  0.0110 -0.1476 -0.2621
28629W        W43760   0.401   7.164  13.454 -0.1206 -0.2081 -0.1947
28630W        W43761  11.718   3.081  13.954  0.1123 -0.0753  0.2882
28631W        W43762   3.213   6.779   4.828  0.1465 -0.0535 -0.1351
28632W        W43763   9.675   2.941   5.052 -0.0829  0.2609 -0.1008
28633W        W43764  15.657   0.052  10.957  0.0779  0.0911 -0.0635
28634W        W43765   1.887  17.650   3.780 -0.2166  0.0377 -0.0214
28635W        W43766  11.061   2.890  15.716  0.0194 -0.2151  0.2121
28636W        W43767  15.956   4.843   0.202  0.0615  0.0236  0.0660
28637W        W43768   5.452   5.820  14.438  0.1020  0.1105 -0.0747
28638W        W43769  16.342  15.133  12.101 -0.2012  0.1028 -0.2025
28639W        W43770   6.523   6.660   2.165 -0.0655 -0.1274  0.0176
28640W        W43771   5.374  16.496  14.977  0.3470 -0.1119 -0.1351
28641W        W43772   4.820  12.129  12.356 -0.0885 -0.1844 -0.1287
28642W        W43773   8.361  14.377   4.911  0.0504  0.1819 -0.2454
28643W        W43774   8.733   0.185  12.825 -0.1435 -0.1744  0.0319
28644W        W43775   6.680  13.760   5.883 -0.4506 -0.1618 -0.3226
28645W        W43776  11.811   7.458  15.503  0.6273  0.1786  0.2597
28646W        W43777  15.415   9.931   5.520  0.2191  0.1797 -0.1756
28647W        W43778   9.153   5.518  16.117 -0.4398  0.1261 -0.1330
28648W        W43779   1.707  11.230  14.158  0.0388 -0.0981  0.0535
28649W        W43780   3.236   4.258  15.916  0.3872  0.0065  0.1092
28650W        W43781  14.485  17.564   1.559  0.0364  0.1048 -0.3055
28651W        W43782  13.345  13.035  12.111 -0.1892  0.1222  0.0782
28652W        W43783  17.616   0.786  15.504 -0.1197 -0.1520 -0.1567
28653W        W43784  12.411   8.273   5.169 -0.2132 -0.3501  0.0626
28654W        W43785  10.207  13.561  14.198  0.3084 -0.0586 -0.2412
28655W        W43786   4.138   3.044   4.316 -0.0941  0.2506 -0.0363
28656W        W43787   2.875   5.221  14.530  0.0266 -0.1213  0.0728
28657W        W43788  14.455  10.744  16.758 -0.4024 -0.0314 -0.0039
28658W        W43789  10.594  15.368  15.147  0.0963  0.3074  0.4964
28659W        W43790   6.146  15.492  15.542  0.1013  0.2025  0.1650
28660W        W43791  10.663   9.925   2.335 -0.0869  0.1963  0.1377
28661W        W43792   2.178   3.810   1.028  0.0008 -0.1477 -0.2262
28662W        W43793   5.351   5.412  12.648 -0.0283 -0.0752  0.0989
28663W        W43794  14.091  14.280  15.387  0.1624 -0.2585 -0.0773
28664W        W43795   9.155   5.210  15.660  0.2553  0.0926  0.0854
28665W        W43796   5.455   4.330   5.015 -0.1555 -0.0737 -0.1068
28666W        W43797   4.171  10.411  11.960  0.0239  0.2793  0.1002
28667W        W43798   1.164   1.137  11.246 -0.0167  0.0807  0.2568
28668W        W43799  11.883   8.803   3.347  0.0898 -0.1446  0.0628
28669W        W43800  16.907   9.797   0.412 -0.3707  0.1092 -0.2017
28670W        W43801  14.003   0.665   0.177 -0.0734 -0.2075 -0.0587
28671W        W43802   5.885  13.166   2.060  0.2159  0.0495  0.1230
28672W        W43803   3.661   7.228  15.373 -0.1747 -0.0398  0.1336
28673W        W43804   2.747   4.159  15.541  0.1196 -0.2565 -0.1817
28674W        W43805   0.836  13.098  15.831 -0.1240  0.0887 -0.3060
28675W        W43806   2.974   1.358   3.673 -0.1525 -0.0374 -0.0818
28676W        W43807  10.767  16.043  13.353  0.2126  0.1752  0.1524
28677W        W43808  12.417   7.836   0.598  0.0860  0.0352 -0.0581
28678W        W43809  14.386  11.208   4.774  0.1659 -0.1432 -0.2025
28679W        W43810  16.926  16.773   5.895  0.1065 -0.0478  0.0905
28680W        W43811   2.925   4.315  14.636 -0.2896 -0.2898 -0.0553
28681W        W43812   5.100  13.872  13.736 -0.2402 -0.2040  0.1279
28682W        W43813  14.443   8.977  14.743 -0.0093 -0.0373  0.1112
28683W        W43814   8.453   0.879  15.122  0.1293 -0.1835  0.0798
28684W        W43815  12.132  11.290  14.051 -0.1969 -0.1201  0.1078
28685W        W43816  14.355   4.249  12.295 -0.1430  0.1787 -0.3036
28686W        W43817  12.544   3.544   3.554 -0.1326 -0.1952 -0.0243
28687W        W43818   9.445  13.279   1.389 -0.1579 -0.2419 -0.1353
28688W        W43819  16.527   9.830  13.669 -0.2123  0.2695 -0.0647
28689W        W43820   2.727   7.632  11.934  0.0540 -0.2836 -0.2228
28690W        W43821  13.010  12.209  14.517 -0.1689 -0.0943 -0.1879
28691W        W43822  15.390   0.604  11.487 -0.1551  0.0719  0.1392
28692W        W43823   8.618  12.929   4.712  0.1234  0.0356 -0.1843
28693W        W43824  16.401  15.529  11.801  0.2800  0.0301  0.2243
28694W        W43825   8.307  10.179  12.102 -0.0007  0.2291 -0.1227
28695W        W43826   4.193  17.276   3.469 -0.1800 -0.0834 -0.0876
28696W        W43827  10.287   6.608   0.648  0.2282  0.0204  0.2487
28697W        W43828  16.368   8.246  14.567  0.0531 -0.2831 -0.2551
28698W        W43829   0.223   9.495  11.245 -0.0417 -0.1499  0.0056
28699W        W43830  16.766   5.780  10.181  0.1752  0.0187  0.0284
28700W        W43831   6.710   6.629   5.503 -0.2407 -0.1634 -0.0034
28701W        W43832   7.994  15.921   1.081  0.0140 -0.1008 -0.0404
28702W        W43833  10.613   1.827  12.459 -0.1866  0.1142  0.0064
28703W        W43834  11.407  10.562  14.161  0.0065  0.1929  0.0877
28704W        W43835  16.997  11.393  10.988  0.1008  0.0409 -0.2435
28705W        W43836   8.227   6.628   4.671 -0.4671  0.0393  0.0659
28706W        W43837   8.159   1.162  16.491 -0.1777  0.0372  0.3088
28707W        W43838  15.556  10.802   2.078 -0.2512 -0.0991  0.3606
28708W        W43839  13.783   9.904  12.526  0.2061  0.1529  0.0274
28709W        W43840  10.378   6.046   5.599  0.0882  0.0795  0.1548
28710W        W43841   4.520   1.786   1.176  0.1426 -0.0491 -0.1977
28711W        W43842  16.633  11.002   2.298  0.1814 -0.1543  0.2291
28712W        W43843   8.671  15.274  14.886 -0.0003  0.0033  0.1246
28713W        W43844  10.088   6.699  16.722 -0.0417 -0.2492 -0.3024
28714W        W43845   6.868   4.793  15.804 -0.1675  0.0893 -0.2030
28715W        W43846  13.500  16.366  14.919 -0.2513 -0.3579  0.0037
28716W        W43847   3.222  15.164  13.696  0.0804  0.0477  0.1216
28717W        W43848  17.646   7.184  16.809 -0.1891  0.1086 -0.0667
28718W        W43849   1.367  10.305  12.734 -0.1309  0.4077 -0.1021
28719W        W43850   3.895   2.592   3.497  0.3449  0.0617 -0.1290
28720W        W43851   5.970   0.682  13.461 -0.1940  0.0782 -0.2039
28721W        W43852  11.055   2.299  12.994 -0.0984  0.2388  0.0429
28722W        W43853  11.575   9.273  15.492 -0.1180  0.3787 -0.0474
28723W        W43854   9.092  10.201  14.485 -0.1234  0.2249 -0.0944
28724W        W43855  17.170   5.378  15.345  0.1806 -0.0264  0.1157
28725W        W43856   2.945   4.291   5.129  0.1463  0.1039  0.1082
28726W        W43857   5.289   4.658  13.305 -0.0650  0.1034  0.0935
28727W        W43858   8.606   6.524   4.280  0.1445 -0.0458 -0.0319
28728W        W43859  14.610   5.036   0.526 -0.2162  0.1851 -0.3820
28729W        W43860   6.049   9.227  16.872  0.1842  0.0517  0.0424
28730W        W43861  12.487   2.060  14.652 -0.2469 -0.0059  0.1349
28731W        W43862   0.936   0.331  16.209 -0.0236 -0.0693 -0.0956
28732W        W43863   6.760   7.437   3.224 -0.2277  0.2170  0.1660
28733W        W43864   1.854   3.242  13.781  0.0172  0.1124  0.0161
28734W        W43865  12.379  16.330  16.385 -0.1146 -0.0639  0.0804
28735W        W43866  10.678   2.387   4.163  0.1830  0.1421  0.2385
28736W        W43867   2.806  10.111   0.971  0.0176 -0.1016  0.0783
28737W        W43868  16.794  16.332  11.783  0.0975  0.2072 -0.0358
28738W        W43869  11.425   7.161   5.126  0.0724  0.2993  0.0823
28739W        W43870  16.793  12.256   0.554 -0.1973  0.0572  0.1497
28740W        W43871  12.708   7.163  16.890 -0.1005  0.1806  0.1349
28741W        W43872  13.769   3.290   3.500 -0.0006 -0.0664 -0.2302
28742W        W43873  11.956  17.000  15.552  0.0354 -0.1536  0.0991
28743W        W43874  14.728   7.741   5.400  0.1960  0.1948  0.0818
28744W        W43875  10.620   3.403   0.835  0.2263 -0.1248  0.0519
28745W        W43876   8.855  12.509  16.076  0.2157  0.1490  0.1801
28746W        W43877   9.514  10.228   0.051 -0.0530 -0.1469 -0.0448
28747W        W43878   5.470  13.366   2.109  0.0504 -0.2555 -0.1750
28748W        W43879  12.200   0.757  15.683  0.1823 -0.1360 -0.1120
28749W        W43880  11.806   5.749   0.965  0.0948 -0.0583 -0.2162
28750W        W43881   7.970  13.072  13.622 -0.2589  0.0728  0.0388
28751W        W43882   0.307   5.936   5.191 -0.0709 -0.2205 -0.0557
28752W        W43883   9.272  13.478   2.576 -0.0699  0.0620 -0.5877
28753W        W43884   5.685  15.210   4.434  0.2389 -0.0938 -0.2591
28754W        W43885   5.774   7.824   0.871 -0.2002  0.1777  0.3582
28755W        W43886  15.068   1.682  15.426 -0.0885  0.0123  0.2783
28756W        W43887   2.172   0.804   0.094 -0.1435 -0.1560  0.0211
28757W        W43888   5.154  15.272   3.371  0.0763  0.2442 -0.1445
28758W        W43889   4.182  16.556  15.291 -0.1659  0.1081 -0.2364
28759W        W43890  15.069  16.921   2.561  0.0238  0.3673  0.0513
28760W        W43891  11.998  15.093  12.707 -0.0488  0.0351  0.2452
28761W        W43892  16.031   5.229  13.815 -0.0679  0.0153  0.0889
28762W        W43893   8.904   3.441  12.093  0.0967  0.0073 -0.1124
28763W        W43894  10.882   4.202   2.822 -0.0318  0.0608  0.0376
28764W        W43895  10.080  10.602  14.541  0.2101 -0.1375  0.0581
28765W        W43896   5.265  10.859   2.096 -0.3652  0.0644  0.1411
28766W        W43897  12.707   0.753  14.681 -0.0395  0.0850  0.1536
28767W        W43898   9.036   7.167  13.586 -0.1131 -0.0676 -0.1416
28768W        W43899  16.901   3.609   0.529 -0.3133  0.0385  0.2397
28769W        W43900   3.278   4.692   3.965  0.1642 -0.0277  0.0023
28770W        W43901  14.817   7.352  16.250 -0.0984 -0.0640 -0.0949
28771W        W43902  16.554   6.909  16.270 -0.2904  0.1161  0.0216
28772W        W43903   1.261  10.922  12.588 -0.1303 -0.3930  0.1466
28773W        W43904   4.951   2.213   3.435  0.2627 -0.2574 -0.0182
28774W        W43905   3.925   7.490  14.992  0.1328  0.0793  0.3136
28775W        W43906  10.274  13.775  11.842  0.0142  0.0485 -0.1702
28776W        W43907  10.938   1.495   4.522  0.4286  0.1161  0.0348
28777W        W43908   6.855   8.555  14.750 -0.1426 -0.3433  0.2353
28778W        W43909  12.426   9.406  16.693  0.0920  0.2352 -0.3596
28779W        W43910   7.231  15.489   6.218  0.1034  0.1982 -0.2302
28780W        W43911   1.218  13.574  15.337  0.1396  0.4345 -0.3322
28781W        W43912   2.178   8.360   0.442 -0.1982  0.0083 -0.0565
28782W        W43913  11.799  14.201  13.552 -0.1753  0.1609  0.1622
28783W        W43914   6.672  14.944   4.177  0.0299  0.1425  0.0459
28784W        W43915  15.670   3.993  15.038  0.1532  0.1045 -0.0339
28785W        W43916  13.365   6.846  11.930 -0.2334  0.1749  0.2233
28786W        W43917  11.269  14.656   2.042 -0.0780  0.1769  0.0422
28787W        W43918  11.903   8.245   1.461  0.0926  0.2993  0.0332
28788W        W43919  15.613   6.511  14.749 -0.2137  0.1688  0.0092
28789W        W43920  11.046  17.469  14.284  0.0818 -0.0565  0.1188
28790W        W43921   4.180   3.973   0.543 -0.2089  0.3217 -0.1612
28791W        W43922   9.525  11.777  16.441 -0.1466 -0.0848  0.0290
28792W        W43923   0.162   0.251   3.536 -0.1300  0.2604 -0.0187
28793W        W43924  17.259   8.478   1.984  0.2547 -0.1179  0.0589
28794W        W43925   1.764  10.454  11.436 -0.0330 -0.1474  0.0682
28795W        W43926   8.186   9.175   2.221 -0.2366 -0.0132 -0.0473
28796W        W43927   9.338   1.011   2.005  0.1590  0.1297 -0.2680
28797W        W43928   4.281   0.645  12.430  0.1988  0.1914 -0.0230
28798W        W43929  16.575   6.273  11.401 -0.0923 -0.1814 -0.2047
28799W        W43930   5.432   0.356  14.526  0.1759 -0.1945  0.2179
28800W        W43931   9.235   6.365  12.251 -0.0318  0.1169 -0.1022
28801W        W43932  11.487   6.833   2.039 -0.2790 -0.1520 -0.2968
28802W        W43933  15.573  11.941   1.854  0.0794 -0.0269 -0.3457
28803W        W43934   2.790  14.688  14.628 -0.1128 -0.0642  0.0380
28804W        W43935  14.178  15.561  16.205 -0.2307  0.1885 -0.1334
28805W        W43936   1.876   1.096  13.092 -0.2557 -0.0309  0.0252
28806W        W43937  12.576   4.633  15.066 -0.0906  0.0220  0.0583
28807W        W43938   2.006   4.290   1.460  0.2730  0.0281  0.3306
28808W        W43939  16.980   7.122  16.142  0.1960 -0.0601  0.3326
28809W        W43940   1.034   4.905   4.728 -0.0702 -0.0614  0.1413
28810W        W43941  16.092   9.643  11.999  0.1603 -0.1511 -0.3082
28811W        W43942  16.216   2.788  11.520 -0.3602 -0.3738 -0.1990
28812W        W43943   0.569   0.488  15.167 -0.0656  0.3410  0.0464
28813W        W43944   6.345  14.157   1.247 -0.0680  0.1770 -0.4087
28814W        W43945  10.528  12.321   4.131 -0.2035  0.1331 -0.2049
28815W        W43946   1.746   9.652  14.138 -0.0981  0.1979 -0.1521
28816W        W43947  17.324   7.869   4.605 -0.3100  0.1953 -0.2468
28817W        W43948  12.249   7.669   2.633 -0.0969  0.1136 -0.2337
28818W        W43949  15.251   5.190  12.482  0.0313 -0.1026 -0.1778
28819W        W43950  15.076  13.619  12.067  0.2204 -0.0873  0.1583
28820W        W43951  16.984  15.319   0.700  0.0175 -0.0510  0.0675
28821W        W43952  17.122  15.598   2.688 -0.0416  0.0366 -0.4768
28822W        W43953  14.804  13.421  16.390  0.0859 -0.0194  0.2047
28823W        W43954   4.006   4.974   3.315  0.0396 -0.2793  0.1833
28824W        W43955   0.484   4.002  15.304 -0.1323 -0.3950 -0.1517
28825W        W43956  11.756   0.979  15.607 -0.0510 -0.1588 -0.0224
28826W        W43957   9.787  15.503  12.182  0.1636 -0.1159  0.0671
28827W        W43958   5.665  11.202  14.730 -0.1243  0.0811  0.1823
28828W        W43959   6.586   7.030   2.483  0.3611 -0.2274  0.2046
28829W        W43960  14.899   9.677  10.846  0.3123 -0.1758 -0.1141
28830W        W43961  12.229  13.524  11.857 -0.2551  0.0609 -0.1708
28831W        W43962   0.541  10.891   2.361  0.0106 -0.1763 -0.1513
28832W        W43963  10.517   3.904   0.702  0.0341  0.2005 -0.0480
28833W        W43964   7.888  10.697   0.052  0.3059 -0.2332 -0.1483
28834W        W43965   3.336   8.398   1.665 -0.0072  0.1949  0.0397
28835W        W43966   4.494   2.150   2.204 -0.0607  0.3611 -0.2467
28836W        W43967  11.698  16.690   5.385 -0.2373 -0.1702  0.1817
28837W        W43968  14.398   7.695   1.075  0.0650  0.2436 -0.0312
28838W        W43969   9.334   4.522  13.628  0.0446 -0.0631  0.0968
28839W        W43970  10.892   6.277  16.392  0.1241 -0.3475 -0.0303
28840W        W43971   4.736  15.881   3.991  0.3955  0.1228  0.3352
28841W        W43972  15.950   8.593  14.753  0.0418  0.2961 -0.0832
28842W        W43973  13.311  16.165   1.272  0.1322 -0.1684 -0.0614
28843W        W43974   9.434   2.325  13.174  0.0450  0.0800  0.3924
28844W        W43975   7.122  10.006   5.428 -0.0087  0.1913 -0.0226
28845W        W43976   4.550   1.444   5.361  0.1199 -0.1872 -0.1924
28846W        W43977  14.767  15.904   5.368 -0.1931 -0.0685  0.2632
28847W        W43978   2.057  12.765   0.521  0.0823 -0.1263 -0.0262
28848W        W43979  15.083  12.432   4.895 -0.0516 -0.2055 -0.0649
28849W        W43980   5.999  11.936   2.105 -0.0084 -0.1012 -0.0315
28850W        W43981   6.968   7.135   2.814 -0.0880  0.1681  0.0789
28851W        W43982  12.067  15.595  13.513 -0.3808 -0.2080  0.2431
28852W        W43983  14.170  15.375  14.528  0.0914  0.2782  0.1626
28853W        W43984   3.453  12.921   5.371 -0.1109 -0.3351  0.0855
28854W        W43985   2.305  10.316   1.812 -0.0745  0.1576 -0.1146
28855W        W43986   4.479  10.102   1.570  0.3646  0.1659  0.2903
28856W        W43987   9.732   0.709   1.997  0.1702 -0.0478 -0.0394
28857W        W43988  15.452  10.607   3.882  0.1734 -0.4572 -0.0385
28858W        W43989  11.025  12.674  11.489 -0.2083  0.0645 -0.0218
28859W        W43990   1.025   3.105  10.628  0.2162 -0.2377 -0.0227
28860W        W43991   0.803   8.835  16.614  0.1434 -0.3175 -0.0335
28861W        W43992  16.218   0.422   1.224  0.0776  0.0799  0.0291
28862W        W43993   9.026   5.291   2.089  0.1880  0.0880  0.5729
28863W        W43994   5.740  12.365  13.231  0.0256 -0.1385  0.3403
28864W        W43995  11.215  15.714  16.311  0.0399  0.1832  0.0545
28865W        W43996  17.115  13.833   2.817 -0.0351 -0.1002 -0.1162
28866W        W43997  16.234   7.388  12.099 -0.0748  0.4272  0.2199
28867W        W43998   5.638   4.298   5.940 -0.0964 -0.0056  0.2068
28868W        W43999  12.213  13.245  16.566  0.0793  0.2591 -0.1010
28869W        W44000   2.077   6.373  12.167 -0.1908 -0.0887  0.2168
28870W        W44001  14.450  11.471  12.048 -0.2199  0.2032  0.2560
28871W        W44002  14.929  14.302  14.719 -0.0068 -0.0214 -0.2014
28872W        W44003   7.065  14.542  16.141  0.2288 -0.0564  0.0996
28873W        W44004   3.177  11.167   1.748 -0.3723 -0.1231  0.0016
28874W        W44005  11.798   5.511   0.424  0.0651  0.5706 -0.0499
28875W        W44006   2.092   7.094  10.919  0.0423 -0.1133  0.0386
28876W        W44007   3.148  17.054  14.743 -0.1074 -0.0075 -0.3867
28877W        W44008  13.077   2.789   0.135  0.0962 -0.0185  0.3781
28878W        W44009   0.548   8.666  16.029 -0.3651 -0.2122  0.0166
28879W        W44010   2.912  11.062   6.073  0.1303  0.2220 -0.4661
28880W        W44011   9.681   3.853  14.138 -0.3922  0.0047  0.0352
28881W        W44012   3.139   6.620   0.773 -0.0940 -0.1423 -0.3771
28882W        W44013  14.504  11.465  14.816  0.1252  0.1460 -0.1606
28883W        W44014  16.330   7.909   0.702  0.0541 -0.2066  0.1979
28884W        W44015   7.520   1.914  12.512  0.1256 -0.2060 -0.1933
28885W        W44016  12.368  14.319   4.675 -0.2211  0.0033  0.0139
28886W        W44017   3.079   4.688   6.070 -0.2570  0.0021  0.0343
28887W        W44018  14.621  15.316   6.048  0.3115  0.0871  0.1182
28888W        W44019  13.282   9.679   1.911 -0.0719 -0.2610  0.0702
28889W        W44020  13.962  12.246   6.055  0.4456  0.0582  0.1702
28890W        W44021  14.092   7.604  13.411 -0.0657  0.1006  0.1177
28891W        W44022   0.996   0.579   5.269 -0.0840 -0.2465  0.0422
28892W        W44023   5.714   2.232   3.787 -0.0160  0.0336 -0.4367
28893W        W44024   8.561   0.541  14.295  0.2858  0.1081 -0.0154
28894W        W44025   6.520   2.832  11.127 -0.0755 -0.3082  0.0669
28895W        W44026   8.403   9.209   4.798  0.3012 -0.0503 -0.2128
28896W        W44027  16.620   8.345  14.057  0.0115 -0.1873  0.3774
28897W        W44028   7.928  13.876   0.125  0.2005 -0.0174 -0.4051
28898W        W44029   1.290   4.462   6.029  0.5081  0.0800 -0.2364
28899W        W44030   2.984   6.296  13.834  0.1499  0.0746 -0.1909
28900W        W44031  13.244  17.049   2.643 -0.0390 -0.1039  0.1049
28901W        W44032  15.113   3.435  12.736 -0.0105 -0.1031 -0.0597
28902W        W44033   7.911  13.274   3.096 -0.0603 -0.0385  0.1035
28903W        W44034  12.412  15.244   1.568 -0.0599 -0.2758 -0.0749
28904W        W44035   3.865   8.657  12.086 -0.1005  0.2942  0.0473
28905W        W44036   5.618   4.169  13.832 -0.1150  0.0509  0.1023
28906W        W44037   7.194  15.298  13.413  0.0740  0.0782  0.1847
28907W        W44038  10.413   0.467  14.260 -0.1459 -0.1122 -0.1105
28908W        W44039  13.465   1.686  13.449 -0.1049  0.2613  0.0746
28909W        W44040   7.555  14.302   6.158  0.3802 -0.1647 -0.0315
28910W        W44041   2.721   6.682   2.688 -0.0010  0.0869  0.3230
28911W        W44042  11.138   6.056  16.768 -0.2784 -0.1345  0.0616
28912W        W44043  15.004   9.172   0.508  0.2076  0.1659  0.1303
28913W        W44044   7.101   2.542   2.184 -0.0593  0.0514 -0.2257
28914W        W44045  14.733   7.704  15.910 -0.1951 -0.1601 -0.1875
28915W        W44046   9.325   4.117  13.343  0.1031 -0.0121 -0.1388
28916W        W44047  11.524   5.511   2.603  0.0751 -0.0413 -0.3381
28917W        W44048   9.700  15.307   5.304 -0.1302  0.0268  0.0091
28918W        W44049   9.075   1.219   0.472 -0.1854 -0.0490 -0.2485
28919W        W44050   4.656  10.909   2.770 -0.2379 -0.1433  0.1280
28920W        W44051  12.968  14.224  15.852 -0.1933 -0.2284 -0.1393
28921W        W44052   4.092  11.383  14.681  0.0879  0.1381  0.0595
28922W        W44053  16.464  15.433  14.724  0.3816  0.3441 -0.0703
28923W        W44054  11.160  16.423  15.791 -0.1398 -0.5033  0.0766
28924W        W44055   1.490  13.682  14.903 -0.0125 -0.0246  0.1805
28925W        W44056  16.124   0.776   1.584  0.3331 -0.1612  0.0832
28926W        W44057   9.115   2.614   1.633  0.2639 -0.2536 -0.0299
28927W        W44058   7.430   0.667  13.478 -0.4504 -0.0184 -0.1027
28928W        W44059   9.455   1.339  13.016 -0.0254 -0.1244 -0.0574
28929W        W44060   1.045  15.317   1.872  0.1603 -0.0281  0.1009
28930W        W44061   3.169  13.542   4.562  0.1286  0.2079  0.1321
28931W        W44062   3.205   2.542   3.198  0.0551 -0.2946 -0.0872
28932W        W44063   8.774   3.682  11.646  0.2428 -0.1855  0.1531
28933W        W44064   2.934   8.707   0.034 -0.0467 -0.0898 -0.0981
28934W        W44065   0.173   1.319  11.512 -0.2794 -0.0224  0.0998
28935W        W44066  10.714   3.315  16.340  0.0444 -0.1100  0.2301
28936W        W44067  14.781   6.879  13.790 -0.1178  0.1242  0.1231
28937W        W44068   0.570   1.711  14.396 -0.1184 -0.0710 -0.0388
28938W        W44069   2.653  11.825   4.421  0.1786  0.0392  0.1711
28939W        W44070   4.122   6.873  11.557  0.4723 -0.0833 -0.3384
28940W        W44071  11.031   8.059   4.482 -0.0772 -0.0323  0.1747
28941W        W44072  11.369   8.142   3.978 -0.0177 -0.0355 -0.0511
28942W        W44073  10.284   1.397  13.563  0.0780  0.0181  0.1643
28943W        W44074   5.441   0.041  11.724 -0.0270 -0.2276 -0.1018
28944W        W44075  16.693   7.448  16.484 -0.0114  0.1599  0.1417
28945W        W44076  13.700   1.606  16.083 -0.1138 -0.1989 -0.1261
28946W        W44077  15.760   0.941   4.609  0.2312 -0.1110  0.0279
28947W        W44078  11.893   2.871   4.615  0.2413  0.0688  0.1375
28948W        W44079   4.241   4.841   4.228 -0.2913 -0.1784 -0.1526
28949W        W44080   9.186   8.789  12.833  0.1570  0.3461 -0.0551
28950W        W44081   4.545   1.031   0.271  0.2457  0.1575  0.0138
28951W        W44082  14.611  15.079   5.522  0.0498  0.1044  0.0333
28952W        W44083   9.780  13.311   4.994 -0.2305 -0.0867  0.1116
28953W        W44084   8.333  11.022  16.388  0.0122  0.0843 -0.1039
28954W        W44085  13.106   6.863  12.443  0.1721  0.0526 -0.1393
28955W        W44086  12.201   1.197   0.436 -0.0933  0.3161  0.1007
28956W        W44087   0.299   2.465  11.826 -0.2437  0.1195 -0.1120
28957W        W44088  17.044  11.169   5.867  0.1663  0.1251  0.1009
28958W        W44089   8.662  17.037  13.322 -0.0417 -0.1609  0.2886
28959W        W44090   9.784  13.558   4.565 -0.2593 -0.3053 -0.1915
28960W        W44091   7.474   4.212  16.633  0.2641  0.1601  0.1696
28961W        W44092  11.100   5.727  11.881  0.1675 -0.2779  0.1295
28962W        W44093   1.457   6.336  15.957 -0.0012 -0.1241  0.0097
28963W        W44094  14.470   5.869   2.433  0.0936 -0.0323  0.0275
28964W        W44095   5.503  14.722  15.047  0.0799  0.1372  0.0693
28965W        W44096   9.825  16.147   5.798 -0.0590  0.1371 -0.0672
28966W        W44097   3.316  10.981   2.458  0.3153  0.0532 -0.0086
28967W        W44098  13.810   7.978   3.294  0.1472 -0.5057 -0.1838
28968W        W44099  13.703   5.068  15.577 -0.0757  0.2362  0.2688
28969W        W44100   0.624   3.649  16.720  0.0397 -0.0226  0.2559
28970W        W44101   9.443   2.921   1.362 -0.1015  0.1832 -0.0862
28971W        W44102   5.711   4.919  15.967  0.0417 -0.3755  0.0467
28972W        W44103   9.810  14.153  15.535  0.2256  0.0544  0.0885
28973W        W44104   3.840   8.543   1.601 -0.1123 -0.3581  0.0889
28974W        W44105   1.727   5.622   2.941 -0.0380  0.0840  0.2649
28975W        W44106  12.725   0.900  15.783  0.1163  0.2766 -0.1882
28976W        W44107   4.536   0.031   0.756 -0.1343 -0.1879  0.1436
28977W        W44108  16.457   3.157   0.375 -0.2792  0.0073  0.1874
28978W        W44109   8.931  15.191  12.540  0.2201 -0.1622  0.0904
28979W        W44110   9.598  15.009   4.290  0.0366  0.0175  0.0191
28980W        W44111  15.476  16.981  16.093 -0.0656 -0.1015  0.3120
28981W        W44112   5.175   2.995  13.572  0.0272  0.3379 -0.3747
28982W        W44113   7.065   4.034  15.715  0.0036  0.0700 -0.1232
28983W        W44114  15.961  10.504  13.797 -0.0784  0.0247  0.1266
28984W        W44115   4.676   6.984  12.281 -0.1648 -0.2859 -0.0064
28985W        W44116   2.683  10.298   4.523  0.3015  0.0491  0.1786
28986W        W44117   3.583  14.356   4.128 -0.1801 -0.0689  0.0765
28987W        W44118  14.589   3.547   3.968 -0.1970 -0.1852  0.0871
28988W        W44119   6.866  15.484  12.075 -0.0070  0.0103 -0.0440
28989W        W44120  11.689   8.683  16.791 -0.0931 -0.0987  0.2685
28990W        W44121  15.957   3.535   4.383  0.3663 -0.1378  0.0249
28991W        W44122  11.423   3.476  14.428  0.0141 -0.0194 -0.0499
28992W        W44123  12.674   4.456   1.866  0.0557  0.0617 -0.2809
28993W        W44124   6.189   0.351  13.877  0.1736 -0.0920 -0.0113
28994W        W44125   0.062  14.981  12.448  0.0898  0.0722 -0.2422
28995W        W44126   7.700  10.406  16.458 -0.0789  0.2824  0.3219
28996W        W44127   3.373   0.364   4.594  0.0791 -0.2435  0.1440
28997W        W44128  12.668   1.798   2.523 -0.0119 -0.3014 -0.0852
28998W        W44129   1.580   9.258   0.065  0.2795  0.2996  0.2162
28999W        W44130  15.902   2.646   2.487 -0.0146  0.5099  0.1497
29000W        W44131   4.931  13.120  13.201  0.1303  0.3315  0.0876
29001W        W44132   3.188  16.163  11.666 -0.0237  0.2866 -0.1290
29002W        W44133   1.342   5.797  12.040 -0.0363 -0.0965  0.2963
29003W        W44134   1.119  11.351   5.638 -0.0323 -0.1223  0.0020
29004W        W44135   6.868  10.760   2.965  0.2676 -0.0581 -0.0596
29005W        W44136  14.380   3.932  16.386  0.2687  0.0277 -0.1670
29006W        W44137  13.505  14.667  14.092  0.1360  0.0314 -0.1719
29007W        W44138   3.873  17.279   1.369  0.0089  0.0003 -0.2205
29008W        W44139   6.696  11.651  16.647 -0.0532 -0.0200  0.1440
29009W        W44140   1.762   1.780   1.291 -0.3948 -0.0164  0.2176
29010W        W44141  15.683   9.873   0.634 -0.1394  0.1064  0.1206
29011W        W44142   9.495  13.492  12.311  0.2069  0.2025  0.0744
29012W        W44143  12.197   6.618  14.353  0.1691 -0.2925 -0.0369
29013W        W44144   9.024   8.922  13.295 -0.0327 -0.3396 -0.1281
29014W        W44145  16.830  13.118  16.162 -0.0944 -0.0442 -0.0750
29015W        W44146   4.428   8.282  12.349 -0.0344  0.1536  0.4883
29016W        W44147   6.596   6.213   4.835 -0.1785 -0.2404  0.1863
29017W        W44148  10.524  11.253   6.381  0.0354  0.1431  0.0281
29018W        W44149   4.775  14.880  12.388  0.0990 -0.0535  0.1504
29019W        W44150  11.674   0.829  14.616  0.3341  0.0680 -0.1436
29020W        W44151   6.442   2.011  15.165 -0.2889  0.1511 -0.1690
29021W        W44152   2.870  12.378  13.120  0.1515  0.2066 -0.0161
29022W        W44153   3.344   9.959  12.068 -0.1003  0.2015  0.2116
29023W        W44154  13.568   2.770  15.321 -0.0052 -0.0761  0.0440
29024W        W44155   3.578  17.471   1.803 -0.2025 -0.0077 -0.4621
29025W        W44156   5.815   6.447  10.882 -0.1171 -0.2016  0.0390
29026W        W44157   4.681  14.045  12.377  0.1399 -0.0373 -0.0539
29027W        W44158   3.729   9.480  16.467 -0.0679 -0.2436  0.0833
29028W        W44159   7.002   0.931  15.201 -0.2240  0.2443 -0.0039
29029W        W44160   8.898  16.190   5.448  0.0924  0.1184 -0.4127
29030W        W44161   2.119  17.524   0.624 -0.2640  0.0145  0.0770
29031W        W44162   9.394   7.334  12.722  0.2146 -0.1089  0.0731
29032W        W44163   2.890  17.107  13.586 -0.3186 -0.2628  0.0120
29033W        W44164   2.463   0.970  14.767  0.2420  0.2398 -0.0416
29034W        W44165   1.483  10.127  14.965  0.0474  0.0101 -0.0133
29035W        W44166  15.863   6.346  12.803  0.1856 -0.1018  0.2437
29036W        W44167  15.851  11.566   4.468 -0.2227  0.0329  0.0825
29037W        W44168   8.711   3.412  10.219 -0.2235  0.0299  0.0054
29038W        W44169  10.468  14.241   5.299  0.1364 -0.2183  0.0660
29039W        W44170   8.327   6.278  12.129  0.2213  0.2461 -0.1370
29040W        W44171   6.692   5.006   0.253 -0.0352 -0.0745 -0.2083
29041W        W44172  17.250   6.322  11.740 -0.1795 -0.0397  0.0825
29042W        W44173  11.530  12.258  10.648 -0.0517 -0.0321 -0.1456
29043W        W44174   6.832   3.508  12.609 -0.0157  0.0318  0.0657
29044W        W44175   7.659  14.311  12.758 -0.0004 -0.0360 -0.2842
29045W        W44176  14.846   9.368   1.414  0.2692  0.1055 -0.2386
29046W        W44177   8.131  15.506   4.755  0.1653 -0.1926 -0.2290
29047W        W44178  13.059   6.357   5.666 -0.0241  0.0906 -0.0331
29048W        W44179   1.466  12.795   2.240  0.3030  0.1864 -0.1168
29049W        W44180   1.049  14.516   3.347  0.2202 -0.3291  0.1874
29050W        W44181  15.017  16.674   1.730  0.0312  0.3660  0.0832
29051W        W44182   5.209   4.930  15.820  0.1889 -0.1541  0.1310
29052W        W44183   0.205   4.880   3.241  0.1935  0.0706 -0.0237
29053W        W44184   3.188   6.600  14.932  0.0526  0.2425  0.0558
29054W        W44185   0.045   3.731   2.122  0.1818  0.0516  0.1297
29055W        W44186   4.989  10.754  14.422  0.2795 -0.1979  0.0304
29056W        W44187  13.169  15.255   3.215  0.1752  0.2051  0.1110
29057W        W44188  16.937  11.870  12.514  0.0835  0.1455  0.1877
29058W        W44189  17.504  16.714   5.047 -0.1599  0.1217 -0.0126
29059W        W44190  15.298  17.020   1.483  0.0783  0.2784  0.0024
29060W        W44191  17.510   5.953   2.166  0.0322 -0.0232 -0.0417
29061W        W44192  10.252  12.541   5.401 -0.0830 -0.1950  0.1302
29062W        W44193  14.115   3.262  13.467 -0.0715 -0.4916 -0.1595
29063W        W44194   2.841  15.005   4.001 -0.0305  0.0161  0.2013
29064W        W44195  15.612   8.453   2.280  0.1173 -0.0765 -0.0614
29065W        W44196  17.694  17.176   4.641  0.4515  0.1847  0.1662
29066W        W44197   2.274  14.987   3.984  0.1026 -0.0965 -0.1315
29067W        W44198   0.982   1.606  12.050 -0.1273  0.0465 -0.3277
29068W        W44199  14.462   5.293  13.157 -0.1237 -0.0202  0.1030
29069W        W44200   9.396   3.823  16.334 -0.0825 -0.1539 -0.3497
29070W        W44201   0.390  10.105  13.730 -0.0109  0.1616 -0.0591
29071W        W44202  13.371   5.273  16.035 -0.0237 -0.0921  0.4136
29072W        W44203  13.759  15.974   2.325 -0.0536  0.3960 -0.2027
29073W        W44204  11.066  10.988   2.516  0.1002  0.2512 -0.3233
29074W        W44205   7.582  13.559   5.445 -0.1111  0.2049 -0.1735
29075W        W44206  15.892   9.704   3.833  0.2079  0.1175  0.2448
29076W        W44207  10.843   4.722  13.588 -0.2031  0.1441  0.0707
29077W        W44208  11.298   9.783  15.942 -0.0827  0.1210  0.0070
29078W        W44209   4.458   6.727  14.805 -0.1402 -0.1810  0.1039
29079W        W44210   2.035   1.117  14.305 -0.0006  0.0647 -0.1483
29080W        W44211  11.465  11.002  14.485  0.0792  0.2816  0.0283
29081W        W44212   5.133  14.439  16.939  0.0742 -0.1420  0.2122
29082W        W44213  16.726  14.401   1.989  0.0997  0.1870  0.0316
29083W        W44214   8.383  15.215  14.506  0.1720  0.0519 -0.0460
29084W        W44215   6.711  10.077   0.682  0.0328 -0.0356  0.2571
29085W        W44216  17.285   3.789  14.060 -0.1786 -0.0174 -0.2177
29086W        W44217   8.938  13.684  15.236  0.1064  0.2178 -0.0424
29087W        W44218   7.164   2.118   2.483  0.0656  0.2376  0.0142
29088W        W44219  11.346   7.194  14.558  0.2756  0.1596 -0.0899
29089W        W44220   6.754  11.957   4.779 -0.2421 -0.0079  0.1371
29090W        W44221   8.737  13.636   2.484  0.2139  0.3134  0.1817
29091W        W44222   9.281   8.079  14.016  0.0372 -0.1821 -0.3126
29092W        W44223   1.844  11.337   1.453 -0.0762  0.2743 -0.0421
29093W        W44224   8.924   4.792  12.916  0.2358 -0.0353  0.0660
29094W        W44225   1.529   0.118   1.284 -0.2113  0.2959  0.1469
29095W        W44226   2.820   7.663  15.921 -0.1113  0.2133  0.1206
29096W        W44227   4.388   0.593   0.464  0.3869  0.1714  0.0866
29097W        W44228  11.971   2.248   1.183 -0.2278  0.0743 -0.1965
29098W        W44229  15.581  11.645   3.192  0.0682 -0.1357  0.0196
29099W        W44230  16.866   7.997   3.272  0.1976 -0.1139 -0.0327
29100W        W44231  17.380   6.185   3.062  0.0995 -0.2107 -0.2344
29101W        W44232   8.084   6.374   3.700  0.0677 -0.0068 -0.5703
29102W        W44233   2.405  15.601  13.635  0.1414 -0.0337  0.3450
29103W        W44234   8.690   8.679   2.840 -0.1163  0.0117  0.0205
29104W        W44235  14.022   0.153  11.774  0.1334  0.0140  0.1235
29105W        W44236   1.901   7.811   1.901  0.1862 -0.0769  0.0773
29106W        W44237   1.162  16.983  14.013 -0.3647  0.3166  0.2777
29107W        W44238   8.617  15.975   2.679  0.1163  0.1108 -0.0650
29108W        W44239   7.651  14.686  16.918 -0.2866 -0.4578 -0.3043
29109W        W44240   9.860   8.629  11.689  0.0283  0.2217 -0.1882
29110W        W44241  15.862   0.812  15.121  0.1270 -0.2892 -0.2027
29111W        W44242   2.487   7.934   0.604 -0.0084 -0.0998  0.0521
29112W        W44243  15.752  13.043  16.139 -0.2571 -0.1579  0.1305
29113W        W44244   8.756   7.981   2.122 -0.1267 -0.2648  0.0587
29114W        W44245   6.933  17.011   2.671 -0.1517 -0.1537  0.4312
29115W        W44246   6.572  12.913  11.099 -0.0372  0.2229 -0.2180
29116W        W44247   3.142   1.536   2.062  0.1625 -0.1332  0.0294
29117W        W44248  12.798  16.714  14.356  0.0428  0.0927 -0.0106
29118W        W44249   8.890   9.955   3.144 -0.0259  0.0832  0.0706
29119W        W44250   8.609   0.940   2.624 -0.1460  0.2421 -0.0173
29120W        W44251  16.294  14.946   2.604 -0.0092 -0.1081 -0.1018
29121W        W44252  10.647   9.467   2.594  0.0850 -0.1770 -0.3271
29122W        W44253   4.778   5.772   0.028 -0.0308 -0.1142  0.3609
29123W        W44254   0.079  14.543   5.049 -0.0079 -0.2228 -0.2176
29124W        W44255   5.634  16.482  13.673 -0.1137 -0.3606  0.1276
29125W        W44256   6.714   8.261   2.226 -0.2093  0.3121 -0.0512
29126W        W44257   7.944   2.058  15.549 -0.1266  0.1813  0.1228
29127W        W44258   5.425  10.716  15.396 -0.1329  0.0131  0.1301
29128W        W44259   4.113  13.624  15.256  0.0221 -0.1603  0.3506
29129W        W44260  15.812  10.779  13.389  0.0948  0.3803  0.2638
29130W        W44261  11.869  12.444  12.622 -0.1115 -0.1803  0.0521
29131W        W44262   8.071   1.001   4.245 -0.0668  0.1885 -0.0517
29132W        W44263  10.671   3.834   5.597  0.0694 -0.0028 -0.0502
29133W        W44264   7.579  12.332  13.272 -0.3113 -0.2157 -0.1765
29134W        W44265   5.854  12.844   3.967  0.0012  0.0377  0.1170
29135W        W44266  12.433   0.330  13.622 -0.2214  0.0718 -0.0248
29136W        W44267  10.915  16.941  14.223 -0.0166 -0.1023 -0.1634
29137W        W44268  15.242  11.483  15.363 -0.1783 -0.0657  0.0651
29138W        W44269   5.151  17.465  13.087 -0.2208 -0.3542  0.0735
29139W        W44270  13.051   2.939   4.061  0.1583  0.1138 -0.1466
29140W        W44271   3.495  15.361  12.776 -0.1647  0.0680 -0.0609
29141W        W44272   5.265  11.616  13.996  0.1055 -0.0699 -0.2383
29142W        W44273  17.222  11.726  16.320 -0.0176 -0.0223  0.3204
29143W        W44274   7.998   6.247  11.311 -0.0861  0.1616 -0.0300
29144W        W44275  15.440  14.065   3.598  0.2237 -0.1634  0.1492
29145W        W44276   3.149  10.333  12.330 -0.0144 -0.1582 -0.2000
29146W        W44277  15.346   3.738  11.414  0.2047  0.1812  0.2436
29147W        W44278  16.268  15.688   3.336  0.1782  0.0830  0.0827
29148W        W44279  10.654  15.153  15.622 -0.1117  0.1287  0.1016
29149W        W44280  11.144  10.138   0.646  0.0060  0.0067 -0.0154
29150W        W44281   9.826   4.275  13.216 -0.2066  0.1575  0.2018
29151W        W44282   0.105   7.817  15.763  0.1771 -0.2056 -0.3017
29152W        W44283  16.355  14.623  11.700  0.2524  0.0213 -0.2103
29153W        W44284   0.386   4.051  11.976 -0.1473  0.1571  0.1183
29154W        W44285   5.308  11.743  16.368 -0.4228  0.1779 -0.0316
29155W        W44286   9.424   5.280  15.205  0.0293  0.1144 -0.3801
29156W        W44287  12.048   3.564   2.034 -0.0283 -0.1152  0.1247
29157W        W44288  11.795  12.869   3.179 -0.0358  0.0012  0.0201
29158W        W44289   4.176   4.966  16.788 -0.1135  0.3091  0.0189
29159W        W44290  13.712  14.687  15.747 -0.4667  0.3006  0.2720
29160W        W44291  16.175   2.996   3.042  0.2376  0.2055  0.1966
29161W        W44292   5.499   7.845   2.629 -0.0292  0.0666  0.2201
29162W        W44293  14.491   8.651  15.867 -0.1935  0.2316 -0.0501
29163W        W44294  14.766  15.141  16.348 -0.3935  0.0637  0.0254
29164W        W44295   8.218   9.972  11.620 -0.1541  0.1406  0.1836
29165W        W44296  11.234  12.299  15.424 -0.0011 -0.2286  0.1554
29166W        W44297   5.401   3.945  12.588  0.0781  0.0720 -0.0066
29167W        W44298   6.537  12.611  13.534 -0.4025  0.0958  0.0555
29168W        W44299   5.620   8.604   1.066 -0.2741 -0.0704 -0.1898
29169W        W44300   6.877   3.730   3.036  0.2654 -0.2696  0.1301
29170W        W44301   0.070  12.862  15.316  0.0113 -0.2298  0.1165
29171W        W44302  17.133   6.931   1.120  0.2897 -0.2767 -0.1643
29172W        W44303   1.132  16.750  16.222  0.1439 -0.2576 -0.1380
29173W        W44304   3.867   7.024  16.817  0.0936 -0.2684  0.0761
29174W        W44305   9.395  14.999  13.735 -0.1599 -0.2208  0.1509
29175W        W44306  17.025   2.866  13.686  0.1134  0.2316 -0.0417
29176W        W44307  14.606   0.769  15.377 -0.2075 -0.3721 -0.0159
29177W        W44308   8.315   8.689   2.263 -0.3858  0.2851  0.0006
29178W        W44309   3.448   1.493  12.982  0.2420 -0.2594  0.1007
29179W        W44310   4.596   7.607   5.894 -0.1465  0.1688 -0.0128
29180W        W44311  15.133  12.903  14.536  0.3449 -0.2210 -0.1994
29181W        W44312  11.558  11.758   5.681  0.2813 -0.1314 -0.0578
29182W        W44313  12.929  13.071   1.571 -0.2126  0.1188  0.4330
29183W        W44314   1.351  14.355  15.706  0.4533  0.0156 -0.0176
29184W        W44315  14.906   8.878  13.440  0.2144  0.1285 -0.1144
29185W        W44316   1.290   0.320  16.659 -0.0401  0.0598  0.0430
29186W        W44317  12.442   4.889   0.317 -0.0757  0.0459  0.3414
29187W        W44318   7.789   1.434   4.988 -0.2482 -0.0663 -0.0212
29188W        W44319  13.738   6.968  12.690 -0.4952  0.1055 -0.1466
29189W        W44320   5.517  15.740  16.018  0.2809 -0.0676 -0.0547
29190W        W44321   6.535  10.094  11.530  0.2917 -0.0653 -0.3426
29191W        W44322   5.904   5.271  16.925  0.0562 -0.1038  0.0352
29192W        W44323   9.948  17.614  11.110 -0.2918  0.0719 -0.2438
29193W        W44324   2.545   1.712  14.800 -0.2072  0.0888 -0.1714
29194W        W44325  15.328   7.062  16.855 -0.0174  0.1035 -0.2321
29195W        W44326  17.582   3.507   3.862 -0.1260  0.0620  0.6007
29196W        W44327   9.445   0.319  11.960 -0.4746  0.1894 -0.1440
29197W        W44328  15.151   1.719  15.930  0.5014 -0.0784  0.1258
29198W        W44329  11.902   2.057   0.156  0.1067 -0.0508 -0.3336
29199W        W44330  12.901   1.165   5.980 -0.2470 -0.1733 -0.1041
29200W        W44331   8.902  17.499  15.247 -0.0595  0.0701  0.1228
29201W        W44332  11.034   1.240  16.063  0.1211  0.2449 -0.0379
29202W        W44333   2.944  14.946  13.229  0.0080 -0.0130 -0.0759
29203W        W44334  10.156   6.772  12.683 -0.3248 -0.0858  0.2852
29204W        W44335   1.437  14.839  15.721  0.1608  0.2121 -0.0373
29205W        W44336   5.640  11.348  14.148  0.0280  0.2072  0.1054
29206W        W44337  17.395   1.343  14.327  0.0593 -0.1932 -0.4529
29207W        W44338   1.074   9.859   3.772  0.2544 -0.1655  0.1080
29208W        W44339  13.796   7.674  12.027  0.2776 -0.0999 -0.1597
29209W        W44340  10.625   8.251  13.594 -0.0570 -0.0188 -0.3238
29210W        W44341  14.445  13.400   4.416  0.0378 -0.1609  0.0531
29211W        W44342   2.008   7.688   3.223 -0.0597  0.1617 -0.3118
29212W        W44343   2.421  12.060   3.294  0.0430  0.0926  0.0730
29213W        W44344  17.077   5.017  14.912 -0.1882 -0.3555  0.0424
29214W        W44345   0.597   1.052   5.030 -0.1513 -0.0990 -0.1140
29215W        W44346   8.584   3.909   0.465 -0.3043  0.0274 -0.0648
29216W        W44347  12.855  10.578   0.409 -0.2768 -0.3384  0.3085
29217W        W44348   2.492   0.246   2.025 -0.1764  0.1311 -0.0100
29218W        W44349  14.021  11.216  13.485  0.0315  0.1629 -0.0448
29219W        W44350  13.402   0.557  15.274  0.1036 -0.2160  0.0475
29220W        W44351   1.739  12.728  15.170 -0.1827 -0.2154  0.1054
29221W        W44352  13.596   9.161   0.285  0.0582 -0.3599 -0.4038
29222W        W44353   7.442  13.600   2.383 -0.1597  0.0740  0.3213
29223W        W44354   5.240   8.478  16.330 -0.0459 -0.0987 -0.2798
29224W        W44355  11.193  17.490  13.378 -0.1212  0.2189 -0.1085
29225W        W44356   2.166  16.723  14.095 -0.3127 -0.4593  0.2637
29226W        W44357   6.858   3.819   0.221 -0.0582 -0.0463  0.0664
29227W        W44358  14.446  14.146  13.426  0.1073 -0.1265 -0.1385
29228W        W44359   9.590   3.569   0.752  0.1297  0.0867  0.1570
29229W        W44360   5.850   6.900   3.565  0.0125  0.0260  0.0497
29230W        W44361   6.465   9.291   0.256  0.0412 -0.1854  0.0781
29231W        W44362  11.255  17.180  13.890  0.1178 -0.0693  0.1895
29232W        W44363  16.457   5.792  16.896  0.1538  0.0044 -0.1235
29233W        W44364  16.912  10.093  12.932 -0.3060  0.1333  0.0758
29234W        W44365   3.077   9.620  14.137  0.0967 -0.0127 -0.1334
29235W        W44366   5.898   5.864   1.411  0.4622  0.2017 -0.2722
29236W        W44367   1.119  10.111   5.063  0.1637  0.3236  0.1354
29237W        W44368   3.151   7.178   5.512  0.2390  0.1499 -0.0850
29238W        W44369   7.875  14.805   2.858 -0.1174  0.1844 -0.1296
29239W        W44370  16.480   5.122   2.217 -0.0818  0.1543 -0.1074
29240W        W44371   4.031   1.877  15.175  0.0388 -0.3229  0.2722
29241W        W44372   0.914   3.905  11.918 -0.0702 -0.0826  0.1273
29242W        W44373  13.933   1.012  14.216  0.2635 -0.0266 -0.1620
29243W        W44374  17.470  13.308   0.087  0.0118 -0.0649  0.1840
29244W        W44375  10.268  11.895   3.338 -0.2443  0.0414  0.1588
29245W        W44376   7.018  12.918   1.351 -0.1834 -0.3185  0.0103
29246W        W44377   8.768  10.716   0.058  0.2312 -0.1791  0.0621
29247W        W44378  14.315   9.574   4.723  0.0402  0.1724 -0.0475
29248W        W44379   7.655  17.096  14.662  0.0122  0.0900 -0.0037
29249W        W44380   7.316  11.602  14.822 -0.3186 -0.3740 -0.1044
29250W        W44381   6.263   6.634  15.737  0.0514  0.0236  0.2192
29251W        W44382  14.537  17.388  11.644  0.2345 -0.0968  0.1478
29252W        W44383   8.545   2.983   0.940 -0.1077  0.2254 -0.0082
29253W        W44384   4.027   0.470   6.075 -0.3453 -0.2165 -0.0267
29254W        W44385   7.177  11.999  15.632 -0.0741  0.0489 -0.1530
29255W        W44386   4.153  17.467  12.333  0.1509  0.0660 -0.2512
29256W        W44387  11.143  15.031   4.452  0.1533  0.0504  0.0676
29257W        W44388   1.902  16.683   1.241  0.1518  0.2459 -0.1166
29258W        W44389  10.422  16.743   4.798  0.1150 -0.0049 -0.3501
29259W        W44390  11.527   8.407   3.281  0.1085  0.1467  0.0110
29260W        W44391  14.207  16.838   6.340 -0.0687 -0.1925  0.1295
29261W        W44392   0.879   4.229  13.780 -0.0735 -0.0216  0.1585
29262W        W44393  15.765  17.666   0.790  0.0914  0.2402  0.0537
29263W        W44394   4.929  15.395   5.292 -0.0962  0.1474  0.1779
29264W        W44395   8.818   3.286   3.902 -0.1084  0.0268  0.1073
29265W        W44396   1.172   0.096   2.249  0.0137 -0.0476  0.0482
29266W        W44397   6.743  17.050   4.285  0.2620  0.0343 -0.1274
29267W        W44398  10.784   8.024   3.224 -0.1743 -0.0259 -0.0956
29268W        W44399  16.843   0.884   0.801  0.0572 -0.0378  0.3452
29269W        W44400  11.728  15.906  14.172 -0.3070 -0.0344  0.1288
29270W        W44401   1.026  12.477   2.176  0.1197  0.0815 -0.0448
29271W        W44402   0.654   6.968  10.260  0.1181  0.2059 -0.0871
29272W        W44403  15.675   3.665  14.595 -0.1034  0.1501  0.1975
29273W        W44404   2.511  13.839   3.044  0.3503  0.2924  0.1838
29274W        W44405   6.463   6.645   0.503  0.3453 -0.0893 -0.2924
29275W        W44406  14.988   1.873   2.931 -0.0199 -0.1992 -0.0735
29276W        W44407  15.249   6.970  13.533 -0.0600  0.0062 -0.0586
29277W        W44408   0.301  12.334   5.592 -0.0758 -0.2620 -0.1662
29278W        W44409   8.344   2.876   0.527  0.0329  0.0057  0.0217
29279W        W44410  14.741  16.216   0.886 -0.0050  0.1330 -0.1034
29280W        W44411  16.009   6.173  12.054  0.0396 -0.4272  0.1412
29281W        W44412   5.994  15.360  16.907  0.0085 -0.0871 -0.1834
29282W        W44413   1.817  17.360   2.132  0.1048  0.1278  0.0801
29283W        W44414  17.535   0.474   2.239 -0.0936  0.0443 -0.1920
29284W        W44415  13.405   9.946  16.436  0.1756  0.0553  0.0293
29285W        W44416   3.724  12.205   4.995 -0.1060  0.0486 -0.0888
29286W        W44417   8.114   1.296   4.640 -0.1922  0.1084  0.1092
29287W        W44418  13.648  15.883  14.892 -0.0581 -0.1530  0.2972
29288W        W44419  10.157   3.978  14.433  0.1591 -0.1877  0.3854
29289W        W44420   1.450  14.333  12.536  0.0724  0.0433 -0.3536
29290W        W44421   4.771   7.035  13.557 -0.3029 -0.0654  0.2181
29291W        W44422   5.598   8.366   2.485  0.0628  0.1296  0.0682
29292W        W44423  14.343  12.261   2.690  0.0811  0.0513 -0.1696
29293W        W44424   2.985  14.178   1.514 -0.1507  0.1742 -0.1894
29294W        W44425   5.451  14.658  14.079  0.0965  0.0972  0.2766
29295W        W44426   1.736   4.081  11.523  0.0910  0.1546 -0.1338
29296W        W44427  11.530   4.559   1.592 -0.1760  0.1093 -0.0183
29297W        W44428  12.857   7.607  11.744 -0.0815  0.0873 -0.3089
29298W        W44429   6.428   8.832  14.212 -0.1967 -0.4387 -0.0678
29299W        W44430  15.338   5.658   0.227 -0.0693 -0.2444 -0.0248
29300W        W44431   0.593   3.359   2.843  0.1879  0.0211  0.2504
29301W        W44432  11.850   3.301  12.812  0.1933  0.0207  0.3095
29302W        W44433  12.563  17.179  15.165  0.4337  0.0233  0.1036
29303W        W44434   0.498  14.094   4.543  0.1093 -0.0855 -0.0661
29304W        W44435  12.746   2.092   1.690 -0.2313 -0.1236  0.0371
29305W        W44436   0.111   8.595   1.113  0.2294  0.1100 -0.1490
29306W        W44437   4.223  11.725  12.208  0.0184  0.1407  0.1014
29307W        W44438   4.433  15.578   5.673  0.0644 -0.0207  0.0113
29308W        W44439   1.367   6.118   3.494  0.2684  0.0111  0.1572
29309W        W44440  17.518  13.508   5.545 -0.0293  0.0126 -0.1577
29310W        W44441  17.060  15.060   1.371 -0.0563 -0.2960  0.2047
29311W        W44442   1.880  15.455  11.725  0.0789 -0.1818  0.0320
29312W        W44443   9.265   4.223   1.885  0.2681  0.0508  0.0312
29313W        W44444   3.986   6.052  12.000  0.0028 -0.1193  0.0140
29314W        W44445  13.104   8.873   4.767 -0.2732  0.2048  0.0881
29315W        W44446  12.569  11.595  14.268  0.1093 -0.0508  0.0706
29316W        W44447  14.987  17.421   2.753 -0.1827  0.4279  0.2340
29317W        W44448   8.553   1.692  15.783 -0.0138  0.1472 -0.0742
29318W        W44449  15.462   0.796   6.203 -0.0977 -0.0678 -0.0513
29319W        W44450  11.906   0.976   3.758  0.0079 -0.0486  0.2796
29320W        W44451   4.501   4.348  15.319 -0.0117 -0.1219  0.2210
29321W        W44452   2.274   7.765   2.259 -0.0216  0.1080  0.1774
29322W        W44453   4.859  10.170  16.877  0.1466  0.0722 -0.0040
29323W        W44454  15.653  12.836   2.284 -0.0395  0.1319  0.0313
29324W        W44455  10.389  12.929  14.840  0.1915  0.1237  0.1036
29325W        W44456  13.792   5.181  11.030 -0.2427 -0.1303 -0.0762
29326W        W44457  10.742   2.110   2.519 -0.1654  0.0213 -0.0839
29327W        W44458  14.761   9.449  11.334  0.1431  0.0688 -0.2033
29328W        W44459   5.407   5.606  12.195  0.0815 -0.2951  0.1296
29329W        W44460  12.518   6.657   2.530  0.2414  0.0032 -0.1923
29330W        W44461   3.444   6.058   2.944  0.1061 -0.0340 -0.2086
29331W        W44462   8.172  12.960   2.700  0.0590  0.0091  0.1544
29332W        W44463  12.570  16.609   5.580  0.2082 -0.1177  0.0685
29333W        W44464   5.166   8.801   2.152 -0.0452  0.0925 -0.0391
29334W        W44465  13.851  17.454  14.756 -0.3455  0.0317 -0.4743
29335W        W44466   4.920   2.415  12.441  0.1092  0.1000  0.1886
29336W        W44467   4.219   1.463   4.924  0.3519 -0.2634  0.1794
29337W        W44468  10.851  14.917   5.031  0.0801 -0.0716 -0.0965
29338W        W44469  12.990  10.516  12.063 -0.0354 -0.3221  0.1000
29339W        W44470   5.884   5.535  10.982  0.1517 -0.0985 -0.4602
29340W        W44471  12.943  16.296  12.875  0.1915 -0.2250 -0.0787
29341W        W44472   9.089  13.833  12.236 -0.1012  0.0137  0.0676
29342W        W44473  16.735   9.773  16.730  0.1111  0.1823 -0.0524
29343W        W44474  11.822   1.169  12.625  0.0271  0.1376 -0.2282
29344W        W44475   9.246  13.808  14.874  0.2077  0.0625  0.0172
29345W        W44476   4.277   3.313   4.786 -0.1125 -0.0642 -0.0952
29346W        W44477  16.005   3.554   5.237 -0.0027 -0.2336 -0.0550
29347W        W44478   1.316  10.479   3.701  0.5159 -0.1801 -0.0742
29348W        W44479   9.408  15.781   4.594 -0.0665 -0.3805 -0.1286
29349W        W44480   2.737  14.498  11.670 -0.1079 -0.1671 -0.0174
29350W        W44481   9.423   1.061   4.694  0.2108 -0.1122  0.2942
29351W        W44482  16.136  10.015  14.733 -0.1614  0.0708 -0.1139
29352W        W44483   7.239  15.665  14.075  0.3340  0.0604 -0.1482
29353W        W44484  14.846  13.254  13.150 -0.1474  0.0752  0.2722
29354W        W44485   4.904  12.745  13.633  0.1035 -0.1830 -0.0526
29355W        W44486  16.127  14.422   4.004 -0.2138 -0.2853  0.0337
29356W        W44487   6.601  10.219   4.423 -0.2689  0.0472 -0.1572
29357W        W44488  13.998  14.804  12.064 -0.1802 -0.0667  0.2546
29358W        W44489  17.311   9.259   5.473  0.2197  0.1487  0.2121
29359W        W44490  16.337  12.333   6.363  0.1115 -0.0995 -0.0487
29360W        W44491   5.530  15.006  13.140  0.2412  0.0018 -0.2174
29361W        W44492  17.584  12.962   3.072  0.2472  0.1991  0.1665
29362W        W44493  10.302   6.309  14.457  0.3546  0.0394 -0.2752
29363W        W44494   5.636  17.606  13.044  0.0066 -0.1541 -0.0626
29364W        W44495   4.330   9.363   1.114  0.0631  0.1247 -0.1438
29365W        W44496   6.745  13.449   5.338  0.0119  0.1719  0.0708
29366W        W44497   5.079   4.483  14.143 -0.2093  0.0757 -0.1834
29367W        W44498   3.992   0.440   1.798 -0.0287  0.0123 -0.4645
29368W        W44499   6.075  12.479   4.178 -0.0510  0.3214 -0.1221
29369W        W44500  10.824   6.818   3.962  0.1791 -0.2128  0.3925
29370W        W44501   4.811   2.489  11.878 -0.2244  0.0612  0.0268
29371W        W44502  14.838  13.786   4.560  0.3730 -0.0020  0.1651
29372W        W44503  17.560   8.432   2.378  0.2325 -0.3263  0.0136
29373W        W44504  16.381   0.536  16.044  0.1742  0.4218  0.1969
29374W        W44505  14.089   9.742  15.612 -0.2353 -0.3031  0.2677
29375W        W44506  15.942   1.331   0.631  0.2561 -0.0380  0.2470
29376W        W44507  10.274   1.921   4.561 -0.4229  0.2687  0.0545
29377W        W44508   5.245  14.783  13.562 -0.0863  0.1719  0.0956
29378W        W44509   3.245   8.990   5.732 -0.0665 -0.0104 -0.0811
29379W        W44510  16.249  10.971  15.325  0.1019 -0.2834  0.0780
29380W        W44511  14.810  17.566   5.130  0.2313  0.1230 -0.0254
29381W        W44512   6.056  13.992   6.232 -0.2800 -0.6116 -0.0147
29382W        W44513   9.547   4.813   4.477  0.1973  0.0666 -0.0436
29383W        W44514  17.413  10.721  14.957  0.1769 -0.0216 -0.0743
29384W        W44515   2.676   8.540   2.456 -0.0108  0.0844  0.1829
29385W        W44516   9.647   3.853  13.017 -0.0620 -0.0333 -0.1256
29386W        W44517  16.430  16.150   0.078 -0.1119 -0.2095 -0.2521
29387W        W44518   6.028  11.147   3.568 -0.2777 -0.1094 -0.0533
29388W        W44519   7.040   7.050  15.592  0.0797  0.1181  0.0582
29389W        W44520  17.566   4.500   3.366  0.1698  0.0035  0.1123
29390W        W44521  16.915  13.364   2.869  0.0243  0.2811  0.2330
29391W        W44522   8.795   8.287   5.608 -0.0907  0.4006 -0.1745
29392W        W44523  10.703  17.046   6.214 -0.2704 -0.1174 -0.1686
29393W        W44524   9.591  12.848  12.971  0.2159  0.1581  0.2437
29394W        W44525  11.348   9.605  16.817 -0.0081  0.1673  0.0106
29395W        W44526  10.064   4.807  15.831  0.3671 -0.0914  0.2413
29396W        W44527   6.211  14.669  11.827 -0.3261  0.2347 -0.2354
29397W        W44528  15.107   9.431  16.513 -0.0477 -0.1181 -0.1648
29398W        W44529   0.896  16.594  10.657  0.6343 -0.0134  0.3487
29399W        W44530   0.351   3.060  15.841 -0.1687  0.0252  0.1381
29400W        W44531  17.172   4.691  10.995 -0.1419 -0.1361  0.0212
29401W        W44532   1.534  11.499  12.313 -0.1611 -0.1567  0.1788
29402W        W44533   4.613   5.957   3.626  0.0003 -0.0547  0.0758
29403W        W44534   5.995   8.076  16.779 -0.1798 -0.1092  0.1312
29404W        W44535  11.716   9.069  12.968 -0.0773  0.2097 -0.1588
29405W        W44536  10.459   8.984   2.532 -0.1439 -0.0397 -0.3591
29406W        W44537  17.624  12.875  15.778  0.1746 -0.1603  0.0904
29407W        W44538  10.992  10.014   4.216  0.2449 -0.1050 -0.0019
29408W        W44539  12.251   6.056  14.164 -0.1240 -0.1515  0.1701
29409W        W44540   5.999   9.230   1.318  0.0600  0.2922 -0.2277
29410W        W44541   7.766   7.675   2.796  0.1279  0.3644  0.1163
29411W        W44542   7.578   5.345   6.147 -0.0314 -0.0025  0.4427
29412W        W44543  16.608   0.129   3.518 -0.0722 -0.0168 -0.2002
29413W        W44544  14.587  10.309   2.791  0.1707  0.1639 -0.0464
29414W        W44545  10.864   4.456  11.879  0.1277  0.2630 -0.1085
29415W        W44546   3.274  10.944  16.200  0.0988 -0.0947  0.1985
29416W        W44547   8.996  13.167   2.291  0.0326 -0.0346  0.1413
29417W        W44548  16.702  15.565  13.582  0.1577  0.0665  0.2284
29418W        W44549   8.789  10.585   0.581 -0.1063  0.1301 -0.1809
29419W        W44550   1.015  17.288   1.078 -0.0765 -0.1161  0.0198
29420W        W44551   0.679  16.525  14.905 -0.4062 -0.1043 -0.1787
29421W        W44552  12.501   2.800   3.997 -0.1460 -0.1297 -0.0310
29422W        W44553   6.975   7.875   0.927  0.0523 -0.0884 -0.0111
29423W        W44554  12.328  10.163   4.540 -0.3849  0.0324 -0.0676
29424W        W44555   1.092  15.725   1.447  0.2354  0.0716 -0.0446
29425W        W44556  17.684  12.000   5.668 -0.1432  0.0387 -0.2411
29426W        W44557  10.236   4.091   2.872  0.0688 -0.0864 -0.2061
29427W        W44558   5.567  17.339   0.778  0.0061 -0.2454  0.1065
29428W        W44559   5.636   0.606  16.936  0.1664 -0.1000 -0.0381
29429W        W44560  15.780  12.878  14.830  0.2922  0.2201 -0.0404
29430W        W44561   8.360   7.523  14.829  0.1784  0.0445  0.0428
29431W        W44562   3.469   6.707  10.567  0.2552  0.1108  0.0635
29432W        W44563   0.167   3.468  11.561  0.0039  0.1888 -0.0153
29433W        W44564   6.391   8.029  13.640 -0.2467 -0.1583  0.1669
29434W        W44565   7.419   3.213   1.735  0.1518  0.1518 -0.1521
29435W        W44566  10.606   2.717  13.379 -0.1833 -0.0708  0.1042
29436W        W44567   1.029   8.949  15.740 -0.2262  0.1946 -0.2568
29437W        W44568   3.889   9.606  13.668  0.0702  0.0289 -0.0485
29438W        W44569   8.889  16.890  12.019 -0.2676  0.0581  0.1617
29439W        W44570  13.231   9.675   3.545 -0.1565  0.1517  0.2376
29440W        W44571   8.016   7.415   3.160 -0.0239 -0.2103  0.3699
29441W        W44572  12.992  14.403   3.537 -0.1205 -0.0411  0.0434
29442W        W44573   7.867   0.420   2.124  0.0586  0.2327  0.1991
29443W        W44574   7.612   9.655   2.583  0.2207 -0.0069  0.1896
29444W        W44575   0.825  13.323   1.842 -0.1830  0.0321  0.2191
29445W        W44576   2.264   2.953  14.010 -0.1762 -0.3400 -0.2080
29446W        W44577  14.538  10.749  14.320 -0.1380 -0.0542 -0.0300
29447W        W44578  17.556   1.669   0.052  0.0593  0.1491  0.1629
29448W        W44579  17.206   0.586   3.693  0.3273  0.3858  0.1815
29449W        W44580  14.390  17.588  13.502 -0.0797 -0.3584 -0.5548
29450W        W44581   1.565   7.212  12.792 -0.1836 -0.0610  0.1652
29451W        W44582   5.910   9.300   2.352 -0.1007  0.1381 -0.3910
29452W        W44583   1.411  12.475  12.848  0.0362 -0.1532 -0.1856
29453W        W44584  17.123   3.249  13.366 -0.1773 -0.0555 -0.1209
29454W        W44585   3.910   3.959  11.680 -0.0511  0.2575  0.1113
29455W        W44586   6.310   0.891   5.645 -0.1933 -0.1337  0.0717
29456W        W44587   4.609  11.823   5.619 -0.1407 -0.0189  0.2098
29457W        W44588  10.000  12.354  15.976  0.1355 -0.0420 -0.1721
29458W        W44589   4.449  14.426   3.979 -0.2500  0.1067  0.0382
29459W        W44590   4.398   3.250  15.527  0.0034 -0.3117  0.0335
29460W        W44591   5.708   0.155  15.520  0.2138  0.1814 -0.0041
29461W        W44592   8.386  15.106  15.986  0.3263 -0.1109  0.0856
29462W        W44593  14.928  14.519   1.400 -0.2442 -0.0807  0.1364
29463W        W44594   0.778  13.316   2.850  0.0892 -0.3091 -0.1518
29464W        W44595  11.455   5.460   4.002  0.1975 -0.0483  0.2067
29465W        W44596  15.504   1.610   4.748 -0.2825 -0.0177  0.1529
29466W        W44597   7.744  17.411  14.267 -0.1203 -0.0310 -0.1955
29467W        W44598  14.417  10.374   1.906 -0.0181 -0.0070  0.1132
29468W        W44599  12.573  15.150   2.182  0.1197 -0.1352 -0.1493
29469W        W44600  12.758   3.163  12.266  0.1875  0.2229 -0.1782
29470W        W44601  17.462   4.811  16.602 -0.0284 -0.2483 -0.0347
29471W        W44602   7.873   4.817   1.799 -0.0815  0.3721  0.1526
29472W        W44603   1.868   3.171  14.301  0.0849  0.0897 -0.3628
29473W        W44604   7.788  14.663  13.113 -0.1206  0.1409  0.1164
29474W        W44605  11.480   2.151  14.934  0.0795  0.1138 -0.0537
29475W        W44606  10.795  11.519   2.615  0.0817 -0.0850  0.1585
29476W        W44607  11.584   4.635  15.151 -0.0244 -0.1054 -0.0307
29477W        W44608   6.161   3.585   2.393 -0.1285 -0.1198  0.2222
29478W        W44609   8.077   0.757  11.935  0.0423  0.1149  0.0708
29479W        W44610  11.971   1.911  13.764  0.3436  0.1565 -0.3250
29480W        W44611   3.832  17.432   2.534 -0.0765 -0.2356  0.1160
29481W        W44612   0.798   1.695   2.669 -0.0437  0.2226 -0.2365
29482W        W44613   3.528  13.570  12.194 -0.0801 -0.0009 -0.1630
29483W        W44614   0.912  11.304   1.183 -0.0730 -0.2369 -0.0180
29484W        W44615   3.095  17.271   1.831 -0.2812  0.2549 -0.1462
29485W        W44616  16.677   0.747   4.263 -0.4320  0.0383  0.2905
29486W        W44617  10.768  13.376  14.976  0.1054  0.0230 -0.0348
29487W        W44618   4.143   4.092  15.772  0.0815 -0.1687 -0.0802
29488W        W44619   6.559   0.825  15.641 -0.1047  0.1280 -0.2270
29489W        W44620  15.085   4.986  11.918  0.0274 -0.5575  0.0010
29490W        W44621  12.249  11.705   0.067  0.0185  0.1598  0.1033
29491W        W44622  15.118  14.009  12.776 -0.1269 -0.1407  0.1032
29492W        W44623   2.035   8.603   1.248 -0.2005  0.0904 -0.0799
29493W        W44624  17.673   2.187   4.367 -0.1164 -0.0819  0.0117
29494W        W44625  12.683  11.604   3.776 -0.0733  0.2644  0.0795
29495W        W44626  15.992  13.839   2.348 -0.0045  0.1061  0.0933
29496W        W44627  15.022   5.062   3.093  0.0194  0.0361 -0.1760
29497W        W44628   5.137   2.818  15.579  0.0487 -0.3259  0.1697
29498W        W44629  16.887  16.781  12.935 -0.1305  0.1117 -0.0203
29499W        W44630  17.192   0.590  12.300 -0.3222 -0.0806 -0.0969
29500W        W44631   2.496  10.136   5.578  0.1707 -0.0473  0.2587
29501W        W44632   6.383   4.375  16.135  0.0527 -0.1939  0.0577
29502W        W44633   4.717  16.993   1.650  0.0529 -0.1817 -0.1278
29503W        W44634  12.856  17.485  14.284  0.1196  0.1870 -0.2132
29504W        W44635  11.037   1.065  11.391  0.3565 -0.1252 -0.2709
29505W        W44636   7.594  16.691   5.166  0.1201  0.1417 -0.0133
29506W        W44637   0.226   8.678   3.604 -0.0381  0.1927  0.0779
29507W        W44638  13.335   6.268  16.835  0.3546  0.4054  0.1808
29508W        W44639  11.591   5.970   3.172  0.0890  0.2011  0.1162
29509W        W44640  15.677   0.055  15.624 -0.0864 -0.1362 -0.0351
29510W        W44641  17.321   3.664  13.067  0.2470  0.2216  0.0197
29511W        W44642  13.038   7.923   3.945 -0.2445  0.0053  0.1731
29512W        W44643  14.350   2.748  16.693  0.2131 -0.0194 -0.1126
29513W        W44644   9.332  12.137  13.288 -0.0079 -0.0207 -0.0334
29514W        W44645   7.596   7.266  15.252 -0.1113 -0.0933 -0.0098
29515W        W44646  13.878   0.453   3.919  0.1559  0.1029 -0.1859
29516W        W44647   7.151   6.078  11.305  0.1147  0.0382 -0.0735
29517W        W44648  15.080  13.200   2.038 -0.0931  0.0717 -0.0377
29518W        W44649   8.993   8.070  14.480 -0.1552 -0.0398 -0.1270
29519W        W44650  10.682   9.947   3.047 -0.0239 -0.0499 -0.2798
29520W        W44651   8.418   6.385  16.634  0.1109 -0.1743 -0.0976
29521W        W44652   3.526   2.419  14.898  0.1502  0.2371 -0.0148
29522W        W44653   7.914  16.523  13.106 -0.0143  0.1681 -0.0123
29523W        W44654   6.654   0.760  12.319  0.1988  0.4514  0.0975
29524W        W44655   8.443   0.335   3.509 -0.2298 -0.1632 -0.1855
29525W        W44656  10.501   3.733   3.178 -0.0459 -0.2435 -0.2645
29526W        W44657  13.930   8.184  15.679  0.2042 -0.1105 -0.1038
29527W        W44658  15.493   0.497  14.957  0.2188  0.0108 -0.1590
29528W        W44659   7.870   8.177  13.105  0.1702  0.3822 -0.0940
29529W        W44660  14.060  13.044   4.331  0.0918  0.0566  0.0647
29530W        W44661   3.380  13.959   0.862 -0.1581 -0.0648 -0.0909
29531W        W44662   9.945   3.368  13.052 -0.1200  0.2201  0.1116
29532W        W44663   1.430   0.895  15.719 -0.0076 -0.0051 -0.0961
29533W        W44664  16.029   8.733   2.091 -0.0811  0.2859  0.1467
29534W        W44665   4.350   3.260   0.956  0.2067 -0.0661  0.0222
29535W        W44666   6.023   5.249   5.151 -0.0687 -0.0351  0.0341
29536W        W44667   0.873   1.078  13.713  0.2253  0.1604  0.1484
29537W        W44668   1.788   1.816   2.341 -0.1465  0.0292  0.1798
29538W        W44669  12.472  13.902  15.220 -0.2106  0.3639 -0.1189
29539W        W44670  12.996   4.851  14.251 -0.3145  0.0910  0.1370
29540W        W44671   4.838   3.206   0.959 -0.0540  0.0549  0.0580
29541W        W44672   6.348   9.065   2.717 -0.1901 -0.1345  0.1533
29542W        W44673  17.654  12.705   1.248 -0.2441 -0.2248 -0.3249
29543W        W44674  14.261   7.507   3.083  0.2337 -0.0425 -0.0888
29544W        W44675   7.486   8.974   3.265  0.1572 -0.2238  0.2090
29545W        W44676   3.763   0.945  14.296  0.0077  0.0177  0.1556
29546W        W44677  13.755   7.528   2.480  0.2893  0.1390 -0.1919
29547W        W44678  12.783   3.010  11.343 -0.2622  0.1596  0.1477
29548W        W44679   7.216  11.653  12.192 -0.1967  0.1539  0.0322
29549W        W44680  12.771  10.255   2.859 -0.1829  0.3595  0.2079
29550W        W44681   4.154   8.746   4.386  0.1613 -0.3276  0.0832
29551W        W44682  15.150   2.867   3.490 -0.1140  0.0813  0.1639
29552W        W44683  11.273  15.041  13.377  0.4441  0.3053  0.1700
29553W        W44684  13.244   9.481   3.059  0.1224  0.3128  0.2011
29554W        W44685  15.391   1.720  13.681 -0.1357  0.0251  0.3175
29555W        W44686   3.697   9.114  11.840  0.3926  0.1538  0.0018
29556W        W44687   7.103   8.285   3.624  0.0585  0.0089  0.2159
29557W        W44688  11.486  16.851  14.340 -0.0914  0.0232  0.0558
29558W        W44689  10.862   4.851   5.021  0.1416  0.0997  0.2069
29559W        W44690  12.352   6.068  12.987 -0.1669  0.0681 -0.1178
29560W        W44691   9.603   0.522   2.443 -0.1222  0.2466  0.1284
29561W        W44692   3.750   3.923  14.532  0.0673  0.0754 -0.0177
29562W        W44693  13.008   0.303  11.577  0.1856 -0.3358  0.3390
29563W        W44694  13.456   5.583   2.167  0.1174  0.0466  0.0537
29564W        W44695   5.289   9.139  11.530  0.1315  0.4402 -0.0726
29565W        W44696   4.084   0.924   3.933 -0.0047  0.0961 -0.0593
29566W        W44697   4.662  12.863   5.707 -0.1918  0.0563 -0.5252
29567W        W44698   6.144  10.195  12.841 -0.1494 -0.1606 -0.0553
29568W        W44699   5.031   2.097  14.370 -0.3208 -0.0992 -0.2061
29569W        W44700   7.138   4.198   3.901  0.0398  0.0135  0.1850
29570W        W44701   9.399  17.270  16.375 -0.2505  0.1267  0.0158
29571W        W44702   0.475   2.293   2.338  0.2875  0.1597  0.0445
29572W        W44703   1.587   6.647   4.442  0.0379  0.1226  0.1288
29573W        W44704  15.638  14.359   1.797  0.3499 -0.0725 -0.1993
29574W        W44705   9.935   8.083  16.337 -0.1293 -0.2136 -0.0407
29575W        W44706   5.295   0.048   4.522 -0.1106  0.0781  0.0062
29576W        W44707   3.364  16.723   0.962 -0.2856 -0.0120  0.0219
29577W        W44708   4.892  11.611   0.935 -0.1052 -0.0281  0.0246
29578W        W44709   7.310   7.863  16.172  0.4365  0.0876 -0.1679
29579W        W44710   3.654   3.658   2.871 -0.1809  0.0231 -0.0294
29580W        W44711  14.302  12.707  16.145 -0.0710  0.1715 -0.1800
29581W        W44712   9.538  15.296   4.784  0.1277  0.0372  0.2315
29582W        W44713   1.683   9.109  11.501 -0.0850  0.0671 -0.1014
29583W        W44714  16.828  15.816  15.575 -0.0935  0.2086 -0.1945
29584W        W44715   0.224   5.703  16.347  0.0413 -0.2779  0.0319
29585W        W44716  16.914   7.198   2.507 -0.1350 -0.0558  0.0438
29586W        W44717   6.389   7.604   1.682 -0.2221  0.3146 -0.0391
29587W        W44718  11.798   6.523   2.912  0.0391 -0.2082 -0.0275
29588W        W44719  11.292  14.443   4.242  0.0906  0.1498  0.4407
29589W        W44720  11.093   2.798  15.203 -0.1437 -0.2694 -0.0925
29590W        W44721   2.188  12.092  12.775 -0.4150  0.1221 -0.1596
29591W        W44722   2.178  15.647  13.096  0.1731 -0.2384  0.2886
29592W        W44723  10.279  11.627  15.437 -0.1943 -0.3164 -0.0545
29593W        W44724   4.964   4.041  12.898  0.3175 -0.1721  0.0112
29594W        W44725   4.189   2.699  16.472  0.0291  0.2336 -0.2580
29595W        W44726  11.259   4.139  11.142 -0.0356 -0.1769  0.1162
29596W        W44727  11.493  10.762   2.805 -0.1579 -0.2882 -0.2943
29597W        W44728   7.131   6.029   1.363  0.0632 -0.0669  0.1778
29598W        W44729   9.954  16.679  16.925  0.2410  0.1053  0.1938
29599W        W44730  15.005  17.639  12.649 -0.0037 -0.1782 -0.3647
29600W        W44731  13.254   7.350   0.799 -0.3026 -0.0161  0.1928
29601W        W44732  12.375   3.827   5.135 -0.0269  0.0841  0.0953
29602W        W44733   1.460   3.336  12.273 -0.1182  0.0430  0.4882
29603W        W44734  11.314  11.794   1.469  0.0737  0.1797 -0.1157
29604W        W44735  16.664   6.495  13.930 -0.0658  0.1468 -0.0967
29605W        W44736  11.247   4.185  11.736 -0.0112 -0.0535 -0.0967
29606W        W44737  15.663   5.794  10.718 -0.0648 -0.3017  0.4271
29607W        W44738  11.414   2.411   1.399 -0.0340  0.1968 -0.3983
29608W        W44739  14.928  10.121  11.821 -0.0415  0.0548  0.0599
29609W        W44740   3.336  17.393  12.564  0.1732 -0.0256 -0.0175
29610W        W44741  17.659  10.959   5.305 -0.0151 -0.1521  0.1490
29611W        W44742   7.015   9.062  16.588  0.1486  0.1802 -0.2262
29612W        W44743   9.612  14.327   5.435  0.0434 -0.1282  0.2729
29613W        W44744  13.888   2.742   0.503 -0.0172 -0.1276  0.0315
29614W        W44745   7.326  16.877   2.013  0.2001  0.2790  0.2272
29615W        W44746  14.752  16.661   1.122 -0.2036 -0.0405  0.0260
29616W        W44747   8.540   2.386  12.284 -0.0143  0.2868 -0.2169
29617W        W44748  15.956  14.136   3.601 -0.1794 -0.0309  0.2353
29618W        W44749   9.220  16.574  14.193  0.0391 -0.1501  0.4027
29619W        W44750  14.388  16.756   0.749 -0.0699 -0.1394  0.0103
29620W        W44751  10.816   8.632   2.674 -0.1615 -0.0499  0.0506
29621W        W44752   7.205  12.635   2.618  0.0745  0.0886 -0.1902
29622W        W44753   0.409  10.554   2.743 -0.0691 -0.0985  0.1113
29623W        W44754  15.398  14.118   4.517 -0.1249 -0.0483  0.1870
29624W        W44755   9.641   4.479  16.734  0.0261 -0.2060  0.2119
29625W        W44756   1.758   8.303  15.441 -0.1114  0.4315 -0.3202
29626W        W44757   8.641  10.714  11.425 -0.2412 -0.3245  0.1162
29627W        W44758  14.746  16.042  13.519 -0.0482  0.3038 -0.0384
29628W        W44759   9.683   5.100   3.153 -0.0683 -0.2253 -0.0223
29629W        W44760   7.832  12.838  11.648  0.0934  0.2318  0.0572
29630W        W44761   0.464  17.451   4.192 -0.1184  0.2939 -0.0670
29631W        W44762  10.315  16.601   4.353 -0.0530 -0.0322 -0.1668
29632W        W44763  13.453  12.897   5.443 -0.2336  0.0841  0.0709
29633W        W44764   1.692   5.782  12.729  0.0201 -0.1979  0.1368
29634W        W44765  10.904  16.880   1.393 -0.1121 -0.0759 -0.0513
29635W        W44766   7.382  14.127   2.674 -0.0087  0.1819 -0.2006
29636W        W44767   6.960   0.489  13.230 -0.1070 -0.0995  0.1591
29637W        W44768   2.824   7.525   3.139 -0.0129  0.3969  0.1454
29638W        W44769   7.945   8.369  15.020  0.1907  0.0933  0.1418
29639W        W44770   7.641   8.183   2.443  0.1595  0.1113 -0.0364
29640W        W44771   4.523   9.169   1.516  0.1459 -0.1295 -0.0751
29641W        W44772   0.820   9.388  15.395  0.0943  0.0940 -0.0863
29642W        W44773  15.473  15.968  15.520 -0.3575  0.0657  0.1090
29643W        W44774  11.974  11.212   5.150 -0.0352 -0.0202  0.0858
29644W        W44775  13.864  12.915  12.086  0.0218  0.1490  0.1438
29645W        W44776   0.455  14.796   1.743 -0.2619  0.3523  0.0422
29646W        W44777  17.452  16.797   4.372  0.0634  0.1509  0.0416
29647W        W44778  12.184  11.079  11.419 -0.2876 -0.0295 -0.1570
29648W        W44779  12.388   7.027   3.796 -0.1516 -0.0424  0.1120
29649W        W44780   0.012  13.046  13.267 -0.3281  0.0302 -0.0291
29650W        W44781  11.886  14.354   2.031 -0.1165 -0.0764  0.1833
29651W        W44782  16.412   3.391  11.875  0.0060  0.0583  0.1499
29652W        W44783   7.462  13.324  14.428  0.1478 -0.1262 -0.3850
29653W        W44784   8.631  13.239   5.160  0.0310  0.1025  0.0557
29654W        W44785   9.138   0.317   5.173  0.4220 -0.0948 -0.0281
29655W        W44786  15.009  13.840  16.611  0.1089 -0.2198 -0.0473
29656W        W44787   8.945   8.116  16.381  0.1077 -0.3732 -0.0798
29657W        W44788   8.090   0.956   1.874 -0.0433 -0.0331 -0.1050
29658W        W44789  17.189  12.807   1.119 -0.0678  0.0667 -0.2288
29659W        W44790   5.809  10.665  16.443 -0.0172 -0.0107 -0.0432
29660W        W44791   5.109  16.974   2.216 -0.0413 -0.1397 -0.2700
29661W        W44792   8.028  12.244  12.990 -0.0701 -0.2505  0.0632
29662W        W44793  16.996   3.540  12.653 -0.1351 -0.1548  0.2837
29663W        W44794   3.797  10.021   0.830  0.1008  0.0097 -0.2102
29664W        W44795   1.932  14.700   2.844  0.0401 -0.0620  0.1018
29665W        W44796  14.528  11.935  12.820  0.0340  0.0016  0.2929
29666W        W44797  10.466   0.080  14.573  0.2013 -0.0862 -0.0345
29667W        W44798   3.379  17.374  14.379  0.0141 -0.0645 -0.1810
29668W        W44799   6.173  10.853  13.637 -0.1266  0.1060  0.1752
29669W        W44800   1.889   1.887   2.851  0.0031 -0.0367  0.0371
29670W        W44801  16.197  15.973   2.324  0.1918  0.0996 -0.0499
29671W        W44802   0.003  13.723  12.937  0.1031 -0.3214 -0.2193
29672W        W44803   3.762   3.528  11.871  0.0825  0.0786 -0.2052
29673W        W44804  13.037   8.814  16.937  0.1122 -0.0730 -0.1694
29674W        W44805   3.197  13.297  16.274 -0.0033  0.2693  0.1602
29675W        W44806  13.870  14.579  16.684 -0.0547 -0.0853 -0.0153
29676W        W44807   8.807  16.073   1.620 -0.0524  0.0652  0.1512
29677W        W44808  12.610  10.821   2.490 -0.1905  0.1159  0.1018
29678W        W44809  11.001  10.707  11.317 -0.2292  0.2152 -0.1086
29679W        W44810  10.943  13.513  10.722 -0.2476  0.1097  0.0218
29680W        W44811  14.651   4.686   2.950  0.0086  0.1064  0.1944
29681W        W44812   4.010  11.763   2.423  0.0025 -0.1209  0.1848
29682W        W44813  17.153   2.277  12.982  0.3424  0.0351  0.0678
29683W        W44814   9.502   2.980  12.745  0.1170  0.1171  0.1963
29684W        W44815  13.780   3.421   0.463  0.2054 -0.1864 -0.1221
29685W        W44816  14.062   8.479  10.415 -0.2234 -0.0411 -0.1775
29686W        W44817  10.736  14.756  12.653  0.0208 -0.1561 -0.1021
29687W        W44818  14.682   6.668   5.145  0.1753  0.1127  0.1468
29688W        W44819  14.091   4.530   2.756  0.0314 -0.1163  0.0864
29689W        W44820  12.222   3.990   2.247 -0.2417 -0.0953 -0.0525
29690W        W44821  17.278  15.674   0.442  0.0050  0.2442  0.0458
29691W        W44822  17.663  16.394   2.342 -0.1686  0.3055 -0.1083
29692W        W44823  12.792  16.512   2.052 -0.0729  0.1310  0.1465
29693W        W44824  15.102  15.882   1.156 -0.0041 -0.0926 -0.0640
29694W        W44825  11.406   8.016  11.972  0.0242 -0.0503 -0.1584
29695W        W44826  16.459   6.971  14.795 -0.1243  0.0847  0.2132
29696W        W44827   4.856  12.161   3.326 -0.0981 -0.2249  0.1882
29697W        W44828   7.043   4.820  11.983  0.1721 -0.1450  0.0769
29698W        W44829   2.332   6.711   0.139 -0.0841  0.0123 -0.0100
29699W        W44830   2.392   9.167   5.778  0.4516  0.2695 -0.1288
29700W        W44831   0.991   7.719   0.644  0.2294 -0.1172  0.1213
29701W        W44832   8.884  10.595   5.091 -0.0918  0.0604  0.2869
29702W        W44833  12.004   6.327  12.150 -0.1112  0.3061 -0.1019
29703W        W44834  10.118  14.280   3.719 -0.0427 -0.3034  0.0357
29704W        W44835   0.623   0.798  16.236  0.0574 -0.0101 -0.1353
29705W        W44836  12.493   8.660  13.523 -0.0874  0.1678  0.0440
29706W        W44837   2.336   4.185  15.834 -0.3881  0.1925  0.0427
29707W        W44838   2.049   7.262  12.698  0.0528  0.0232  0.0235
29708W        W44839   1.208   6.589  13.400 -0.1458  0.1386  0.0238
29709W        W44840   8.672   7.766   0.870  0.1854 -0.0255  0.2791
29710W        W44841  10.636   8.993  13.870 -0.0258 -0.0692  0.0960
29711W        W44842  16.431   7.967   4.279  0.2265  0.0991 -0.2988
29712W        W44843  14.990   5.879   3.609 -0.3029 -0.2360 -0.1805
29713W        W44844   1.121  14.214   3.811 -0.1360  0.2079 -0.2193
29714W        W44845   8.406   2.223   2.987  0.2726 -0.0765  0.1331
29715W        W44846  14.256  15.905   2.533 -0.2858 -0.1629 -0.2114
29716W        W44847  12.444   6.712  16.722  0.2335 -0.1871 -0.0067
29717W        W44848   5.026  15.861  13.617 -0.0503 -0.0842 -0.0648
29718W        W44849   2.969  11.716  15.977 -0.0410 -0.1856 -0.1441
29719W        W44850   9.814   3.099  16.043 -0.0801 -0.0985  0.1314
29720W        W44851   4.829  13.039   4.860 -0.2242 -0.0998 -0.1898
29721W        W44852   2.150   8.258   2.302 -0.1562  0.2378 -0.1520
29722W        W44853  10.792  14.630   5.485 -0.1675  0.1120  0.0574
29723W        W44854  12.321  11.156  11.982  0.3638  0.1924  0.4050
29724W        W44855  14.248   9.623  16.582 -0.1423 -0.0123  0.2470
29725W        W44856   7.040   6.522   1.166 -0.1640  0.2911  0.1136
29726W        W44857  10.712   8.921  15.714  0.2418  0.0118 -0.1197
29727W        W44858  13.918   6.572  14.753  0.1712  0.0608  0.1961
29728W        W44859  12.637  16.668   5.042 -0.1018  0.0880  0.1026
29729W        W44860  15.846   9.733   5.303  0.0056 -0.3366  0.1703
29730W        W44861   4.370  14.854   1.969 -0.1782  0.0576  0.0230
29731W        W44862   3.169  13.250   1.334 -0.0926 -0.2350 -0.1069
29732W        W44863  17.255  10.650  12.163 -0.3838  0.4085 -0.0451
29733W        W44864  17.692  12.538  12.047  0.0398 -0.1961  0.1340
29734W        W44865  10.551  11.940  11.293 -0.2716  0.3158  0.0137
29735W        W44866   9.907   4.644  10.255  0.1066  0.1265  0.1230
29736W        W44867   3.219  16.570   5.949 -0.0137  0.2421  0.0178
29737W        W44868   0.458   7.333  16.797 -0.1949 -0.1964 -0.2076
29738W        W44869   2.259   0.481   5.490  0.0675  0.0315 -0.0628
29739W        W44870  12.962  13.720  15.321 -0.1245 -0.1070  0.5194
29740W        W44871   7.207   5.826  14.607 -0.1909 -0.1391 -0.1881
29741W        W44872   7.151   1.569  14.463 -0.3278  0.0870  0.0835
29742W        W44873   0.707  11.887  15.052 -0.2074  0.1579 -0.2433
29743W        W44874   2.043   0.392  12.652  0.2048 -0.0830  0.4298
29744W        W44875  12.588   5.503  14.890  0.0721 -0.2963 -0.0158
29745W        W44876  16.170   4.151   5.371 -0.0603  0.0033  0.1217
29746W        W44877   7.010  11.949  14.607 -0.0153  0.2640 -0.2561
29747W        W44878  15.731  16.149   5.493  0.1357  0.2725  0.0293
29748W        W44879   0.997   6.516  16.525 -0.0982  0.2307  0.1100
29749W        W44880  15.269   0.419   3.982 -0.1575 -0.1440  0.2141
29750W        W44881   7.969  12.717   1.015 -0.0095  0.1808 -0.2575
29751W        W44882   8.655   9.352   0.006 -0.1479  0.0810 -0.1170
29752W        W44883  10.961   5.486   0.827  0.1662 -0.1277  0.3193
29753W        W44884   3.290   7.394  11.451  0.1434 -0.0064 -0.0863
29754W        W44885  17.271   5.921   3.555  0.1056 -0.1254  0.2962
29755W        W44886   8.545   4.996   0.828  0.4076  0.1288 -0.0556
29756W        W44887  10.803  16.425  14.060 -0.1248 -0.0624  0.0413
29757W        W44888   5.128   7.218  11.308  0.1000  0.1311  0.0888
29758W        W44889   0.061  10.411  16.359  0.1599  0.0813 -0.2245
29759W        W44890  14.475  12.732   1.345  0.2700 -0.0299 -0.1532
29760W        W44891  11.946  10.394   1.636  0.3053 -0.0864  0.1031
29761W        W44892   0.563  12.274  13.045 -0.1373 -0.3497 -0.0050
29762W        W44893   2.910  17.240  15.252 -0.0442 -0.0317  0.0348
29763W        W44894  17.073   3.866   3.057  0.1104 -0.3244 -0.0726
29764W        W44895  12.110   5.293  16.391 -0.2549 -0.0026 -0.1742
29765W        W44896  13.136   5.756   1.768  0.2015 -0.1659 -0.1861
29766W        W44897   4.153   6.869   2.851  0.3801 -0.1094  0.1317
29767W        W44898   7.515   4.858   1.342  0.0727  0.3644  0.0825
29768W        W44899   6.513  13.449  16.576  0.1706  0.4124 -0.1289
29769W        W44900   4.786   8.477  16.045 -0.1808  0.2788  0.0316
29770W        W44901   2.062   2.832   3.320  0.0510 -0.1590 -0.4967
29771W        W44902  13.325   7.634   2.793  0.2016 -0.0203  0.0183
29772W        W44903   9.454   3.702   3.129 -0.1394  0.2566  0.2856
29773W        W44904  13.024   3.976   3.134 -0.0348  0.0171 -0.1903
29774W        W44905   1.659   7.753   1.186 -0.0251  0.1948 -0.1261
29775W        W44906  15.581  10.216  13.740 -0.0549 -0.1256  0.1412
29776W        W44907  17.141  11.393  11.836  0.1113 -0.1036 -0.0627
29777W        W44908  16.337   1.174  16.062 -0.0933  0.2670  0.0152
29778W        W44909   9.485   1.749  13.282 -0.1021 -0.0285  0.2212
29779W        W44910  11.944   9.205  15.054 -0.0082 -0.0956 -0.0262
29780W        W44911  14.507  15.197  12.506 -0.0592 -0.1954 -0.3370
29781W        W44912   6.003  14.141  13.466  0.2247 -0.3197 -0.4292
29782W        W44913   5.120   0.604   2.254 -0.2471 -0.1024 -0.1925
29783W        W44914  15.955   3.169  15.291 -0.1257  0.2096 -0.0037
29784W        W44915  13.127  17.009   0.843  0.0076  0.2558  0.2403
29785W        W44916  14.944  10.362   2.417  0.0479  0.1023  0.0343
29786W        W44917   7.837   4.907  11.320 -0.1050  0.1869  0.1132
29787W        W44918   7.749   4.512  16.253 -0.0204  0.1464 -0.1973
29788W        W44919  13.749   6.489  13.663 -0.0820 -0.1666  0.0276
29789W        W44920   2.481   0.150   0.747  0.0269 -0.0153  0.1548
29790W        W44921  17.678   6.279  14.329  0.1175  0.2694  0.2029
29791W        W44922  11.496   3.351  11.500 -0.0900 -0.0561 -0.1178
29792W        W44923   9.002   3.490  15.801 -0.0797  0.1527  0.0781
29793W        W44924  11.968  14.325  15.947 -0.1035  0.0436 -0.3469
29794W        W44925  11.705   8.909   4.836 -0.1905 -0.2600  0.0652
29795W        W44926  17.167   5.001   4.988  0.0118  0.0145  0.0360
29796W        W44927   3.488   5.050  14.684 -0.1583 -0.3349  0.0626
29797W        W44928   5.032   6.576  13.563 -0.1219 -0.1078  0.1625
29798W        W44929   2.448   8.582   5.162 -0.0702  0.2128 -0.0061
29799W        W44930   9.872  16.406   0.594  0.1786 -0.2381  0.1469
29800W        W44931   2.752   3.491   4.267 -0.1423 -0.3262 -0.0890
29801W        W44932   6.283  15.720   1.652  0.0104  0.0076 -0.1882
29802W        W44933  15.692   3.322  12.206  0.0420 -0.4341  0.0987
29803W        W44934  15.314   7.528   2.546 -0.1905  0.1574  0.2880
29804W        W44935   9.173   0.735   2.408  0.0619 -0.0155 -0.1936
29805W        W44936   3.674  14.092  16.298  0.1506 -0.0961 -0.0739
29806W        W44937   1.096  17.630   2.777  0.0341 -0.0151  0.0959
29807W        W44938   8.495   8.404   1.885  0.0259  0.2606 -0.1695
29808W        W44939   0.716   2.335  12.544  0.2307  0.0850  0.1172
29809W        W44940   1.263   2.970   1.729 -0.0931 -0.0047  0.1063
29810W        W44941  14.983   5.374  15.350 -0.0350  0.0841 -0.4119
29811W        W44942  15.175   6.546   2.835  0.1449  0.4485  0.2314
29812W        W44943  14.518  11.586  11.576 -0.0153 -0.1305  0.0637
29813W        W44944  13.850   0.815   3.571  0.0161 -0.4290  0.1644
29814W        W44945  14.385   4.994  13.664 -0.2258  0.0931  0.0098
29815W        W44946   9.200   0.180  13.188  0.0251  0.1758 -0.0037
29816W        W44947  16.447  12.000   3.351 -0.0793 -0.4256  0.1410
29817W        W44948  15.325   7.186   0.441  0.2347 -0.2015 -0.0933
29818W        W44949   4.708   3.485  12.172  0.0641 -0.4599  0.0229
29819W        W44950  14.730   6.078  16.093  0.1749 -0.0149 -0.0609
29820W        W44951   1.810   0.425   5.220 -0.0394  0.1272 -0.1004
29821W        W44952  16.954   1.827  13.069  0.1629  0.0725 -0.1839
29822W        W44953  15.910  17.247  16.354  0.1832  0.0637 -0.2559
29823W        W44954   4.493  13.052  13.419  0.0476  0.2747 -0.0372
29824W        W44955  16.918   7.150  11.447  0.2306 -0.0492 -0.0939
29825W        W44956  16.250   9.068  15.576 -0.3401  0.1693 -0.1636
29826W        W44957   4.489   2.314   0.878 -0.4327 -0.0091  0.1547
29827W        W44958   0.594  13.085   0.567 -0.2224  0.2433  0.0984
29828W        W44959  17.203  15.355  13.184 -0.0938  0.0457 -0.2086
29829W        W44960   9.973  12.990  12.035  0.1435  0.0126  0.3261
29830W        W44961   6.683  14.156   3.536  0.0007  0.1974  0.0717
29831W        W44962  10.821  12.743   2.120  0.2593  0.1321 -0.1706
29832W        W44963  15.364  11.102  14.604  0.1939 -0.3402  0.1358
29833W        W44964   7.354   6.165   0.920 -0.1845  0.0397 -0.1360
29834W        W44965  11.037  12.142  11.459 -0.1594 -0.0273 -0.2753
29835W        W44966  12.287  11.073  13.005  0.2054 -0.1269 -0.1089
29836W        W44967  14.981   9.046  13.995  0.1672  0.1709  0.3863
29837W        W44968   8.143   1.620  11.723  0.0020 -0.5793  0.1136
29838W        W44969   9.196   7.531   3.925 -0.1235  0.0505 -0.3776
29839W        W44970   6.310   3.360  11.872  0.1093 -0.1539  0.1293
29840W        W44971   4.154   2.926   3.214  0.0013 -0.3191  0.2503
29841W        W44972   9.341   9.678  13.519  0.0524  0.0932  0.0956
29842W        W44973  14.891   6.702   1.717 -0.0622  0.3179 -0.1097
29843W        W44974   8.629  11.349   3.901  0.0647 -0.1780  0.1623
29844W        W44975   0.374   2.995  13.521 -0.0744 -0.0877  0.2700
29845W        W44976  16.454   4.491  11.748  0.0959 -0.1703 -0.3072
29846W        W44977   2.156   5.294   1.431 -0.1834 -0.0911 -0.1629
29847W        W44978  13.482   6.272  14.047 -0.0184 -0.1969  0.1658
29848W        W44979   6.547  17.296  12.914  0.1939  0.1721 -0.0969
29849W        W44980   5.919   2.034   1.855  0.0611  0.0901 -0.1872
29850W        W44981   3.398  17.100  13.990  0.1871 -0.1463 -0.0568
29851W        W44982   2.369   1.451  13.240 -0.0673 -0.1589 -0.0585
29852W        W44983  15.920  11.519  15.467 -0.1858 -0.1055  0.0022
29853W        W44984  10.823   0.869  16.256 -0.0530 -0.0117  0.0879
29854W        W44985  16.698  16.282  14.801 -0.0419  0.0322 -0.0699
29855W        W44986   4.669  16.925  13.347  0.2738 -0.1167  0.3011
29856W        W44987  12.185   9.329  12.954  0.4814 -0.0693  0.3842
29857W        W44988   5.304   8.170   4.027  0.1883  0.1074 -0.1564
29858W        W44989   9.345   5.732   2.794  0.0126  0.3693 -0.1316
29859W        W44990   3.528   7.468  14.218  0.0427  0.1144  0.0109
29860W        W44991  10.994   3.506  12.294 -0.0420  0.0073 -0.2748
29861W        W44992  14.997  16.723  15.983  0.0865 -0.0135 -0.0816
29862W        W44993   6.511   6.528   0.968 -0.0878 -0.0876  0.1315
29863W        W44994   4.057   2.800   6.109  0.0539 -0.0513  0.2964
29864W        W44995   7.480   4.415   4.993  0.0471 -0.2414 -0.0250
29865W        W44996  17.054   9.276   5.009 -0.2981 -0.1266 -0.2908
29866W        W44997   0.422  11.532  15.095  0.1707  0.3007 -0.0318
29867W        W44998   7.614   2.470   0.860 -0.1225  0.0560 -0.0988
29868W        W44999   0.688   0.753  14.057  0.0558 -0.1507 -0.2552
29869W        W45000   8.099   6.616   1.597 -0.0208  0.0035  0.1004
29870W        W45001  12.694  13.214  14.057 -0.3016  0.1002  0.1031
29871W        W45002  13.271  15.296   0.955 -0.0008 -0.2133 -0.4676
29872W        W45003   3.031   3.068   0.362  0.0050 -0.0244 -0.4282
29873W        W45004   0.144   4.620  14.695  0.0465 -0.0589  0.0082
29874W        W45005   5.466   1.776   1.446  0.1675  0.1027  0.2647
29875W        W45006  15.325  12.016  16.004 -0.0991  0.1514  0.1596
29876W        W45007  16.810  16.516   3.599  0.3926  0.3681 -0.2053
29877W        W45008  17.516  15.921   3.962  0.0623 -0.3429  0.0202
29878W        W45009   2.532  11.808  16.888  0.0268  0.1301  0.2549
29879W        W45010  14.537  15.257   4.503  0.2031  0.2880 -0.0339
29880W        W45011   7.120   8.922   5.323  0.0372 -0.0772  0.0567
29881W        W45012  13.473   7.980  16.059 -0.1425 -0.0439  0.0913
29882W        W45013   1.383  16.240  15.532 -0.2840 -0.1618  0.3183
29883W        W45014  16.248   4.204  14.711 -0.0578 -0.0836 -0.0381
29884W        W45015  14.393   4.574  15.295 -0.2409  0.0276 -0.2781
29885W        W45016   3.950  10.621   1.996  0.2102 -0.2571 -0.3194
29886W        W45017   5.615  14.334   2.109  0.2702  0.2900 -0.2006
29887W        W45018   8.718   5.081  11.391 -0.0966 -0.1841  0.0059
29888W        W45019   3.364   4.346   3.681  0.0722  0.0959  0.0717
29889W        W45020  16.643  10.544   3.208 -0.1829  0.4353  0.1758
29890W        W45021  14.790   1.098   0.429  0.1296 -0.0829  0.2314
29891W        W45022   0.552   2.209  16.848 -0.2631 -0.1733 -0.2571
29892W        W45023   2.475   8.957  15.763  0.1802 -0.1908  0.1791
29893W        W45024   1.711   4.654   1.587 -0.0202  0.0990 -0.0236
29894W        W45025   6.062   4.760   2.513 -0.2420 -0.5646  0.0614
29895W        W45026  14.792  10.988  10.923 -0.0249  0.1878 -0.2551
29896W        W45027   1.613   3.724   4.656  0.1231 -0.0901 -0.2032
29897W        W45028  14.298  11.697   4.598  0.0191 -0.1260  0.0185
29898W        W45029   9.265   9.217   2.190  0.0178  0.0817 -0.0571
29899W        W45030  13.046  11.941   5.999 -0.0040  0.1349  0.2181
29900W        W45031   9.539  14.529   3.346 -0.0375  0.0969  0.0495
29901W        W45032  11.962   8.867   3.835 -0.1408  0.1671  0.0071
29902W        W45033   4.229   7.841   2.824  0.2600  0.0142  0.1856
29903W        W45034   7.715  15.218   0.190  0.1344  0.1171 -0.0713
29904W        W45035  12.382   0.789  16.197  0.0789 -0.1733  0.0528
29905W        W45036  14.813   7.182   0.337  0.0049 -0.1934  0.3053
29906W        W45037   5.588  13.518   2.704  0.1614 -0.1565 -0.0559
29907W        W45038  12.023  12.094   0.912 -0.1586  0.1647 -0.0926
29908W        W45039   6.866  14.910  14.098  0.1195  0.1410  0.1747
29909W        W45040   7.460   4.988  15.542 -0.1182 -0.2228  0.1276
29910W        W45041   3.084   8.114   5.550  0.0549 -0.0524  0.1400
29911W        W45042   4.148  14.560  16.773 -0.1450  0.0728  0.1050
29912W        W45043  10.158   3.742  13.352  0.1102  0.0309  0.2262
29913W        W45044   1.521  14.631   2.602  0.2240  0.0284  0.2393
29914W        W45045   6.523   0.746   4.172  0.0795 -0.1386  0.1101
29915W        W45046   0.293  11.369   4.936  0.0368  0.1107  0.0816
29916W        W45047  12.841   8.546  12.071 -0.1951 -0.0473  0.2188
29917W        W45048  10.842   1.706  12.992 -0.0369 -0.0337 -0.1641
29918W        W45049  16.720   2.258   2.494  0.2295  0.2638 -0.2464
29919W        W45050  13.254   1.449  16.340 -0.0247 -0.0116 -0.0403
29920W        W45051  14.256   4.097  14.559 -0.1121 -0.1273 -0.1028
29921W        W45052  12.343   4.638  11.329 -0.1499 -0.1574  0.2905
29922W        W45053  13.915   4.143  12.514 -0.0385 -0.1151 -0.2542
29923W        W45054  14.468  11.544   1.943 -0.2102  0.0397 -0.1301
29924W        W45055   1.871   8.957  14.694  0.2871  0.1582  0.0891
29925W        W45056   7.248  15.945   2.801  0.0960  0.2214 -0.1005
29926W        W45057  16.576   5.337   0.642 -0.1216  0.1783  0.2352
29927W        W45058  17.474  14.607  12.690 -0.2102 -0.2408 -0.0199
29928W        W45059   1.355  10.568  15.316  0.1206 -0.1323  0.0051
29929W        W45060  10.406  10.622  11.531 -0.1190  0.0453  0.0771
29930W        W45061   6.906   0.583   1.835 -0.1327  0.0203 -0.1108
29931W        W45062   3.769   5.701  15.123 -0.1830 -0.2331 -0.0068
29932W        W45063   3.178  13.455  14.180  0.2734 -0.0721  0.0894
29933W        W45064  10.897  10.060  14.735 -0.1879  0.2391  0.1811
29934W        W45065  13.297   7.062   3.340  0.2953 -0.1090  0.2335
29935W        W45066  14.847   1.291   5.742  0.2266  0.5355  0.2435
29936W        W45067   7.688  16.614  14.985  0.0604 -0.1084 -0.0105
29937W        W45068  15.121  14.849  15.604 -0.0430 -0.0284 -0.0920
29938W        W45069  13.986   3.665  13.860 -0.1038  0.3178 -0.1681
29939W        W45070   7.682   5.573   0.642 -0.1510  0.0781  0.1557
29940W        W45071  14.361   3.110   1.142  0.1130  0.0413  0.3563
29941W        W45072   8.831   0.210  14.542  0.2044  0.4470  0.0179
29942W        W45073   3.026   4.325  11.907  0.5250 -0.2353  0.1363
29943W        W45074   3.414   5.354   3.998  0.1461  0.0802 -0.0552
29944W        W45075   2.835  12.740   4.563 -0.1828  0.3761  0.2785
29945W        W45076   3.432  10.036  12.799 -0.0385  0.5979  0.1696
29946W        W45077  11.439   2.893  16.512  0.1007  0.0977 -0.1039
29947W        W45078   1.455   9.568  12.193  0.0910  0.1006  0.1965
29948W        W45079   4.676   2.336   1.355  0.1325 -0.0420  0.2704
29949W        W45080  13.885   4.757   4.071 -0.1709  0.0605 -0.1639
29950W        W45081  16.239   9.018  12.167  0.2985  0.1269  0.0381
29951W        W45082  17.111   8.374   6.231 -0.0318  0.1484  0.1216
29952W        W45083  10.659   6.902   2.746 -0.0057  0.0318  0.1182
29953W        W45084  11.995   2.511   5.591 -0.1182  0.0826  0.0595
29954W        W45085  15.618  14.739   2.583  0.0629 -0.0642  0.1111
29955W        W45086   1.486  15.947   3.818 -0.2301 -0.0215 -0.0258
29956W        W45087  15.799  13.161  12.223  0.0102  0.0025  0.0074
29957W        W45088   1.791  16.050   3.378  0.2676  0.1040  0.0086
29958W        W45089  11.836  16.893  13.408  0.1504 -0.1108 -0.0006
29959W        W45090  15.785   6.896   3.867 -0.0569 -0.0581 -0.1004
29960W        W45091  13.015  10.012   4.388 -0.0668 -0.0288 -0.0447
29961W        W45092  15.109   7.606   5.117  0.0134 -0.0908  0.5438
29962W        W45093  12.076  14.212  14.443 -0.2112  0.0446 -0.1090
29963W        W45094   9.736  11.788  14.054 -0.0149  0.1620  0.0676
29964W        W45095   0.432   2.575   1.912  0.0280 -0.0867 -0.0849
29965W        W45096  11.747   1.673   6.645 -0.2570  0.1159  0.0689
29966W        W45097   3.315  14.637   5.012 -0.1374  0.1618  0.0561
29967W        W45098   9.719  10.911   6.168  0.2460  0.1657  0.1416
29968W        W45099  11.193   7.213  13.525  0.3487 -0.3125 -0.2535
29969W        W45100   6.542   0.761  13.820 -0.3770 -0.2827 -0.0205
29970W        W45101   4.415  11.682  14.053  0.0588  0.1116 -0.0456
29971W        W45102  10.797  14.019  15.657 -0.0848  0.0741  0.2340
29972W        W45103  13.250   3.898   5.728 -0.2323  0.1755  0.2303
29973W        W45104  13.693   2.660   2.242  0.1601  0.0373  0.0213
29974W        W45105   6.295   0.398   1.336  0.1858 -0.1595  0.1164
29975W        W45106   9.547   9.819  15.582  0.0302  0.1460 -0.1886
29976W        W45107  17.710   2.716  15.161  0.2394 -0.2842  0.1111
29977W        W45108   7.530   1.662  14.897 -0.1525  0.0119  0.0074
29978W        W45109   6.267  15.299  14.068  0.1834 -0.0912  0.3229
29979W        W45110   9.085  12.447   0.513  0.4097  0.1765  0.0025
29980W        W45111  15.213   6.691  15.024 -0.0454 -0.1091 -0.0039
29981W        W45112   0.015  12.448   3.206  0.1562 -0.1987 -0.0095
29982W        W45113  16.620  14.677   5.612  0.2602  0.1059 -0.1221
29983W        W45114   6.055  15.615   5.016 -0.1210  0.2444  0.0014
29984W        W45115  11.772  16.367   3.438  0.2971  0.2132 -0.1107
29985W        W45116  11.654  14.317   5.146 -0.1335  0.1798 -0.0446
29986W        W45117  15.913   7.497   1.998 -0.0582 -0.1351 -0.0627
29987W        W45118  12.904   4.724   4.343 -0.1864  0.0001 -0.0590
29988W        W45119  14.618  14.216   4.977 -0.1251  0.2631 -0.0296
29989W        W45120   8.551  15.001   2.336  0.2229 -0.1537 -0.2197
29990W        W45121   1.570  12.599   0.410 -0.1335  0.1987 -0.1435
29991W        W45122  15.464   4.288   2.527 -0.3038  0.1349  0.3011
29992W        W45123  10.256   3.482   3.581  0.1545  0.0091  0.1758
29993W        W45124  13.289  11.400  15.226  0.0380 -0.1842 -0.2904
29994W        W45125   7.787   3.181   4.594  0.1740 -0.2653 -0.0373
29995W        W45126   9.315   2.505   3.505  0.0316  0.0815 -0.2087
29996W        W45127  15.875  14.003  13.905 -0.0672  0.3250  0.2117
29997W        W45128   9.238   4.579   0.583 -0.2145 -0.0640  0.0941
29998W        W45129   6.339  15.336  13.539  0.0161 -0.4310  0.0370
29999W        W45130  17.040   9.190  15.320 -0.0478  0.0301 -0.1928
30000W        W45131   6.779   7.896   4.374 -0.0947  0.0980  0.0376
30001W        W45132  10.228  16.750   0.666 -0.0299 -0.0245 -0.1574
30002W        W45133   8.583   5.727   0.883 -0.3099  0.0611  0.1238
30003W        W45134  13.508  16.064   6.442 -0.3631  0.1732 -0.0111
30004W        W45135   6.381   9.685   3.244  0.1971 -0.2045 -0.0186
30005W        W45136   6.643   9.701   5.404  0.0056 -0.0335  0.2520
30006W        W45137   9.679   4.468   4.790 -0.0307  0.0789  0.2292
30007W        W45138   6.258   0.354  15.654  0.1620 -0.0595  0.1962
30008W        W45139  16.678   8.691   6.062 -0.2667 -0.0277  0.0593
30009W        W45140   0.560   4.350   2.518 -0.0537 -0.2152  0.1486
30010W        W45141   3.343  13.560   2.232 -0.2240 -0.1198 -0.1437
30011W        W45142  16.530   7.467  14.951  0.0184  0.1544  0.0915
30012W        W45143   0.658   8.227  11.584 -0.2137  0.5888  0.0659
30013W        W45144  16.283   3.929  13.882  0.0079 -0.0520  0.1530
30014W        W45145   0.470   5.288   3.589  0.0437  0.1843  0.2481
30015W        W45146   6.049   1.639  15.356  0.0806 -0.0593 -0.3867
30016W        W45147  12.234   6.840  14.812 -0.1187 -0.1766  0.0286
30017W        W45148  10.177  11.322   4.505  0.2142  0.1660 -0.3672
30018W        W45149   5.626  11.812  12.028  0.1075 -0.1021  0.1544
30019W        W45150  10.648   7.522   3.135 -0.0744  0.0316  0.1621
30020W        W45151   5.302  13.490  14.666  0.2311  0.0496  0.3978
30021W        W45152   2.951  15.828  16.623 -0.1577 -0.0912  0.1060
30022W        W45153  16.240  15.037  16.446 -0.1738  0.1880 -0.0705
30023W        W45154  10.345   4.219  16.263  0.0692  0.1087 -0.1786
30024W        W45155  13.674  13.957   3.229  0.1467  0.0039 -0.0390
30025W        W45156   4.180   5.975   1.776 -0.0711  0.0358 -0.0085
30026W        W45157   8.555   7.153  13.122  0.0045  0.4946 -0.1133
30027W        W45158   1.637   8.955  16.063  0.0479  0.1785 -0.0546
30028W        W45159   9.300   1.213  13.486  0.0542 -0.0176 -0.2931
30029W        W45160   8.829  11.344  16.524 -0.0764 -0.3659 -0.1476
30030W        W45161  10.232   1.094  14.920 -0.1487  0.0629 -0.1467
30031W        W45162   8.221   1.765  10.456 -0.0932  0.1765 -0.1017
30032W        W45163   7.351  17.341   3.547 -0.3273 -0.0276  0.1612
30033W        W45164   0.785   9.952  11.809  0.1995  0.1210 -0.1077
30034W        W45165   1.387  14.628  12.994  0.0087  0.1067 -0.4423
30035W        W45166   9.412   7.066  11.804 -0.1741 -0.0020 -0.1713
30036W        W45167   3.812  15.063  13.714  0.0960 -0.2193 -0.0686
30037W        W45168  13.438  15.403   4.018  0.1063 -0.0703  0.1333
30038W        W45169  14.127  17.268  13.098  0.1502  0.1351 -0.3739
30039W        W45170   6.690   0.353  14.144  0.0294 -0.2087 -0.0119
30040W        W45171   3.944  11.989  14.863  0.0442 -0.1934  0.2647
30041W        W45172  12.305  11.629   2.496 -0.1102  0.0504 -0.1735
30042W        W45173  12.523  17.712  15.122  0.0066  0.1892 -0.0139
30043W        W45174   6.922   1.658   4.103  0.1152  0.2632 -0.0725
30044W        W45175   6.260  12.053  13.017 -0.1493  0.0844 -0.1819
30045W        W45176  11.096   4.730  15.012  0.2755  0.0787  0.0891
30046W        W45177   8.295   5.049  12.251 -0.1663 -0.2189  0.1515
30047W        W45178  15.227   6.555   1.047  0.2700  0.2009  0.0227
30048W        W45179   9.329  13.534   5.123  0.1082 -0.0182  0.2701
30049W        W45180   4.050   0.967  12.874 -0.0497  0.2595 -0.2067
30050W        W45181   9.623  12.661  16.668  0.1449  0.2336  0.1611
30051W        W45182   9.894   6.164   5.562 -0.0815  0.1331 -0.2928
30052W        W45183   7.896  13.938  13.008  0.0828 -0.1380 -0.2287
30053W        W45184   4.249  17.326   0.604 -0.3464  0.0353 -0.1422
30054W        W45185   1.796  11.673   0.529  0.2041 -0.0356 -0.0952
30055W        W45186  15.686   9.376  14.135  0.0091 -0.2285  0.0196
30056W        W45187   1.696  14.154  12.160 -0.1710 -0.1228 -0.1926
30057W        W45188   0.958  12.992  12.174  0.0700 -0.0973  0.0078
30058W        W45189  17.093   7.068   5.497  0.0122  0.1595 -0.0996
30059W        W45190  13.021   6.266  11.819 -0.5171  0.0912 -0.0636
30060W        W45191  13.158  12.759   2.837  0.0590 -0.3326  0.1500
30061W        W45192   8.510   6.665   3.758  0.0700  0.1230 -0.1726
30062W        W45193   8.449   5.979  13.264 -0.0751  0.0539 -0.0298
30063W        W45194   6.503   4.724  11.173 -0.0935 -0.0215 -0.3958
30064W        W45195   1.441   3.899   5.429  0.1498  0.2480  0.0249
30065W        W45196  10.964   6.643   3.358  0.0758 -0.1926  0.1736
30066W        W45197  10.209   8.839   0.209 -0.1636 -0.0118  0.1743
30067W        W45198   0.306   3.812   4.121  0.0838  0.0436  0.0434
30068W        W45199  11.523  11.455   4.723 -0.1591 -0.0890 -0.0036
30069W        W45200   2.708  11.258  14.515  0.1662 -0.0484 -0.0873
30070W        W45201   6.612   8.428   3.721  0.3131 -0.1339  0.1320
30071W        W45202  16.477   5.888   3.888 -0.0049 -0.1341  0.0472
30072W        W45203   6.552   5.361  15.855  0.0391 -0.2362 -0.1219
30073W        W45204   3.912  16.742  14.017 -0.0797  0.0310  0.3351
30074W        W45205   8.207   1.456   4.163  0.1381 -0.1680 -0.0432
30075W        W45206  14.132  17.404   6.338  0.2043 -0.1084 -0.1998
30076W        W45207   7.047   1.101  14.636  0.1265  0.0376  0.1681
30077W        W45208  10.130   3.302  11.555  0.0085 -0.2667 -0.0167
30078W        W45209   4.578  11.633   4.604 -0.1109 -0.0657 -0.1301
30079W        W45210   8.013   2.504   3.851 -0.1978 -0.0625  0.0397
30080W        W45211  17.683  15.611   5.479 -0.1222 -0.0202  0.0143
30081W        W45212  16.774  16.484  14.242 -0.0385 -0.0340  0.2230
30082W        W45213   4.593   8.166  15.520  0.0166 -0.1510 -0.1406
30083W        W45214  17.250  11.212   5.412 -0.0849  0.0634 -0.0581
30084W        W45215   6.138   7.673   1.204  0.0210  0.1980  0.2359
30085W        W45216   8.246   0.993  16.019  0.1343 -0.1925 -0.1145
30086W        W45217   7.489  16.858  12.225 -0.1045 -0.0890  0.3101
30087W        W45218   9.730   7.218  15.451 -0.1571 -0.0562  0.1242
30088W        W45219  16.948   0.326   5.531 -0.1671  0.0804 -0.0191
30089W        W45220  15.717   1.075   1.072  0.3022 -0.0005  0.2472
30090W        W45221  15.336   9.105  14.406 -0.1180 -0.2540  0.4070
30091W        W45222   2.202   8.031  11.038 -0.1225 -0.0463 -0.0406
30092W        W45223  10.393   1.186   2.805 -0.3115  0.0980 -0.2369
30093W        W45224   2.466   9.818   2.762 -0.1661 -0.0658  0.0418
30094W        W45225  13.320  12.807  14.717  0.0928 -0.0637 -0.0683
30095W        W45226   0.181   4.098  14.355  0.0288 -0.3201  0.2317
30096W        W45227  17.042   4.201   4.059  0.1039 -0.3270  0.1433
30097W        W45228  17.637   1.270   3.353 -0.0200  0.2315  0.0431
30098W        W45229   4.040  10.123   1.855 -0.0133 -0.1015 -0.0217
30099W        W45230   2.255  10.668  12.682 -0.0348 -0.0665  0.0841
30100W        W45231   3.994  17.701  16.680 -0.2598  0.0382  0.0293
30101W        W45232   1.082  15.821  14.607 -0.2146 -0.1580 -0.0315
30102W        W45233   4.541  11.743   2.372  0.0197  0.0146 -0.2159
30103W        W45234  16.522  15.522  13.086 -0.2018 -0.0973  0.1633
30104W        W45235  15.176  12.277   5.575 -0.0949 -0.3603 -0.2371
30105W        W45236   5.277  14.449   5.016  0.1083 -0.0190  0.3025
30106W        W45237  12.368   8.663   1.463 -0.0995 -0.1376 -0.0315
30107W        W45238   6.125   5.905   2.568  0.2899 -0.0716 -0.2468
30108W        W45239   1.409  13.160  13.752  0.0898 -0.3229  0.0245
30109W        W45240  13.065   1.434  14.366  0.2148 -0.2580  0.1506
30110W        W45241   5.409   3.742   4.954 -0.1362  0.7131 -0.1542
30111W        W45242   8.508  10.977   0.432 -0.0044  0.1657  0.2189
30112W        W45243   2.644  13.382  12.025  0.1827 -0.1504 -0.1232
30113W        W45244   1.628  13.798   5.336 -0.0292 -0.2608 -0.0434
30114W        W45245   7.544   7.993  14.792 -0.0250  0.2987 -0.1681
30115W        W45246   4.719   1.915  15.342  0.0881  0.0349  0.2425
30116W        W45247   6.697   8.044  15.649 -0.0204  0.2223 -0.0541
30117W        W45248  10.918  15.478  14.751  0.2954  0.1962 -0.0409
30118W        W45249  10.236   7.637  16.129  0.1377  0.0380  0.0236
30119W        W45250   9.220   8.907   5.098 -0.1475 -0.2127  0.2057
30120W        W45251  11.481  12.919   4.974  0.1681 -0.0067 -0.2764
30121W        W45252   5.162   8.531  12.605 -0.3412  0.3098 -0.0503
30122W        W45253   6.283   8.856   1.578  0.1006  0.2301  0.1008
30123W        W45254   9.863  15.263   3.910 -0.1289  0.0774  0.0150
30124W        W45255   5.478   6.430   4.188 -0.1011 -0.0312 -0.1777
30125W        W45256  16.806  14.686  16.695 -0.0873  0.1213  0.0666
30126W        W45257  10.083   9.593   5.189  0.2117 -0.0606 -0.0886
30127W        W45258  12.936   3.863   3.613  0.2334 -0.0027 -0.1179
30128W        W45259   3.832  15.424  15.616  0.1991  0.2787  0.4064
30129W        W45260   9.135   8.415  11.052 -0.1715  0.1644 -0.1018
30130W        W45261   1.375   1.868   0.940  0.1460 -0.0144  0.0705
30131W        W45262   1.607  13.262   2.379 -0.1853  0.1880  0.2922
30132W        W45263  14.327  14.547   0.620  0.1607  0.2808  0.0129
30133W        W45264  10.330   5.432  16.725 -0.1253  0.1161  0.1192
30134W        W45265  15.836   0.894  13.039  0.5875  0.1132  0.0246
30135W        W45266  17.093   2.341  16.801  0.0447  0.0106 -0.0585
30136W        W45267   4.337  12.788  15.765 -0.0815  0.3140 -0.2263
30137W        W45268  13.498  16.115  13.490  0.0817 -0.1387 -0.0862
30138W        W45269  13.469   6.588  15.061  0.2050 -0.0949 -0.3481
30139W        W45270   3.232  13.465   3.871  0.1465  0.2489  0.0648
30140W        W45271   0.375   2.059  10.939 -0.3104  0.0365 -0.2378
30141W        W45272   3.063   6.598  16.360 -0.0647 -0.2542 -0.4478
30142W        W45273   5.955   3.856   4.233  0.0928 -0.0349  0.1942
30143W        W45274  15.962  17.056   5.413 -0.2147  0.1658 -0.0348
30144W        W45275   5.484   7.272   1.520 -0.1139  0.2336 -0.1834
30145W        W45276  13.637  12.731  16.759  0.0755  0.2088 -0.1923
30146W        W45277  16.834   3.634   1.200 -0.0655  0.3335 -0.4564
30147W        W45278   0.519   9.341   5.877  0.1824  0.4875  0.0657
30148W        W45279   2.500   3.231  10.112  0.0501  0.1616  0.1408
30149W        W45280   9.721  12.193  16.461  0.0197  0.5153 -0.0722
30150W        W45281   9.523   1.730  16.652 -0.1244  0.1072  0.0446
30151W        W45282  14.404   9.062   1.051  0.0425 -0.0041 -0.3029
30152W        W45283   0.760   3.049   0.692 -0.1304  0.3079  0.0154
30153W        W45284  13.065   6.389   2.713 -0.0555  0.1909 -0.2458
30154W        W45285  10.793   1.178   1.859 -0.2558  0.0413 -0.0942
30155W        W45286   8.124   6.521   2.856  0.0787 -0.0909 -0.0856
30156W        W45287  17.559  14.550  15.484  0.2655 -0.1640 -0.1518
30157W        W45288  12.430   9.236  14.986 -0.1334 -0.0758  0.0120
30158W        W45289  10.909  14.172  14.371 -0.1239  0.1572  0.1931
30159W        W45290   6.047  14.521   0.680  0.1481 -0.1955 -0.1157
30160W        W45291  11.104  14.558  12.286 -0.3093  0.2592  0.2910
30161W        W45292  10.031   4.379  11.808  0.0713 -0.0215 -0.1652
30162W        W45293   5.541  17.176   3.337 -0.0262  0.0701 -0.0789
30163W        W45294  13.640  15.548  12.884 -0.1491  0.3183  0.0648
30164W        W45295  15.682  12.137   2.899 -0.1030  0.0148 -0.1799
30165W        W45296  15.020  10.280   6.239 -0.1699  0.1307  0.3157
30166W        W45297  14.655   6.725   3.583  0.2616 -0.2376 -0.2377
30167W        W45298   5.169   2.394   1.367 -0.0614  0.0684 -0.1377
30168W        W45299   1.029   1.524  15.680  0.1605 -0.4560 -0.0347
30169W        W45300  16.211   0.070  16.029 -0.0725  0.1526  0.3742
30170W        W45301  16.797   6.518   4.351  0.0782  0.0297  0.4077
30171W        W45302  15.328   1.479   2.332  0.5327  0.1830  0.1585
30172W        W45303   4.095  16.376   3.829 -0.0056 -0.0742  0.2860
30173W        W45304   9.196  10.834   2.133 -0.1461 -0.0480  0.0821
30174W        W45305   9.329   6.631  13.578 -0.0920 -0.0233  0.0793
30175W        W45306   7.009   6.896  13.266  0.2395 -0.2813  0.1507
30176W        W45307   5.118   5.860   0.373 -0.0685 -0.0546 -0.0355
30177W        W45308  16.662   3.292   5.068 -0.0430 -0.2619  0.2567
30178W        W45309   8.400   7.068  16.664  0.1864 -0.0247  0.0459
30179W        W45310  12.699  10.076  16.873  0.1252 -0.0472 -0.1403
30180W        W45311   0.745  11.747  12.994  0.0528 -0.0363  0.0826
30181W        W45312  15.542  12.575  16.210  0.0139  0.1825 -0.2016
30182W        W45313   5.474  17.584   5.028  0.4321 -0.0870  0.0889
30183W        W45314  16.303   9.331   3.840  0.3350 -0.0623 -0.1378
30184W        W45315   6.802   2.100  16.356  0.2372 -0.2788 -0.0292
30185W        W45316   9.769   3.579  10.752  0.2197 -0.0843  0.2083
30186W        W45317  13.662  13.832  16.616 -0.2154  0.0731 -0.0029
30187W        W45318   5.283   0.219  13.395 -0.1258 -0.0366 -0.0621
30188W        W45319   6.118  14.908   5.476  0.1334  0.1049  0.2510
30189W        W45320   3.571   7.210   1.458  0.1213  0.0455 -0.0823
30190W        W45321   8.767   1.805   2.959 -0.0968 -0.0811 -0.1525
30191W        W45322  17.470  15.279   0.179  0.3416  0.1033  0.0024
30192W        W45323  15.118   6.416   4.986  0.1361 -0.1312  0.2459
30193W        W45324   3.871   3.809  15.188 -0.2252  0.1654 -0.0558
30194W        W45325  10.764   6.961   1.469  0.1104  0.0753 -0.0233
30195W        W45326   8.848   4.281  13.898  0.1366 -0.1549 -0.0820
30196W        W45327  14.009   9.492   0.375 -0.1950 -0.2221  0.1578
30197W        W45328   5.734   3.322  14.462  0.0525 -0.0552  0.0425
30198W        W45329  13.014  17.465   2.937 -0.4132 -0.1654 -0.2678
30199W        W45330   7.020   9.774  13.010  0.1262 -0.2032  0.2139
30200W        W45331  16.248   7.003  12.456 -0.0467 -0.0074 -0.0762
30201W        W45332  16.259   8.269   2.125  0.0056 -0.0157  0.0576
30202W        W45333   2.708  15.098   2.966 -0.1472  0.0750 -0.1737
30203W        W45334  10.520  10.256   2.665  0.1945 -0.1450  0.0725
30204W        W45335   8.489  16.991  14.456 -0.1464  0.1322  0.2382
30205W        W45336  15.488  12.814  12.302  0.0736  0.0071  0.0382
30206W        W45337  13.654  13.390  16.356 -0.0044 -0.0225  0.0898
30207W        W45338  17.125  16.025  15.926  0.0631 -0.2229  0.1248
30208W        W45339   4.607  17.072  15.211 -0.1566 -0.2580 -0.3388
30209W        W45340   6.399   4.860  15.910  0.1115  0.2162 -0.1253
30210W        W45341   5.407  10.975   1.186 -0.0947  0.1842  0.1755
30211W        W45342   4.183  16.417   1.367 -0.2388 -0.1004 -0.3008
30212W        W45343  14.040   2.812  12.187  0.3404  0.0432 -0.0381
30213W        W45344  11.574   7.816  15.125  0.0018 -0.2239 -0.2019
30214W        W45345  14.697  14.949   6.417  0.0453 -0.3601  0.0868
30215W        W45346   3.608   9.329   3.679 -0.1331 -0.0533  0.0722
30216W        W45347  13.716   9.252  11.731 -0.0641 -0.0982 -0.2178
30217W        W45348   7.549  15.278   3.414  0.0525  0.0363  0.5093
30218W        W45349   5.413  13.258  13.112  0.1068 -0.2715  0.0282
30219W        W45350  13.896   9.939   3.538  0.2313  0.0554 -0.0054
30220W        W45351   4.783  15.299  15.963 -0.1051  0.0434 -0.2714
30221W        W45352  17.410   1.023   1.939 -0.0577 -0.0044 -0.0472
30222W        W45353  16.725  14.770  14.948 -0.0228  0.2494  0.2193
30223W        W45354   0.353  15.302   6.730  0.3660  0.3094  0.2029
30224W        W45355   1.792  15.574   3.220 -0.1988 -0.1408 -0.1320
30225W        W45356   3.786  12.110   0.615  0.1847  0.2907  0.2039
30226W        W45357   4.673   7.599   2.917 -0.0243 -0.0168  0.0546
30227W        W45358  11.010  10.514  14.572  0.0118 -0.1173 -0.0581
30228W        W45359   3.888   0.329   3.553  0.2125 -0.0272 -0.0741
30229W        W45360   3.816   1.618  16.738 -0.1675  0.0952 -0.0670
30230W        W45361  10.708  14.920   0.873 -0.0193 -0.1807 -0.0425
30231W        W45362   6.616  14.440   3.069 -0.0156 -0.0845 -0.0033
30232W        W45363  17.490   7.798  16.266  0.1790 -0.1833  0.0230
30233W        W45364  11.779  16.230  11.276 -0.0676 -0.3153  0.0542
30234W        W45365  12.189   8.455  10.959 -0.0539 -0.0354 -0.1691
30235W        W45366   4.305  10.419  14.856  0.3397  0.2439  0.0821
30236W        W45367  10.173   0.977  16.670 -0.3775 -0.1627  0.2799
30237W        W45368   3.683  10.197   0.303 -0.0023 -0.0868 -0.2449
30238W        W45369   1.706  13.282  11.927  0.1746 -0.2337 -0.0107
30239W        W45370   5.520   4.870   1.359 -0.0386  0.2227  0.2154
30240W        W45371   6.425   1.728   2.754  0.1415  0.0219 -0.1636
30241W        W45372   9.813   3.294   2.959 -0.4076  0.0527 -0.0574
30242W        W45373  12.244   2.594  16.218  0.0881 -0.1084 -0.1380
30243W        W45374   9.692  10.480  14.253  0.2482  0.0361 -0.2782
30244W        W45375  11.576  15.412   2.272 -0.3911  0.1539  0.0630
30245W        W45376   6.519   3.906   4.220 -0.0913 -0.0434  0.0833
30246W        W45377   3.161   7.020   3.654  0.1657  0.1546  0.2138
30247W        W45378  16.538   1.676   1.286  0.0306 -0.1907 -0.1435
30248W        W45379  15.383  13.860   2.563  0.1227  0.1810 -0.2233
30249W        W45380   3.690   9.959  14.210 -0.1463 -0.0217  0.1390
30250W        W45381   0.564   2.763   2.871  0.2603 -0.2534  0.0772
30251W        W45382  11.331   1.258  12.775  0.1680  0.0616 -0.3585
30252W        W45383   9.403   2.751  13.543  0.1227 -0.0607  0.0755
30253W        W45384   7.056   4.813  12.886  0.2197  0.0644 -0.0836
30254W        W45385   8.001  13.810   5.622  0.0597  0.0137 -0.1303
30255W        W45386   4.890   6.844  14.551  0.0778  0.0923  0.2855
30256W        W45387   1.582   0.550  14.588  0.0747 -0.1253  0.0652
30257W        W45388   5.241   4.312  16.613 -0.2793 -0.0684 -0.3897
30258W        W45389   6.877   2.401  14.150  0.1931  0.0885  0.1806
30259W        W45390  16.909   7.351  11.959  0.1162 -0.1737 -0.3092
30260W        W45391  17.499   7.641  16.772  0.2691  0.1020  0.2509
30261W        W45392   4.328   1.900  13.661 -0.1581  0.5012  0.2475
30262W        W45393   6.829  11.317   2.974  0.0892  0.0071 -0.2034
30263W        W45394   4.292  15.741   4.779 -0.3003  0.2696 -0.0291
30264W        W45395  16.523  15.939  11.537  0.1016 -0.0068  0.1472
30265W        W45396   6.370  16.528   1.989  0.1403  0.0659 -0.1300
30266W        W45397  15.748   9.091  14.751  0.0212  0.0809  0.3465
30267W        W45398  11.145   3.762  11.488 -0.4915  0.5161 -0.0075
30268W        W45399   2.627   7.284   1.619  0.0879  0.1335 -0.0832
30269W        W45400   8.418   7.520  11.438 -0.0579  0.0680  0.0969
30270W        W45401   1.880  16.966   1.729  0.3540 -0.2240 -0.2206
30271W        W45402  11.119   8.902  14.043 -0.2395 -0.0570 -0.0152
30272W        W45403   2.717   9.226  15.083  0.0035  0.3024  0.0831
30273W        W45404   9.923   0.628   1.455  0.0577  0.1411 -0.0785
30274W        W45405   7.159   0.843   0.081 -0.1802 -0.1371 -0.3993
30275W        W45406   9.921  16.592  15.886 -0.4594 -0.1425  0.2821
30276W        W45407   8.892   3.339   1.016 -0.2946 -0.1918 -0.0606
30277W        W45408   5.692   6.087   0.452  0.0174 -0.0954  0.0240
30278W        W45409  10.106   4.943  11.259  0.0736 -0.1259  0.0620
30279W        W45410  11.725  12.503  13.259  0.0925  0.2707  0.1698
30280W        W45411   6.381   2.157   2.938 -0.0062 -0.0272 -0.2395
30281W        W45412   4.050  10.073  11.552 -0.4218 -0.1322  0.1251
30282W        W45413   3.840  12.039  13.963 -0.2815 -0.0482  0.1174
30283W        W45414  16.423   5.241   2.714  0.0781  0.0180  0.1753
30284W        W45415   8.344   1.815  12.263 -0.2993  0.2950 -0.0520
30285W        W45416   6.578   8.263   3.201  0.0214 -0.0580  0.3203
30286W        W45417   6.594  14.272  12.616  0.1657 -0.2822  0.0178
30287W        W45418  11.574   9.102  12.455 -0.0871 -0.2010  0.2479
30288W        W45419  11.699  11.367  16.348  0.0571  0.0035  0.0188
30289W        W45420  16.957  15.798  13.160 -0.0057 -0.5063 -0.1436
30290W        W45421   7.179   2.782   6.032  0.0522 -0.1796 -0.0995
30291W        W45422  15.246  16.886   0.939 -0.0981  0.0055  0.0332
30292W        W45423  14.137   1.861  15.109  0.1618  0.1635 -0.1868
30293W        W45424   2.210   1.558   2.116  0.1836 -0.1973 -0.0619
30294W        W45425  14.107  16.271   3.296 -0.2413  0.1100  0.1763
30295W        W45426   6.445   2.249  13.732 -0.1797 -0.1288 -0.2924
30296W        W45427   6.033  12.422  12.732  0.0691  0.0412 -0.2169
30297W        W45428  17.226  15.296   6.164 -0.0462  0.0232 -0.3159
30298W        W45429  17.686   8.203   4.917 -0.0422  0.3167 -0.1677
30299W        W45430   6.477  12.091   5.177  0.0530  0.0033  0.1312
30300W        W45431  12.664   4.529   1.355  0.2517  0.0481  0.0344
30301W        W45432  15.371  14.347   0.513  0.1013  0.0423 -0.1260
30302W        W45433  16.654   9.659   5.946  0.2623 -0.1482  0.0464
30303W        W45434  12.678  11.474  14.778 -0.1304  0.2764 -0.1101
30304W        W45435   6.950   3.822  13.160  0.0885  0.1227 -0.0421
30305W        W45436   0.730   3.424   3.345  0.0447  0.1708 -0.1879
30306W        W45437  16.598  12.443  16.736 -0.1482  0.0930 -0.3145
30307W        W45438  11.764  11.402  15.863 -0.3415  0.1129 -0.1431
30308W        W45439  12.206  13.794  10.539  0.0955  0.1332 -0.0982
30309W        W45440   4.096   2.723   4.696  0.1163 -0.1521  0.1191
30310W        W45441  17.491   7.391  14.068  0.0502 -0.1086  0.2581
30311W        W45442  13.864   1.105   1.412  0.0311 -0.1324  0.0498
30312W        W45443  15.990  14.380  15.843 -0.1563  0.0207 -0.2427
30313W        W45444  14.722   9.406   0.948 -0.2270 -0.0577  0.0888
30314W        W45445   8.770   6.419  12.009  0.1052  0.1625 -0.0686
30315W        W45446   3.831   5.280   0.660  0.0424  0.2185 -0.0807
30316W        W45447  12.239  14.259   1.698 -0.1391 -0.0150 -0.2360
30317W        W45448   8.194  11.301  12.711 -0.1682 -0.3214  0.1248
30318W        W45449   0.297   2.108   3.497  0.0191  0.1158  0.1095
30319W        W45450   1.388   0.128   6.501 -0.1065 -0.2086  0.2720
30320W        W45451   2.363   1.122   4.205 -0.3488 -0.0912  0.2427
30321W        W45452  10.669   5.028  15.091  0.0493 -0.1941  0.0075
30322W        W45453   4.844   1.896  12.526  0.1598  0.1551  0.2858
30323W        W45454  16.391   0.191  13.822  0.0261  0.3042  0.0322
30324W        W45455   3.337   0.003  13.069 -0.1442 -0.2635  0.0043
30325W        W45456   1.719  10.740   5.669 -0.1959 -0.0010 -0.1656
30326W        W45457  10.155   7.952  16.828  0.0653 -0.0705  0.1371
30327W        W45458   9.270  12.650  13.954  0.1400  0.0862 -0.1603
30328W        W45459  13.556   2.430  13.609  0.0471  0.2289  0.0107
30329W        W45460   3.775   4.633  13.700  0.0382 -0.2300  0.0767
30330W        W45461  16.638  14.817  16.256  0.5323 -0.1482 -0.2057
30331W        W45462   4.250  13.832   1.760 -0.0544 -0.3498  0.0722
30332W        W45463   5.756   7.848  14.535  0.0041  0.0470  0.1704
30333W        W45464   4.660  11.733   1.479  0.0241 -0.1618 -0.0634
30334W        W45465   7.529  15.216  12.410  0.4674 -0.3276 -0.1737
30335W        W45466   9.376   0.039   5.530 -0.0194 -0.1011 -0.1333
30336W        W45467  12.580   8.930  16.482 -0.0731  0.0438  0.1969
30337W        W45468  16.991  10.807  13.758 -0.1191  0.2035  0.0551
30338W        W45469   4.311   5.457  14.649 -0.0494  0.1194  0.0644
30339W        W45470   7.613  11.986   2.011  0.0685 -0.0349  0.2843
30340W        W45471   2.202   8.859   1.640 -0.0319  0.0222 -0.1891
30341W        W45472   6.143  15.528  15.000  0.1349 -0.0152 -0.1486
30342W        W45473  14.592   5.902  16.647 -0.0055  0.0524 -0.0199
30343W        W45474  17.279  15.772   3.578 -0.0797 -0.0783  0.1143
30344W        W45475  14.242   0.735  14.545 -0.0700  0.0816  0.1721
30345W        W45476  16.264  10.544   2.329  0.1128  0.3465 -0.3687
30346W        W45477   3.539  11.809   1.474  0.0513  0.0937  0.2880
30347W        W45478  15.142   7.874  11.241 -0.1678  0.1341 -0.1367
30348W        W45479   2.195  10.579   3.560 -0.4604  0.0248  0.1146
30349W        W45480  10.160   4.109   1.505  0.0883  0.3137 -0.2258
30350W        W45481   6.965   0.460  16.335  0.0643  0.0101 -0.0865
30351W        W45482  16.781  11.934  11.050 -0.0863  0.0343 -0.3445
30352W        W45483  16.234   8.704  15.239 -0.1385  0.1929  0.2744
30353W        W45484   5.339   7.784  11.368 -0.1170  0.0400 -0.1186
30354W        W45485   0.020  14.221  12.837 -0.3136  0.0674  0.1113
30355W        W45486   4.722   5.947  16.090  0.0473  0.1304  0.1018
30356W        W45487  15.265  15.620   1.632  0.1258  0.4727  0.0209
30357W        W45488  12.217  14.831  11.585  0.1417 -0.1481 -0.0237
30358W        W45489  15.253   9.908  12.336  0.1686 -0.2254 -0.0412
30359W        W45490  13.748  16.855  13.369 -0.1099  0.2196 -0.3415
30360W        W45491   2.859   8.015  12.297 -0.3132 -0.6716 -0.0246
30361W        W45492   6.339  16.054   2.234 -0.1088  0.6296 -0.0670
30362W        W45493  15.851   1.133  11.583  0.0821 -0.2461  0.2239
30363W        W45494  10.570   7.285   1.113  0.1528 -0.1227 -0.0269
30364W        W45495   2.773   4.518  10.141  0.0298 -0.0404 -0.0228
30365W        W45496   4.672   0.945   1.668 -0.0217  0.1664 -0.0114
30366W        W45497   1.834  14.078   3.758 -0.1164  0.1063 -0.2396
30367W        W45498  16.745   7.307  14.499  0.1935  0.1666 -0.1727
30368W        W45499  17.234  11.434   6.234 -0.3360 -0.2787  0.0693
30369W        W45500   1.158   3.860   1.180  0.1040 -0.2178 -0.2078
30370W        W45501  15.929   4.899   3.402  0.2352  0.2532  0.0882
30371W        W45502   4.308  15.027   2.431  0.3446  0.1679 -0.0120
30372W        W45503   7.665   8.260   1.563  0.0127 -0.1184 -0.0822
30373W        W45504  14.776  14.869   3.833  0.0550 -0.0406  0.0070
30374W        W45505   3.768   8.504   4.177  0.0984  0.0708  0.0589
30375W        W45506  16.258   8.184  16.622  0.0112 -0.3045  0.0272
30376W        W45507  10.995   7.153   4.350  0.1553 -0.0224  0.2321
30377W        W45508  17.691  13.592   5.021 -0.2352 -0.2167  0.0986
30378W        W45509   8.244   8.877  12.614  0.1973 -0.1779  0.2872
30379W        W45510  10.440   5.271  14.417  0.0924 -0.2420 -0.0980
30380W        W45511   2.702   0.284   6.352  0.1150 -0.1021 -0.0642
30381W        W45512  14.116  12.876  12.618 -0.2070  0.2399 -0.1090
30382W        W45513  15.462   4.011  16.135 -0.0303  0.0273 -0.0657
30383W        W45514  10.320   0.214   3.020 -0.1785 -0.0156 -0.0521
30384W        W45515  13.470   8.720   0.244 -0.0856  0.2293 -0.1768
30385W        W45516  16.391  17.532   4.016 -0.1818 -0.0021 -0.2149
30386W        W45517   5.225   7.481   4.737 -0.0407 -0.2424  0.2953
30387W        W45518   9.465  13.351  13.687 -0.2256  0.4023  0.0853
30388W        W45519  13.364   4.090  16.208 -0.1381 -0.1396  0.2311
30389W        W45520   0.204   0.049   5.953 -0.0546 -0.0186  0.0779
30390W        W45521  10.579   7.606  15.700 -0.2621  0.0327  0.0821
30391W        W45522   2.772   2.693   1.129  0.4230 -0.0580  0.2049
30392W        W45523   6.684  14.142   2.142 -0.2839 -0.0718  0.2707
30393W        W45524   4.831  13.117   1.651 -0.0922 -0.1317  0.1568
30394W        W45525  12.889   1.912   5.477  0.2293  0.1812  0.0403
30395W        W45526  13.951  16.645   1.529  0.0418  0.1806  0.2857
30396W        W45527   5.478   1.467  16.471 -0.0882 -0.3273  0.0136
30397W        W45528  10.992   3.923  10.768 -0.2869 -0.3133  0.1308
30398W        W45529   2.147  15.313  15.934 -0.0573 -0.1487 -0.1619
30399W        W45530   3.928  17.149   3.055  0.0294 -0.1486 -0.0616
30400W        W45531   5.237   6.627  15.591  0.2117 -0.1692  0.1108
30401W        W45532   0.628   0.029   4.542 -0.0645  0.0990 -0.2001
30402W        W45533   2.359   1.808  16.475  0.3367 -0.0063 -0.2766
30403W        W45534   3.228   7.685  12.057  0.3115 -0.0793  0.1511
30404W        W45535  13.974   0.945  12.966  0.1837  0.2788 -0.0744
30405W        W45536  13.451  10.529   3.105  0.2180 -0.2604 -0.2332
30406W        W45537  13.714  12.611   4.510  0.1676 -0.1746  0.0224
30407W        W45538   6.433  10.271   5.218 -0.4883  0.0334 -0.0168
30408W        W45539  11.938   2.370   4.587  0.2740 -0.0239 -0.0094
30409W        W45540   0.716  15.306  12.129 -0.0473 -0.0799  0.1869
30410W        W45541  14.617  12.329  16.398  0.1630  0.0885  0.0697
30411W        W45542  13.762  11.454  15.598 -0.2014 -0.0175  0.0474
30412W        W45543  13.612  14.375   4.673  0.0921 -0.1863 -0.0216
30413W        W45544  14.671  10.719   3.521  0.0529  0.1513  0.1299
30414W        W45545   3.025  14.596   3.703  0.0045  0.2547 -0.1661
30415W        W45546   2.747   8.965   4.891  0.1001 -0.1524  0.0113
30416W        W45547  11.722   7.758   4.421  0.1717  0.0978 -0.0152
30417W        W45548   3.372   2.597  16.713  0.1184  0.2214  0.0040
30418W        W45549   9.535   2.700  14.445 -0.2835 -0.1467 -0.1349
30419W        W45550  10.709   4.009  16.616  0.0274 -0.2232  0.3701
30420W        W45551  15.663  14.222   2.389 -0.2290  0.3543  0.4032
30421W        W45552   6.949  13.791   2.402 -0.1749  0.0014  0.0022
30422W        W45553   8.350   1.895  13.670  0.3238 -0.0882  0.0251
30423W        W45554  12.513   6.218   4.072  0.1741  0.1065  0.0933
30424W        W45555   6.723  12.190  13.262 -0.0781  0.0377  0.3155
30425W        W45556  13.875  14.865   2.132 -0.1334 -0.0732 -0.4314
30426W        W45557   4.547   3.198   3.380  0.1766 -0.0561  0.1527
30427W        W45558  12.454  14.129   5.100  0.0608  0.2808 -0.1252
30428W        W45559   6.366   5.397  14.123 -0.1732 -0.0677 -0.0336
30429W        W45560   7.955   2.096  12.367 -0.4086  0.1583 -0.1587
30430W        W45561   3.710   0.631   5.665  0.0776  0.2626 -0.1411
30431W        W45562   2.451   4.364  14.411  0.1528  0.1725  0.0595
30432W        W45563  13.230  12.845   3.927 -0.0090  0.0336  0.1664
30433W        W45564  15.065   9.845   0.840 -0.0190 -0.0059  0.0838
30434W        W45565   3.183  15.666  11.512  0.0116  0.3406 -0.1432
30435W        W45566   3.744  11.103  13.740 -0.0843 -0.1940  0.3815
30436W        W45567  15.950   3.025  12.753 -0.0111  0.1191 -0.1267
30437W        W45568   5.181  15.330  13.486  0.0314  0.1224 -0.0827
30438W        W45569   7.774  16.235   1.648 -0.0056 -0.1510  0.1783
30439W        W45570   2.141   1.820   4.402 -0.3347 -0.0536  0.0355
30440W        W45571   7.565  12.774  13.520  0.0886 -0.2209 -0.2605
30441W        W45572   5.366   9.999  16.066  0.2545 -0.4618 -0.2223
30442W        W45573  13.689  15.447  14.661 -0.0942  0.1153 -0.0334
30443W        W45574   2.869  13.881   6.029 -0.0084 -0.0660  0.2062
30444W        W45575  17.580  17.546  13.593 -0.0622  0.3713  0.1207
30445W        W45576   6.111  13.357  13.704  0.2773 -0.1841  0.1180
30446W        W45577   5.957  13.036  16.166 -0.1164 -0.1545  0.2337
30447W        W45578  16.744  10.512  14.411  0.0859  0.0411 -0.0292
30448W        W45579   9.206   7.397  14.196  0.0269  0.0782  0.0158
30449W        W45580   0.568   1.716   4.042 -0.1493 -0.1741 -0.2902
30450W        W45581  10.267   9.770  11.923 -0.0497  0.1533  0.0137
30451W        W45582   7.956  10.639  15.585 -0.0930  0.0831 -0.2067
30452W        W45583  15.091   7.028  15.940  0.0413  0.2084 -0.2362
30453W        W45584  11.515  14.135   2.795  0.0497 -0.0354 -0.2814
30454W        W45585   3.810   7.580  16.095 -0.2378  0.0011  0.0947
30455W        W45586   7.749  13.046  15.696 -0.1204  0.1346  0.1580
30456W        W45587  11.509  12.020   2.554  0.0529  0.1629 -0.0153
30457W        W45588   8.379   4.998   5.748  0.1763 -0.0862  0.0838
30458W        W45589  10.122   2.867   2.858  0.0741 -0.1319 -0.0012
30459W        W45590  17.701  15.970   4.500 -0.0144 -0.0724 -0.1202
30460W        W45591   3.010  11.113   0.191  0.1297 -0.2339 -0.0526
30461W        W45592  13.600  11.032   6.591  0.0640 -0.2926 -0.3423
30462W        W45593   6.043   7.588  12.410 -0.2820  0.3592 -0.2540
30463W        W45594   7.233   3.542   2.118 -0.0029  0.2190 -0.0894
30464W        W45595   0.307   6.328   3.014 -0.1358  0.1587 -0.0781
30465W        W45596   4.336  16.097   2.436  0.2960 -0.2847 -0.0372
30466W        W45597   4.616   7.832  12.082  0.1728  0.2318 -0.0111
30467W        W45598  16.102   2.760   3.980 -0.1219 -0.4358  0.1498
30468W        W45599  10.515  11.021   3.839  0.2976 -0.0640 -0.5611
30469W        W45600   9.476   6.038  14.563 -0.1314  0.1140  0.1262
30470W        W45601   8.714  11.779   5.489 -0.0616 -0.1912  0.1031
30471W        W45602  12.331   9.207   3.807  0.0590 -0.2237 -0.2087
30472W        W45603   5.076  10.140   3.355 -0.1336  0.1446 -0.2970
30473W        W45604   9.492   8.108   0.322  0.1679  0.2522 -0.1015
30474W        W45605   0.988  12.537  14.074 -0.1400  0.2571 -0.1416
30475W        W45606  10.502  10.253   3.632 -0.0101  0.1662  0.1026
30476W        W45607  15.038  16.762  15.105 -0.0670  0.0861  0.2003
30477W        W45608  16.449   0.288   0.352 -0.2177  0.0380 -0.0222
30478W        W45609   2.087   3.386  11.043  0.1148 -0.4009  0.1416
30479W        W45610  13.534   0.750  15.773 -0.0463 -0.1613  0.1163
30480W        W45611   3.021  11.073  11.950  0.4218 -0.1257  0.1530
30481W        W45612  10.004   5.226   3.655 -0.0662 -0.0691  0.2955
30482W        W45613   6.562   7.716  11.654 -0.3481  0.0929 -0.2453
30483W        W45614  15.002   3.847   3.889  0.0470  0.0402 -0.0412
30484W        W45615  11.831   8.014   2.470 -0.1078  0.1702 -0.0354
30485W        W45616   7.119   6.056  16.825 -0.0597 -0.0359  0.2389
30486W        W45617  12.173   2.112  16.419  0.2376  0.1277 -0.1945
30487W        W45618  15.790  15.493   0.143  0.1111 -0.1248  0.0966
30488W        W45619   8.108   4.753  12.583  0.0901 -0.1476 -0.2562
30489W        W45620   7.521  14.180  16.219  0.0613 -0.0707  0.3005
30490W        W45621   2.729   3.246  16.604  0.2477  0.1559  0.2514
30491W        W45622   1.122  10.652  13.043 -0.1663  0.0408  0.0898
30492W        W45623   1.730   6.650  13.252  0.1099 -0.0592 -0.1604
30493W        W45624   9.667  15.991  13.509 -0.0436 -0.0850 -0.0344
30494W        W45625   7.448  16.770   0.674 -0.2024 -0.2968 -0.0386
30495W        W45626  17.109  16.545  12.562  0.0580 -0.3538 -0.0159
30496W        W45627   3.300   3.611  16.049 -0.2408  0.0749 -0.2414
30497W        W45628   3.608  10.737  14.649  0.0381  0.0328 -0.0647
30498W        W45629  10.718  17.067  15.975  0.1491  0.0524 -0.1583
30499W        W45630  13.626   8.252   0.084  0.0520 -0.0851  0.2541
30500W        W45631   7.730   3.680  13.578  0.1015  0.0588  0.3016
30501W        W45632   2.931   7.541   0.943 -0.1281 -0.0859 -0.2450
30502W        W45633   2.378   0.657  11.781 -0.1677 -0.1779  0.0133
30503W        W45634   1.265  14.837   0.206 -0.1825 -0.1781 -0.1269
30504W        W45635   4.080  16.837   5.222 -0.1580 -0.0323  0.0829
30505W        W45636   5.571   0.436  12.996 -0.2859 -0.1497 -0.0198
30506W        W45637   4.992   1.405   0.581  0.0224  0.0347  0.1986
30507W        W45638   7.740  16.074  14.784  0.0157 -0.0598  0.0657
30508W        W45639  10.509  17.282   0.708  0.0879  0.3521  0.4453
30509W        W45640  15.352   0.756   5.257  0.0006  0.0639 -0.1819
30510W        W45641  15.745  14.938   3.310 -0.1446 -0.2241 -0.1406
30511W        W45642  17.471  11.066   0.230 -0.1785 -0.2180 -0.0981
30512W        W45643   4.128   2.738   0.825  0.1005  0.0691  0.0172
30513W        W45644  11.697  12.106  11.829 -0.1635 -0.0403  0.0560
30514W        W45645  14.314   3.638   2.694 -0.2225  0.0961 -0.2529
30515W        W45646  16.365   5.594  13.846 -0.0645  0.1394  0.0196
30516W        W45647   2.046  17.116   0.996 -0.2648  0.2615  0.0880
30517W        W45648   4.546   4.517   3.826 -0.2265 -0.3235 -0.0282
30518W        W45649   0.136   9.216  13.793 -0.1711 -0.1180 -0.0756
30519W        W45650  11.701   1.206   1.736  0.0745  0.1421 -0.0463
30520W        W45651  14.468  16.831  15.937  0.1928 -0.3228 -0.0651
30521W        W45652   3.122  11.507   3.430 -0.3456  0.0981  0.2159
30522W        W45653   7.129  12.033  14.090  0.0414 -0.2921  0.1392
30523W        W45654  13.970   8.367   0.399 -0.0919  0.0236  0.0129
30524W        W45655  13.458  12.490   3.553  0.0014 -0.3021  0.0389
30525W        W45656   8.561  10.890   3.719 -0.1953 -0.0283 -0.0360
30526W        W45657   8.849   9.972   4.607  0.0619 -0.1417 -0.0480
30527W        W45658   1.830   1.370   2.567 -0.0380 -0.1343  0.0401
30528W        W45659  13.871  10.622   5.659 -0.0665 -0.1510 -0.2758
30529W        W45660  10.310   5.498  13.098 -0.2029 -0.3241  0.0700
30530W        W45661  15.689  16.983  15.561 -0.2158 -0.0835  0.3875
30531W        W45662   9.139  15.146   5.046  0.3176 -0.2431 -0.0922
30532W        W45663   8.524   5.062  12.695  0.2014 -0.0613  0.1608
30533W        W45664  10.465   2.478   5.511 -0.3118 -0.0934  0.2833
30534W        W45665  10.724  10.685  16.176 -0.0977  0.1126 -0.2047
30535W        W45666  15.945  15.383   1.382 -0.2225  0.2025  0.0333
30536W        W45667   4.028  14.851  15.809 -0.2627  0.0059  0.0809
30537W        W45668   9.870   1.408  14.584 -0.0424  0.0690 -0.0089
30538W        W45669  15.896   3.638   3.826 -0.1035  0.0093  0.0268
30539W        W45670  16.026   6.774  11.237 -0.1270  0.0314  0.0799
30540W        W45671   9.723  17.006  13.229 -0.3229 -0.0665  0.2379
30541W        W45672   3.766  12.816   3.091 -0.1418  0.0735  0.2458
30542W        W45673   0.343   5.414  12.728 -0.1396 -0.0601  0.2364
30543W        W45674   9.980  14.500   4.119  0.1129  0.0988 -0.1142
30544W        W45675   2.095  10.367  14.942  0.0654 -0.2801 -0.1795
30545W        W45676  15.787   5.550   5.123  0.2343 -0.1092 -0.0575
30546W        W45677   2.346  11.640  14.036  0.0174  0.0941 -0.1157
30547W        W45678   9.134   4.825  14.180  0.0111  0.2781  0.1582
30548W        W45679   3.555  10.101   5.167 -0.0535 -0.0296  0.0993
30549W        W45680  16.378   3.557   1.312  0.0780 -0.0103 -0.0314
30550W        W45681   8.944  12.073   2.228  0.2491  0.0212 -0.0751
30551W        W45682  16.023   3.130  14.265 -0.0055 -0.2012 -0.0465
30552W        W45683   5.471   1.977  11.643 -0.0135  0.0596 -0.2076
30553W        W45684   1.385  16.771  16.827  0.0498 -0.1270  0.0124
30554W        W45685   0.318   7.380   5.383 -0.0850  0.4343  0.0192
30555W        W45686  15.741  13.388   4.989  0.0933 -0.0525  0.1460
30556W        W45687  12.547   0.562   3.876  0.1113 -0.1831  0.1941
30557W        W45688   8.053   2.644   5.014  0.1133  0.2181 -0.2262
30558W        W45689  13.042  11.647   4.744  0.3390  0.1011 -0.0140
30559W        W45690  13.614   3.251  13.660 -0.0915 -0.0587  0.1143
30560W        W45691  16.890   3.628  16.212  0.0213  0.0176 -0.0111
30561W        W45692  13.967  11.597   1.952  0.2460 -0.2025 -0.0788
30562W        W45693  16.712   9.239  16.806 -0.0874  0.1676  0.0304
30563W        W45694  15.830   4.330  16.007  0.0857 -0.0881 -0.3028
30564W        W45695  13.812  15.061  14.243 -0.2934  0.1584 -0.0095
30565W        W45696   9.622   3.764   2.097 -0.0289 -0.1753 -0.1121
30566W        W45697   7.044   6.501  11.606  0.2718 -0.1522 -0.0559
30567W        W45698  10.353   2.780  16.583  0.1909 -0.0215  0.3240
30568W        W45699  13.758   0.014  15.219 -0.0475  0.2284 -0.1522
30569W        W45700  12.077   6.240  11.609  0.0747 -0.3385  0.2959
30570W        W45701  11.349   5.691  15.822  0.0894 -0.1431 -0.0426
30571W        W45702   3.323  15.941  13.486  0.2690  0.0487 -0.2864
30572W        W45703  16.622  13.924   0.474 -0.2080 -0.1792 -0.0132
30573W        W45704   9.712   3.707  16.772 -0.0164 -0.1933 -0.0317
30574W        W45705  12.038  17.133  13.778  0.0766 -0.0235 -0.1623
30575W        W45706   1.476  14.114   3.461  0.3334 -0.1544  0.1190
30576W        W45707   6.917  15.008   0.505  0.0374  0.0883 -0.1508
30577W        W45708   0.581  17.561   3.701  0.0645  0.0143  0.0064
30578W        W45709  13.376  14.588  16.087  0.0317 -0.0008  0.0029
30579W        W45710   4.907   8.931  11.946  0.1987  0.1027 -0.0943
30580W        W45711   1.818   7.527  11.459  0.0598  0.0751  0.0868
30581W        W45712   9.041  12.075  15.831  0.3693 -0.1149 -0.4063
30582W        W45713  13.264  13.581   0.895  0.0509  0.0141 -0.1221
30583W        W45714   0.168   6.634  13.427  0.0035  0.0854 -0.1202
30584W        W45715   5.668   5.656   0.178  0.0602 -0.1094 -0.1279
30585W        W45716   1.328   5.724   2.482 -0.1523  0.0006 -0.1316
30586W        W45717   5.016  12.530   2.911  0.1254  0.3026  0.1808
30587W        W45718  14.141  17.156  16.344 -0.2858  0.4510  0.3207
30588W        W45719   8.406   4.118   2.216  0.2151  0.0973 -0.0414
30589W        W45720  15.273   8.080  13.897  0.0271 -0.0417  0.0711
30590W        W45721   2.869   5.056  16.142  0.0026  0.0032 -0.0007
30591W        W45722   5.352  16.846  12.619  0.0524 -0.0464  0.1114
30592W        W45723   4.646  14.593   0.050  0.1338 -0.1363 -0.0167
30593W        W45724   1.395  15.714   4.970 -0.1058  0.3499 -0.1526
30594W        W45725   5.277   9.735  15.685 -0.0937 -0.1269  0.3879
30595W        W45726   1.327  15.753   0.591 -0.0909 -0.2465 -0.2531
30596W        W45727  12.816   5.262  11.380 -0.1472 -0.3304 -0.0552
30597W        W45728   1.339   0.800   1.648 -0.1220 -0.1364  0.0306
30598W        W45729  11.509  10.463   1.426 -0.1913 -0.5240 -0.1190
30599W        W45730  17.551   9.621   4.392  0.2171 -0.1287 -0.0586
30600W        W45731  14.574  14.875   5.078 -0.0681  0.1845  0.1439
30601W        W45732  12.608   5.547   1.809  0.0866  0.0559  0.1985
30602W        W45733  12.866   5.465  12.569  0.2463 -0.2354 -0.1265
30603W        W45734   0.321   8.618  16.484  0.0085 -0.0147 -0.1898
30604W        W45735   5.578  15.048   1.988  0.1454 -0.1190  0.1087
30605W        W45736   5.910  13.299   3.872  0.0714 -0.0547 -0.0453
30606W        W45737  16.007  13.801  12.950 -0.0123 -0.2988 -0.2510
30607W        W45738  13.684   5.647  13.123  0.0303 -0.1993 -0.2793
30608W        W45739   8.035   2.979   5.614  0.1619 -0.1009  0.0437
30609W        W45740   0.179  13.629   3.095  0.2682 -0.1406 -0.0737
30610W        W45741  16.293  10.510  15.588 -0.1234 -0.2117 -0.3030
30611W        W45742   7.557  10.917   5.438 -0.4727 -0.1133  0.1050
30612W        W45743   0.651  13.870  12.305  0.2730 -0.1527 -0.0527
30613W        W45744   7.695  11.588   2.350  0.2107 -0.1582 -0.0641
30614W        W45745   1.736   5.531   4.744 -0.0140  0.0052 -0.4741
30615W        W45746   8.682   5.105  11.929  0.0072  0.0522  0.2016
30616W        W45747   3.567  14.571   2.103 -0.3805 -0.0374 -0.3430
30617W        W45748   7.457  12.416   2.233  0.1038  0.0047  0.0833
30618W        W45749  17.214   0.070   2.302 -0.1475 -0.1478  0.1084
30619W        W45750   7.753   5.491   4.051 -0.2707  0.4392 -0.0881
30620W        W45751   9.340   9.602  16.248 -0.1374 -0.3563  0.0559
30621W        W45752  12.561   4.957   1.669  0.1033 -0.0327  0.0791
30622W        W45753  15.714  12.891  14.225 -0.2272 -0.0813  0.3630
30623W        W45754   5.086  15.772   0.371  0.1235  0.0903  0.0325
30624W        W45755   0.763  10.216   2.927 -0.0070 -0.0958 -0.0961
30625W        W45756   8.415   5.968  16.336  0.1931 -0.1746  0.1419
30626W        W45757   2.464   0.653   3.574 -0.1462 -0.0470 -0.0890
30627W        W45758   6.092   2.964  14.642 -0.1937  0.0873 -0.1902
30628W        W45759   8.269  17.010   3.735  0.0777  0.0533  0.0776
30629W        W45760  10.761   4.527   0.620  0.1154  0.1602  0.1349
30630W        W45761   1.407  13.660  16.367  0.0871  0.1891  0.0873
30631W        W45762  17.425   3.753   0.538 -0.0838 -0.1939 -0.0343
30632W        W45763   2.872   9.465   4.168 -0.0965  0.2489  0.0252
30633W        W45764  12.686   3.264  15.423  0.3091  0.1068  0.1027
30634W        W45765   6.957  11.982   4.288 -0.0262 -0.2622  0.0824
30635W        W45766   3.606  16.369   0.655  0.2695  0.0503 -0.0541
30636W        W45767   9.187  13.573  13.170  0.2032 -0.1959 -0.1567
30637W        W45768   8.194   5.221   4.184  0.3519 -0.3265 -0.0930
30638W        W45769   0.507   1.462   0.356 -0.2310  0.1054 -0.2053
30639W        W45770  11.997  15.294   5.795  0.1079  0.1419 -0.0359
30640W        W45771  13.229  10.576   1.910 -0.2376  0.0909 -0.0112
30641W        W45772   2.845  15.832  11.876 -0.0427 -0.1633 -0.0396
30642W        W45773  10.868   6.227   4.022 -0.1333 -0.1721  0.2771
30643W        W45774   4.347   1.798   6.211  0.0773 -0.0124  0.1360
30644W        W45775   6.780   6.237   0.255 -0.4857 -0.2186  0.0072
30645W        W45776   9.693  10.296  13.803 -0.0641  0.1196 -0.1173
30646W        W45777  12.860  12.397   0.413 -0.0160 -0.0363 -0.2262
30647W        W45778   2.262   1.343  11.017 -0.1528 -0.0794 -0.3286
30648W        W45779   8.427  13.276  14.510  0.0855  0.0538  0.0498
30649W        W45780   9.438  11.900   4.771 -0.1661 -0.0077  0.2135
30650W        W45781   1.761   2.784   2.213  0.1595  0.1252 -0.0459
30651W        W45782   2.234  12.168   1.837 -0.0391 -0.0071 -0.0691
30652W        W45783   6.463   0.910   2.585 -0.1024 -0.1152  0.0469
30653W        W45784   0.624  17.214   6.239 -0.0377 -0.0344 -0.0041
30654W        W45785   8.240  13.280  15.816  0.0940  0.1717 -0.1968
30655W        W45786  11.418   6.682   1.048  0.0549 -0.0300 -0.1521
30656W        W45787   6.651  15.368   3.131  0.1571 -0.0873 -0.0924
30657W        W45788   4.260   0.533  13.002 -0.3123 -0.0792 -0.2685
30658W        W45789   7.473  11.620   2.877  0.1611  0.0070 -0.1594
30659W        W45790   3.370   6.865  14.460 -0.0913 -0.0679 -0.3325
30660W        W45791  17.150   8.748  13.469  0.2023  0.0311 -0.0928
30661W        W45792   2.085   7.982   5.043  0.1205  0.0245 -0.0583
30662W        W45793  13.547  15.716  13.791  0.0893  0.0366  0.0710
30663W        W45794   7.197   1.058   2.046  0.1517  0.0141  0.0156
30664W        W45795   5.369   3.028   6.263 -0.0390 -0.3053  0.1504
30665W        W45796   6.073   1.591   3.135  0.1445  0.0162 -0.0675
30666W        W45797   7.559   9.134  14.753 -0.0170 -0.0329  0.2501
30667W        W45798  13.570  13.071  13.485 -0.0520 -0.1584  0.2268
30668W        W45799   5.349   8.674  15.883  0.2080  0.1008  0.0211
30669W        W45800  17.253  15.106  12.542  0.1814 -0.2030 -0.0380
30670W        W45801   7.608   2.535  14.637 -0.0984  0.0040 -0.0028
30671W        W45802   7.486   9.228   3.890 -0.1341 -0.0393 -0.2704
30672W        W45803   0.053   5.072   4.888  0.1658  0.1319 -0.2310
30673W        W45804   5.355  16.590   0.625  0.3046 -0.0845  0.1812
30674W        W45805  16.421  10.092   4.667  0.0088 -0.1006  0.0671
30675W        W45806  17.508  10.248  15.811  0.0269 -0.1764 -0.0722
30676W        W45807   0.429   6.029  15.955  0.2505 -0.2259  0.0840
30677W        W45808   7.313   1.486   3.785  0.0981  0.2038  0.1634
30678W        W45809  15.729  11.587   4.934 -0.0245 -0.3578 -0.0140
30679W        W45810   7.456   6.828   1.561 -0.0557 -0.1490 -0.1468
30680W        W45811  10.439   6.464   2.608 -0.0881  0.0491  0.2512
30681W        W45812  12.547   7.813   1.141 -0.0705  0.2306  0.0096
30682W        W45813  14.331  10.372   4.401  0.1582 -0.0382 -0.2247
30683W        W45814  10.429  14.066  14.359 -0.0867  0.3391 -0.1531
30684W        W45815  14.631   6.416   2.271  0.0129  0.0360  0.0217
30685W        W45816   9.151  10.377   5.451 -0.1034  0.1325 -0.0858
30686W        W45817   8.847   1.032  12.576  0.2266  0.0049  0.1415
30687W        W45818   2.438  12.516   0.285  0.1451 -0.2228  0.0699
30688W        W45819   7.491  16.856  14.192 -0.0115 -0.2990  0.1742
30689W        W45820  12.395   1.358  16.389 -0.0214  0.1572  0.0366
30690W        W45821   0.006   4.381  13.516  0.0593 -0.0073  0.1418
30691W        W45822  13.648   4.599   0.890 -0.0722 -0.1360  0.0600
30692W        W45823  15.414   7.476   1.986 -0.1004 -0.3291 -0.0036
30693W        W45824   4.246  17.561  15.824  0.1733 -0.1379 -0.0096
30694W        W45825   9.543  15.466  13.610 -0.1091 -0.1501 -0.0349
30695W        W45826  16.981  16.761  11.606  0.2578 -0.0611 -0.0224
30696W        W45827   1.137  17.489  11.575 -0.0642 -0.1893 -0.1470
30697W        W45828   4.739   9.969  12.712  0.0325 -0.1203 -0.0858
30698W        W45829  11.105   3.551  12.849  0.1012 -0.1576 -0.2259
30699W        W45830  10.000  12.808   2.823  0.0073 -0.1273  0.2861
30700W        W45831  14.384   2.899   1.597  0.0667  0.1558  0.0556
30701W        W45832  10.277   1.528  12.747  0.1855 -0.1349 -0.1402
30702W        W45833   3.254  12.208   4.723  0.0039 -0.0591 -0.3038
30703W        W45834   9.874   1.877  13.613 -0.1469 -0.0337 -0.2083
30704W        W45835   0.405   2.645  13.958 -0.1812  0.0355  0.0990
30705W        W45836  15.282   1.231   4.497 -0.0647 -0.1261 -0.1096
30706W        W45837   8.846  14.675  12.630  0.1245 -0.2047  0.2107
30707W        W45838   9.763   1.902   2.790  0.1315  0.2074  0.0734
30708W        W45839  16.037  11.746   0.551 -0.1694  0.2739 -0.3694
30709W        W45840   6.435   9.092  12.900 -0.1004 -0.0040 -0.0121
30710W        W45841   6.433   0.854   4.702 -0.1781  0.0865 -0.1335
30711W        W45842   6.648   3.489   1.986  0.0413 -0.0430  0.1943
30712W        W45843   3.494   0.410   5.095  0.3453 -0.0666  0.0679
30713W        W45844   1.862   1.194   0.276  0.0891  0.1136  0.1399
30714W        W45845  17.252   8.342   4.749 -0.1492  0.0079 -0.0314
30715W        W45846  13.549   0.760   2.642  0.0392  0.1777 -0.1105
30716W        W45847   9.452  14.467   4.247  0.1739  0.3031  0.0837
30717W        W45848   6.387   5.129  11.568 -0.2227  0.1164  0.1280
30718W        W45849   5.573  12.451   4.931  0.0255 -0.2237  0.0713
30719W        W45850   2.266   9.653   1.903 -0.1110  0.1558  0.0956
30720W        W45851  13.463   8.856  13.435  0.1229  0.1415 -0.0600
30721W        W45852   7.390  11.428   1.479  0.3705 -0.1767 -0.1198
30722W        W45853  14.222   6.581   1.851  0.1158  0.3549 -0.1789
30723W        W45854  16.102  14.712  14.524  0.2338  0.2797  0.1333
30724W        W45855  17.489   1.865  14.325 -0.0958  0.1830 -0.1534
30725W        W45856   0.841  13.819   4.027 -0.0399 -0.0185 -0.1250
30726W        W45857   0.537   9.274  14.480  0.0042  0.1127 -0.2473
30727W        W45858   3.018   1.227  12.845 -0.0385 -0.0069 -0.1422
30728W        W45859  12.883  11.048   1.927 -0.3065  0.1248 -0.1519
30729W        W45860  15.642   2.697   1.684  0.0791  0.2828  0.0495
30730W        W45861  16.259  14.915   5.932 -0.1007  0.1507 -0.1673
30731W        W45862   0.230  15.158   2.543 -0.2249 -0.1099  0.2312
30732W        W45863  10.696  14.365  13.023 -0.3156  0.0462  0.0951
30733W        W45864   6.526   1.380   2.422 -0.0070 -0.3944  0.2119
30734W        W45865  11.091  10.393   4.578  0.1069 -0.0208  0.4256
30735W        W45866  11.679   3.295  10.768  0.0480 -0.4450  0.1922
30736W        W45867  14.635   8.027   2.453 -0.4112 -0.0791 -0.1532
30737W        W45868  10.889   0.638   1.670 -0.0509  0.3545  0.0847
30738W        W45869  16.681   9.563   4.336  0.0279 -0.1171  0.2330
30739W        W45870  14.811   3.249  10.414 -0.1323  0.0291 -0.0216
30740W        W45871   0.094   3.766   5.102 -0.0132  0.0451  0.1649
30741W        W45872   3.779   5.163  13.758  0.3751  0.1929  0.0390
30742W        W45873   0.020   5.152  12.396 -0.2534  0.2510 -0.2092
30743W        W45874  12.615   0.743  12.736 -0.0331  0.0732  0.1992
30744W        W45875  11.950   1.039   5.194 -0.2229 -0.1388 -0.3805
30745W        W45876   6.655  12.183  11.922 -0.3536  0.0374  0.2538
30746W        W45877  16.282   7.867  12.168 -0.2223  0.3952  0.0122
30747W        W45878  12.197   8.396   4.010 -0.3595  0.1058  0.1218
30748W        W45879   5.092  11.692   4.742  0.2220 -0.0222  0.0869
30749W        W45880  12.180   4.828   3.860  0.0365 -0.4387 -0.1170
30750W        W45881   2.398  12.277   5.118  0.1976 -0.1025 -0.1892
30751W        W45882   4.414   6.549  12.267  0.3481 -0.2861  0.3319
30752W        W45883   3.140   8.117   3.562 -0.0009 -0.0664 -0.0496
30753W        W45884  10.671  15.038  14.272 -0.1170  0.1828 -0.0291
30754W        W45885  12.973   6.567   3.582  0.3312 -0.0812  0.1021
30755W        W45886   5.608  16.282  11.465  0.1125  0.1324  0.2883
30756W        W45887  10.778   9.508   5.154  0.0113  0.0230  0.1848
30757W        W45888   1.831   3.661   2.128 -0.1114  0.0596  0.2761
30758W        W45889  12.110   3.070   1.243 -0.0518  0.0191  0.0294
30759W        W45890  14.690   4.564   0.615 -0.3182 -0.1391  0.2077
30760W        W45891  12.625   6.034  15.035 -0.3314  0.0255  0.2732
30761W        W45892   9.323  16.268   0.790 -0.2348  0.1239 -0.0259
30762W        W45893   4.852   9.494  15.674  0.0290 -0.0434 -0.2733
30763W        W45894  10.087   4.655   1.263  0.1901 -0.1615 -0.4075
30764W        W45895   9.798  13.041   3.227 -0.0782  0.3338 -0.2041
30765W        W45896   7.739   8.871   1.954  0.1669 -0.1538  0.2768
30766W        W45897  14.350   4.883  16.678 -0.1870 -0.2103 -0.0187
30767W        W45898   6.378   5.821  13.801  0.2177 -0.1263 -0.1347
30768W        W45899   6.954  12.743   5.839 -0.0521  0.0744  0.0328
30769W        W45900   5.345   6.918  13.438 -0.0859  0.1137 -0.0406
30770W        W45901  14.921  15.864  14.744 -0.0419  0.3012 -0.2206
30771W        W45902  10.098   8.335   6.481  0.1918 -0.0000  0.1720
30772W        W45903  13.236   1.790   0.970  0.1234 -0.0808 -0.2081
30773W        W45904   0.968  17.322  13.210  0.0445 -0.0679 -0.1189
30774W        W45905   9.352   6.461  16.392 -0.2581  0.0620 -0.1285
30775W        W45906   4.725  15.379  12.734  0.1663 -0.0597  0.0994
30776W        W45907   1.041  17.357  12.382  0.1979 -0.2358 -0.0643
30777W        W45908  13.662   6.139  16.424  0.0602 -0.1576 -0.1199
30778W        W45909   7.859  17.007  16.663  0.0887 -0.0417  0.0093
30779W        W45910  11.523  10.590  13.189  0.0754  0.0011  0.1867
30780W        W45911  15.559   2.777  13.131 -0.3325 -0.4136  0.2285
30781W        W45912  13.826   2.691   5.154  0.0205  0.1771  0.1617
30782W        W45913   3.931   4.347  11.239  0.1915 -0.0035 -0.0529
30783W        W45914  12.995  12.098   1.936 -0.0056 -0.1505 -0.0826
30784W        W45915   4.615   3.312   2.780  0.0492  0.1699  0.3802
30785W        W45916  13.411  11.009   2.776 -0.1550 -0.1176  0.2948
30786W        W45917   8.455  13.266   0.291 -0.2300  0.0852 -0.1229
30787W        W45918  14.569   7.566  13.684  0.1208  0.1250  0.0471
30788W        W45919  17.346   4.947   3.382  0.1129 -0.1078 -0.1035
30789W        W45920   5.086  15.536  16.763  0.4031  0.2704 -0.0305
30790W        W45921   3.536  16.775  14.963  0.0056 -0.1219 -0.2038
30791W        W45922  15.798   5.758  16.166  0.2819  0.0154 -0.0531
30792W        W45923  14.425   3.558   5.117  0.1397 -0.1340  0.4342
30793W        W45924  16.883   1.189   3.219  0.1453  0.2186  0.0100
30794W        W45925   1.758  12.688  16.097 -0.1577 -0.0326  0.0606
30795W        W45926   7.429  10.526  12.782  0.2450  0.1418  0.0862
30796W        W45927   4.392   9.884   5.704  0.0115 -0.3244 -0.1532
30797W        W45928  16.960   0.258  13.143  0.0368 -0.1027  0.3234
30798W        W45929   2.287  11.285   2.869 -0.0587 -0.4367  0.0575
30799W        W45930  11.445   4.355  13.931  0.0200  0.2760  0.1059
30800W        W45931  12.267   3.625  15.669  0.1813  0.2127  0.0090
30801W        W45932   8.693   7.339  13.992 -0.0556  0.3203 -0.0292
30802W        W45933   2.420   7.801  15.697  0.1612 -0.0672 -0.0416
30803W        W45934   3.062  10.634  14.329 -0.3176  0.0189 -0.0094
30804W        W45935  11.958   0.071   3.979  0.2340  0.1466 -0.0054
30805W        W45936   0.200   4.881  14.251  0.2329 -0.0596 -0.2248
30806W        W45937   2.452   9.633   5.923  0.2393  0.3215 -0.1149
30807W        W45938  16.815   3.197  15.996  0.0706 -0.0438 -0.0310
30808W        W45939  16.497   7.379  14.077  0.1033  0.2086 -0.2232
30809W        W45940   1.431   1.318   4.623 -0.0713 -0.0001  0.0225
30810W        W45941   3.783  12.529   0.991 -0.0975 -0.1505 -0.1461
30811W        W45942   8.709  17.341   4.887 -0.0588  0.4235 -0.5180
30812W        W45943   1.832   6.021   3.950  0.2983 -0.3869  0.0744
30813W        W45944  10.061   9.345   0.998 -0.0101 -0.1076 -0.0686
30814W        W45945   5.916  16.514   1.811  0.0416 -0.2364  0.0921
30815W        W45946  15.490   6.901   3.136  0.2422  0.1461 -0.2273
30816W        W45947  16.416   6.337   4.075  0.1421 -0.2047  0.0269
30817W        W45948  13.837  12.636   5.694 -0.1181 -0.0217 -0.0730
30818W        W45949   3.556  16.339  14.711  0.3864 -0.5017  0.1549
30819W        W45950   7.317  11.344   5.050  0.2796 -0.3936  0.0505
30820W        W45951   8.570   3.171  15.129 -0.1595  0.0088 -0.0192
30821W        W45952   6.355   4.946  16.799  0.0726  0.1992 -0.3454
30822W        W45953   6.057   1.762  14.887  0.0728 -0.0977  0.1885
30823W        W45954  12.175  13.080   2.293 -0.2358  0.1078 -0.2021
30824W        W45955   4.109  12.909   1.050 -0.0076 -0.1375 -0.1761
30825W        W45956   9.625   2.701  11.806 -0.1743 -0.0959 -0.0682
30826W        W45957   7.527   6.317  11.521  0.0757  0.3814 -0.1142
30827W        W45958   7.992  11.166   2.315 -0.0548 -0.1503 -0.6015
30828W        W45959   2.325  12.633   4.744 -0.0448  0.1352 -0.1764
30829W        W45960  15.103  14.525  10.895  0.0548 -0.2079  0.0955
30830W        W45961   3.501   1.270  14.092 -0.2296 -0.0757 -0.1529
30831W        W45962   3.140   6.287   2.494  0.2185 -0.2232  0.0910
30832W        W45963   2.603   1.307   1.284 -0.2011 -0.0309  0.0187
30833W        W45964   4.926  14.188   5.253 -0.0825  0.1867 -0.3367
30834W        W45965  15.859  15.307  16.564 -0.0242  0.0280  0.0195
30835W        W45966  17.343   9.353   1.417 -0.1536  0.0267  0.1581
30836W        W45967   9.152  17.515  14.067 -0.1933  0.2676 -0.1568
30837W        W45968   9.078  13.191  12.300 -0.4195  0.0716  0.1295
30838W        W45969   9.564  12.088   0.875 -0.0940 -0.2116  0.0716
30839W        W45970  10.366  10.664   0.240 -0.0373 -0.1165 -0.0248
30840W        W45971  12.007   6.404  12.680  0.0931 -0.1188  0.2330
30841W        W45972   6.687   5.567  14.529 -0.1740  0.4537 -0.2938
30842W        W45973  13.606  16.269   1.708 -0.0372  0.1077  0.0371
30843W        W45974   4.084   2.847   1.402 -0.0595  0.1059 -0.0101
30844W        W45975   4.188   9.611  15.801 -0.0625  0.0089 -0.2109
30845W        W45976  12.164   0.874  14.399 -0.1612 -0.3325 -0.1938
30846W        W45977   7.392   6.649   5.381  0.1481 -0.0730  0.0336
30847W        W45978   5.481  14.957   3.649 -0.1927  0.0566 -0.1835
30848W        W45979   8.744  14.261  13.388  0.1587 -0.1995 -0.1821
30849W        W45980  13.772  16.398   5.583  0.1867  0.1217 -0.1091
30850W        W45981   8.453  11.019  12.358  0.2028  0.1104 -0.0201
30851W        W45982   7.605   2.578   4.792 -0.0295 -0.1541 -0.0357
30852W        W45983   0.907  13.986   1.276  0.1287 -0.1505  0.2356
30853W        W45984  12.591   6.823   4.896  0.1402 -0.2703 -0.1944
30854W        W45985   3.159  16.455   4.524  0.0375  0.0320 -0.0630
30855W        W45986   4.762   5.283  15.169  0.1353  0.0701 -0.1086
30856W        W45987   3.970  16.829   3.928  0.1302  0.0003  0.1024
30857W        W45988   5.213  11.328  15.651  0.1508  0.1956  0.2831
30858W        W45989   0.814   4.555  11.460 -0.0390  0.0597  0.2010
30859W        W45990   5.037   3.615  12.550  0.0112 -0.2537 -0.0498
30860W        W45991   7.080  16.347   5.885  0.0023 -0.2384  0.2033
30861W        W45992  10.834  10.345  11.557  0.0205  0.0555  0.1970
30862W        W45993  16.525  15.208   3.938  0.0189 -0.2026  0.0902
30863W        W45994   6.565  13.918  16.737  0.0402  0.0195 -0.0541
30864W        W45995  16.701   8.840  14.371  0.1085 -0.0013 -0.1410
30865W        W45996   2.376   3.065  12.316 -0.2054 -0.1001  0.1357
30866W        W45997   0.314  16.263  14.979  0.1223  0.1033 -0.2695
30867W        W45998  14.403   8.714   0.397  0.1544  0.0737 -0.3141
30868W        W45999   0.050   5.183   5.702  0.1338  0.0739 -0.0207
30869W        W46000   6.518  11.890   1.112 -0.1478  0.1399  0.2207
30870W        W46001   6.133  11.444   5.713 -0.0054 -0.0759  0.1769
30871W        W46002   9.776   8.750   5.400 -0.2996 -0.1574  0.0397
30872W        W46003   2.061   9.052   3.729  0.2028  0.2761 -0.3230
30873W        W46004  12.405  10.454  15.211  0.2043 -0.1985 -0.0771
30874W        W46005   7.250   8.111   2.741 -0.0233 -0.1406 -0.0861
30875W        W46006   1.762   7.562  12.255 -0.1556 -0.0768 -0.1462
30876W        W46007  16.732   1.204   6.326  0.2442 -0.1835  0.0691
30877W        W46008   3.725  13.280   3.896 -0.2882 -0.3605 -0.2734
30878W        W46009  15.948   9.737  16.052  0.2033 -0.1424 -0.0786
30879W        W46010   3.025  13.244   2.432  0.0053  0.0115 -0.1938
30880W        W46011   8.111   6.643  16.896 -0.2422 -0.0955  0.2441
30881W        W46012  10.818   9.815  15.247  0.0337 -0.2087 -0.4087
30882W        W46013   7.972  16.016   3.825  0.1598  0.0846 -0.0184
30883W        W46014  10.552  13.847  12.249  0.2499 -0.3003 -0.2220
30884W        W46015  15.981   4.439   3.094  0.0197 -0.1839  0.3997
30885W        W46016   8.737   0.088   0.707 -0.0430 -0.0324  0.1497
30886W        W46017   3.955  15.772   5.191  0.0253  0.2072 -0.4059
30887W        W46018   5.567   4.462   1.021  0.0525  0.0668 -0.0176
30888W        W46019   4.410   6.360   0.807 -0.0405 -0.0903 -0.0113
30889W        W46020   9.535   9.499  14.265 -0.1274 -0.1088 -0.3503
30890W        W46021  10.065   0.422  14.593 -0.1600 -0.1933  0.2302
30891W        W46022   0.357   4.411  11.601 -0.0586  0.0821 -0.1621
30892W        W46023  14.861   9.188  14.590  0.2471  0.1596  0.0743
30893W        W46024   0.745  13.521   2.328 -0.0180  0.0019  0.0613
30894W        W46025   7.479  17.123   1.581 -0.2929 -0.1050 -0.2753
30895W        W46026  13.383   7.498  16.500  0.3945  0.1168  0.0694
30896W        W46027   1.292  11.491  13.307 -0.2656  0.1364 -0.0844
30897W        W46028  14.271   6.448   1.392 -0.0708 -0.2303 -0.0506
30898W        W46029   1.112   8.506  16.027 -0.1577 -0.1175  0.0676
30899W        W46030   1.501   3.725   0.194 -0.0091  0.0708  0.0831
30900W        W46031  14.945  15.684   3.631  0.0411  0.0645  0.0598
30901W        W46032   8.059   0.457   2.946 -0.0260  0.0237  0.1628
30902W        W46033   3.172   2.737   3.915  0.1168 -0.3571 -0.4240
30903W        W46034   5.717  15.442  12.942  0.0469  0.1116 -0.3674
30904W        W46035  15.177  11.672   5.725 -0.0236  0.2485 -0.0883
30905W        W46036   9.763   9.936   3.172  0.0634 -0.0539 -0.2556
30906W        W46037   9.854   9.010   3.479 -0.1113  0.0678 -0.0367
30907W        W46038   1.833   9.980  16.541  0.2060 -0.1318 -0.1642
30908W        W46039  12.476   2.457   1.902  0.0543 -0.1620 -0.2284
30909W        W46040   9.956  13.967  14.111  0.0832 -0.0332  0.1520
30910W        W46041   7.461  14.617   2.572 -0.1339  0.0980  0.0430
30911W        W46042  11.236   6.425   0.167 -0.1215  0.1943 -0.0497
30912W        W46043   2.319  13.332   1.869  0.1405  0.1459  0.1329
30913W        W46044   9.159   8.474  15.310 -0.1299  0.0607 -0.0490
30914W        W46045   2.390   7.848  16.190 -0.0652 -0.0849  0.1389
30915W        W46046   5.734   8.778   0.584 -0.0114 -0.2388 -0.1515
30916W        W46047   8.638  11.634  13.034  0.3362  0.3903  0.0552
30917W        W46048   0.570  16.821   5.362  0.2438  0.5853  0.1736
30918W        W46049   1.449  10.348   1.117 -0.3093 -0.0618 -0.0798
30919W        W46050   0.027   0.222  14.393 -0.1540 -0.0755 -0.0367
30920W        W46051  15.813   3.114   0.740 -0.3377 -0.0946  0.0865
30921W        W46052  13.335  15.771   0.975  0.1358 -0.1461 -0.1697
30922W        W46053  13.554  10.053  11.404  0.0925  0.1563  0.1368
30923W        W46054   6.489  11.402  11.660  0.0347  0.0725 -0.0770
30924W        W46055   1.871  17.442  14.896  0.2097 -0.0450 -0.3472
30925W        W46056  17.194  13.997  16.345 -0.0959  0.2306 -0.0149
30926W        W46057  11.919   4.733  11.688 -0.0538  0.2234  0.0579
30927W        W46058   7.440   8.079   1.082 -0.3743 -0.1498  0.1208
30928W        W46059   8.793   7.648   1.327 -0.0607  0.1083  0.0721
30929W        W46060   2.090  16.271  12.464 -0.0379  0.0395 -0.3724
30930W        W46061   6.036   7.690   2.541 -0.0453 -0.0369  0.0415
30931W        W46062   4.416  15.911  13.784  0.0156 -0.1881 -0.5177
30932W        W46063  11.949  17.595  16.131 -0.0991 -0.0898  0.3018
30933W        W46064   1.933   4.824  16.472 -0.0314  0.3976 -0.0113
30934W        W46065  12.093  12.341  12.176  0.0940  0.2915  0.3092
30935W        W46066  12.036  15.306   3.674  0.1927 -0.1452 -0.1114
30936W        W46067  11.443  12.290   3.833 -0.2620 -0.0738 -0.0914
30937W        W46068   1.444   3.914  13.243  0.0506 -0.1333  0.1390
30938W        W46069   7.375   1.518  12.281 -0.2051  0.1097 -0.1480
30939W        W46070   7.358  10.170   3.986 -0.0412  0.1179  0.0738
30940W        W46071  10.745  11.586  15.873  0.2076 -0.2298  0.1648
30941W        W46072   4.788   2.778  14.932 -0.2034  0.2392  0.0087
30942W        W46073  16.506   7.507  11.726  0.0036  0.0339  0.0142
30943W        W46074   4.663   7.324   2.345 -0.1501  0.2126  0.0369
30944W        W46075  15.567  12.109  11.618  0.1710 -0.1306  0.0267
30945W        W46076   6.169  13.491  14.876  0.0348  0.1244  0.1417
30946W        W46077  14.216   4.641   3.722 -0.2038  0.0033  0.2998
30947W        W46078   1.575   8.739  16.938  0.0968  0.1243 -0.1695
30948W        W46079   6.653   4.717  16.351  0.0965 -0.2111  0.1702
30949W        W46080  17.285  12.393  12.747  0.1838  0.0545  0.0475
30950W        W46081   6.956  10.085   1.578  0.2303  0.1386 -0.2256
30951W        W46082   5.981  17.657  12.711  0.0037 -0.0636  0.1403
30952W        W46083  12.024  13.984   4.881  0.0255 -0.0159  0.0166
30953W        W46084   0.981  10.541  13.549  0.0249  0.4253  0.0139
30954W        W46085  11.604   8.582   4.114 -0.2340  0.0187  0.0144
30955W        W46086  16.342   0.292  16.461  0.2483 -0.3399 -0.0523
30956W        W46087   3.772  11.949   3.277  0.2491  0.2900  0.2457
30957W        W46088  13.682   1.458   5.786  0.0403  0.1626  0.0730
30958W        W46089   9.030  10.698   4.200 -0.1661 -0.0531 -0.0505
30959W        W46090   6.861   2.479  13.575 -0.2282 -0.1789 -0.0101
30960W        W46091   5.411   8.199  12.300  0.1423 -0.0615  0.1442
30961W        W46092  11.553   0.944  15.139 -0.2659 -0.0082 -0.1773
30962W        W46093   5.507   3.817  16.742 -0.3065 -0.1555 -0.1235
30963W        W46094   8.902   3.028   3.058 -0.1196  0.1952  0.1100
30964W        W46095  16.686   4.314   1.791  0.3374  0.0018 -0.0138
30965W        W46096  12.444  17.505  14.600  0.1976 -0.1690  0.0066
30966W        W46097   6.210  15.002   0.861  0.0041 -0.0189  0.0915
30967W        W46098  12.313   3.520  12.758 -0.1088  0.3433  0.0972
30968W        W46099  16.866  12.731  16.478  0.0699  0.0737  0.0441
30969W        W46100   0.471  12.549   1.423 -0.0479  0.2208  0.1769
30970W        W46101   1.473   1.613   5.536  0.1680  0.1174  0.1389
30971W        W46102   6.121  17.096  15.030 -0.0130  0.0746 -0.1370
30972W        W46103   3.253  16.024  11.187 -0.1178 -0.1219  0.2170
30973W        W46104  14.152   2.343   3.845  0.0311  0.0336 -0.3027
30974W        W46105   1.663  15.253  14.424 -0.2848 -0.1285 -0.0039
30975W        W46106   7.896  16.332   4.247 -0.0123 -0.3110 -0.0028
30976W        W46107   1.034  13.772   1.749 -0.1805 -0.0785  0.2386
30977W        W46108   0.952  17.360  14.675  0.1090  0.0996 -0.1800
30978W        W46109   8.883   6.769  13.284  0.1043  0.0243  0.0135
30979W        W46110   5.242  10.342   5.610 -0.1010 -0.0393 -0.0997
30980W        W46111  14.697   0.496  12.084 -0.0530 -0.0290 -0.2217
30981W        W46112   3.006   5.981   4.108 -0.2640 -0.0635 -0.2198
30982W        W46113  14.510   2.807  11.421 -0.0916  0.1866  0.2220
30983W        W46114   0.615  11.795   4.936  0.0198  0.0456  0.0416
30984W        W46115   4.188   8.596   0.117 -0.0545  0.0127  0.1245
30985W        W46116   1.630  15.579  16.329  0.0201  0.1642  0.1558
30986W        W46117   3.894  16.795   2.693  0.1897  0.0574 -0.1834
30987W        W46118  15.524   9.212   5.052 -0.0434  0.0557  0.0513
30988W        W46119  16.747  13.739   2.446  0.1241 -0.0807  0.0437
30989W        W46120   0.371  16.723  16.745  0.2316 -0.0077  0.2103
30990W        W46121  16.243  14.318   5.626 -0.1900 -0.3731 -0.0516
30991W        W46122   8.303   2.181  14.638  0.0207  0.3218  0.2582
30992W        W46123   6.937  11.467   1.723 -0.1337  0.2865 -0.0867
30993W        W46124   7.109   8.961  14.919 -0.0645  0.0044  0.1956
30994W        W46125  14.565   1.561   3.848 -0.0899  0.2684  0.2192
30995W        W46126   0.487   2.900  14.943 -0.0098 -0.1912  0.1575
30996W        W46127  10.483   9.486  10.712 -0.1962  0.1015  0.1618
30997W        W46128  12.220  17.401   5.533  0.0483 -0.1855  0.0261
30998W        W46129   9.493  16.160  14.313 -0.1415  0.0545 -0.0380
30999W        W46130  10.321   3.011  12.997 -0.0784 -0.1706 -0.3909
31000W        W46131   4.084   3.465   1.377 -0.1162 -0.2110 -0.2400
31001W        W46132   4.624   3.581   1.341 -0.4175  0.2229 -0.1681
31002W        W46133  16.028   2.481   1.813 -0.1856 -0.2034 -0.1078
31003W        W46134   5.841   8.199  16.323  0.2504 -0.0553 -0.1861
31004W        W46135  11.787   5.448   5.644 -0.1895 -0.4114 -0.1672
31005W        W46136   7.118  11.069   4.652 -0.2025 -0.5489 -0.0280
31006W        W46137   7.885   1.652  12.169  0.0943  0.2326  0.3530
31007W        W46138   5.083   5.648  15.985 -0.1960 -0.2398  0.0772
31008W        W46139   5.838   3.345  16.610  0.0983  0.0014  0.0085
31009W        W46140   0.671  12.986   1.531  0.1555 -0.2190 -0.0312
31010W        W46141  13.339   7.751   2.274  0.0163  0.0263 -0.2270
31011W        W46142  15.017   4.893   1.717  0.0146 -0.3080  0.0048
31012W        W46143  12.598   9.876  11.848 -0.0391  0.0330 -0.1889
31013W        W46144   2.051   4.550  14.212  0.1486 -0.1349  0.0623
31014W        W46145   2.227  14.281  16.443  0.0935 -0.0928 -0.0685
31015W        W46146   7.974  10.788  13.555 -0.3753  0.0596  0.1012
31016W        W46147  12.127   9.060   1.086  0.0471  0.2890  0.1676
31017W        W46148  16.607   3.077  16.478  0.1959 -0.0778 -0.1115
31018W        W46149   1.159   3.449   0.474 -0.1593 -0.0464  0.0925
31019W        W46150  16.084  10.429   5.046 -0.1914 -0.0925  0.0137
31020W        W46151   1.260   7.519  14.884  0.2102  0.2759 -0.1807
31021W        W46152   9.634   2.522   1.651  0.0052  0.1515  0.1084
31022W        W46153  12.024  10.323  15.667 -0.0343 -0.3243 -0.0442
31023W        W46154  12.615   6.474   0.664 -0.1844  0.4477  0.2523
31024W        W46155   6.289   6.187  14.925  0.1072 -0.0700  0.2883
31025W        W46156  12.402  17.243  16.389 -0.1038 -0.2130 -0.1036
31026W        W46157   0.265   3.517   2.525  0.5050  0.0441 -0.0059
31027W        W46158   8.056   9.280  14.619 -0.3405  0.2236  0.2291
31028W        W46159  11.324   9.590   1.880  0.3400 -0.3043 -0.2113
31029W        W46160   1.848  16.448  14.343 -0.0378  0.1955  0.1020
31030W        W46161   2.020  10.686   2.197 -0.0737 -0.0668  0.4011
31031W        W46162  11.354   3.290   0.197  0.2588  0.1705  0.1537
31032W        W46163  10.331   9.219  13.413  0.1967  0.2884 -0.2168
31033W        W46164  15.082   3.441   1.025 -0.0308 -0.0264 -0.2393
31034W        W46165   2.953  15.113   0.426  0.0260  0.2523  0.3600
31035W        W46166  16.265   1.787   0.905 -0.2237 -0.0568 -0.1267
31036W        W46167   7.398   0.353   5.850  0.1392  0.2651 -0.0220
31037W        W46168  13.145   5.898   5.467 -0.4582  0.1457  0.0932
31038W        W46169  13.532   4.584   2.012 -0.1452  0.0955  0.0206
31039W        W46170   5.811   1.025  16.719  0.1934 -0.1029 -0.0084
31040W        W46171   8.837   7.326  11.633 -0.3340  0.0610 -0.0251
31041W        W46172   2.775   3.047  15.351 -0.0088 -0.0822  0.2748
31042W        W46173  11.345   4.716  11.829 -0.0133 -0.0586 -0.1211
31043W        W46174   1.327   0.939  13.800  0.1357 -0.2229  0.2303
31044W        W46175   7.665  10.762   2.546  0.2928 -0.1872 -0.1409
31045W        W46176   2.753  12.348  12.041 -0.1232 -0.0891 -0.0401
31046W        W46177   8.659  11.687  15.134 -0.0859 -0.0538 -0.0018
31047W        W46178   3.680  17.019  15.396  0.3627  0.1541  0.1659
31048W        W46179  11.061   5.420  11.380  0.2326  0.0611  0.1808
31049W        W46180  17.439  16.350  16.604 -0.1963  0.1941  0.0302
31050W        W46181   2.065   2.260   3.310 -0.0839  0.0274 -0.0260
31051W        W46182   7.966  16.110  12.646  0.2717  0.2423  0.0370
31052W        W46183   9.777   8.553   2.237  0.3759  0.0684  0.0546
31053W        W46184   2.414  12.776  16.757  0.1624 -0.1169  0.3044
31054W        W46185  17.298   5.843  12.965 -0.2041  0.2272  0.0281
31055W        W46186   8.846   1.460   4.235  0.4172 -0.1371  0.3735
31056W        W46187  12.358  17.657   0.604 -0.0785 -0.4334  0.1935
31057W        W46188   0.440   2.131   5.936  0.4174  0.2680 -0.1042
31058W        W46189  11.877   6.080  11.098  0.2070 -0.0379  0.1124
31059W        W46190  15.869  13.918  15.963  0.2186  0.0418  0.1387
31060W        W46191  14.749  17.700   2.098  0.1003  0.1499 -0.2191
31061W        W46192   7.305   0.928   3.767 -0.0193 -0.0187  0.0453
31062W        W46193  10.951   0.722   0.175  0.3240 -0.0767  0.0382
31063W        W46194  13.218   9.080   1.719  0.1041  0.0011 -0.0927
31064W        W46195   8.510   2.997  13.033 -0.2172  0.2671  0.3649
31065W        W46196  14.762  12.363   2.351 -0.2049 -0.1194  0.0206
31066W        W46197  16.361   4.075  16.798  0.1124  0.1152 -0.2248
31067W        W46198  10.878   4.182   1.054 -0.0144  0.0978  0.0789
31068W        W46199  17.594   2.025  13.327  0.0166 -0.2325 -0.1829
31069W        W46200   2.699   7.922  10.955 -0.1047 -0.2402  0.1113
31070W        W46201   3.803  15.558   3.052 -0.0387 -0.2661  0.0249
31071W        W46202   7.711  15.232   0.740 -0.2871 -0.0775  0.1486
31072W        W46203   0.905   0.066   4.053  0.2065 -0.0456 -0.1162
31073W        W46204  13.091  15.367   4.489 -0.2215 -0.0459 -0.3488
31074W        W46205   2.907   3.641  11.941 -0.1636 -0.0525 -0.0395
31075W        W46206   3.091  13.216  12.105 -0.2516 -0.1535 -0.0252
31076W        W46207   2.243  11.900   3.762  0.0921 -0.2544 -0.0017
31077W        W46208   7.702   4.337   1.825 -0.1658 -0.2551  0.0130
31078W        W46209   2.769  10.099   4.001  0.3180  0.0008 -0.5344
31079W        W46210  14.514   4.485  14.199 -0.1478 -0.1235 -0.2132
31080W        W46211   6.427  16.661   0.570  0.1165  0.1580 -0.0984
31081W        W46212  12.100  15.628  12.645 -0.0843 -0.2180 -0.1458
31082W        W46213   3.370  13.187  13.570  0.0044 -0.1045 -0.2478
31083W        W46214   6.196  10.318  15.676 -0.2442 -0.0973  0.2177
31084W        W46215  15.997  15.719   1.022  0.2176  0.1162 -0.2374
31085W        W46216  14.271  14.597   5.791  0.1044  0.0505  0.1767
31086W        W46217   2.913   5.876  16.095  0.0492 -0.1738 -0.1020
31087W        W46218  15.710  12.737   0.034 -0.0862  0.0753  0.2169
31088W        W46219   9.133  11.613  15.489 -0.1932 -0.1658  0.1880
31089W        W46220  10.008   2.732   2.352 -0.0616  0.1540  0.1262
31090W        W46221  16.672  15.885  16.047 -0.3032 -0.0400 -0.1666
31091W        W46222  11.118   2.514   1.843  0.0868 -0.1476 -0.2563
31092W        W46223   7.770   8.980  12.366 -0.3673  0.1059 -0.0361
31093W        W46224  12.707  14.838  13.482  0.0325  0.2082 -0.2871
31094W        W46225  15.036  15.192   3.476  0.0359  0.3508 -0.0616
31095W        W46226   2.397   2.541  11.666  0.0649 -0.2651  0.0758
31096W        W46227   4.022   2.947  15.626  0.1084 -0.0112 -0.0100
31097W        W46228  15.520  15.503  15.053  0.1831 -0.0666 -0.2446
31098W        W46229  11.661  16.090  13.710 -0.1631  0.2654  0.1014
31099W        W46230  14.731  13.405   4.847  0.0823  0.1878 -0.0081
31100W        W46231  14.161   1.502  12.289  0.1731 -0.1207 -0.1601
31101W        W46232  13.664  13.972   2.384  0.1340  0.4092  0.0226
31102W        W46233   2.892   7.586  15.428  0.3813 -0.0624 -0.1876
31103W        W46234   5.307   5.199  16.270 -0.5151 -0.0763 -0.3619
31104W        W46235   1.812   5.501  13.260  0.0390  0.1328 -0.3940
31105W        W46236   4.430  12.029  12.620 -0.2614  0.1836  0.0671
31106W        W46237   7.866  12.359   4.108 -0.0150  0.0914 -0.0878
31107W        W46238   3.204   8.148  14.341  0.0253 -0.4087  0.1705
31108W        W46239  11.297  17.184  14.763  0.4268 -0.2209  0.0177
31109W        W46240   9.751  13.797   5.954 -0.3933 -0.0754 -0.0892
31110W        W46241   5.203   2.151  12.084  0.3356  0.1615 -0.0002
31111W        W46242  17.388   3.158  12.947 -0.0253 -0.0119 -0.0303
31112W        W46243  15.968   2.013  16.535 -0.0954  0.0976  0.1389
31113W        W46244  10.624   2.894   4.638 -0.1312 -0.1535 -0.0428
31114W        W46245   7.433  17.340   5.347  0.0688  0.0069 -0.0140
31115W        W46246  16.722   4.656   1.320 -0.3097 -0.0280 -0.0090
31116W        W46247  10.697   9.018   5.282  0.1555  0.4318 -0.3722
31117W        W46248   2.462   5.165  14.874 -0.2295 -0.2124  0.1053
31118W        W46249   5.460   3.261  13.880 -0.2742 -0.1872 -0.0113
31119W        W46250  11.403  12.942   4.508  0.1698 -0.1706 -0.1180
31120W        W46251   7.339  17.187  15.071  0.0506 -0.0815 -0.0747
31121W        W46252  16.378   6.251  13.081 -0.1167  0.1430  0.0785
31122W        W46253  16.323   0.561  15.230  0.1662  0.0552 -0.1111
31123W        W46254  15.308   2.057  12.186 -0.1491 -0.2251 -0.0756
31124W        W46255  12.395  11.866  11.395  0.0798 -0.2280 -0.0220
31125W        W46256   7.398   5.737  12.192  0.2176  0.0595 -0.1474
31126W        W46257   0.968   8.503   1.384 -0.1137  0.1351  0.0719
31127W        W46258   5.581   7.863   3.183 -0.1489 -0.1425  0.0305
31128W        W46259   4.916  13.413   0.816 -0.1060 -0.1469 -0.0480
31129W        W46260  16.424  16.159   1.814  0.1869  0.2305 -0.0031
31130W        W46261   0.485   7.292  11.878  0.0195  0.3517  0.1849
31131W        W46262  10.179   5.318   4.546 -0.3216  0.1847  0.0211
31132W        W46263   9.359   5.389   2.397 -0.3659  0.2296 -0.0784
31133W        W46264   8.856  11.603  13.823 -0.2089 -0.1439 -0.2754
31134W        W46265   7.206   9.724  10.775 -0.0822  0.1684 -0.0162
31135W        W46266  15.988   2.688   5.595 -0.1842  0.0200 -0.2482
31136W        W46267   8.883  11.879   4.592  0.0221 -0.1174 -0.1927
31137W        W46268   5.199   4.940   2.754 -0.0355  0.2633  0.2176
31138W        W46269   6.104   7.260   3.297  0.1929  0.1185 -0.0944
31139W        W46270  10.333   3.313  14.909  0.1154  0.0836 -0.0498
31140W        W46271   8.124   3.234  15.982  0.3221  0.0131 -0.2221
31141W        W46272  16.842   8.569   2.655  0.1330 -0.3221 -0.0238
31142W        W46273  12.172   8.109   0.976 -0.1298  0.0523  0.0009
31143W        W46274   9.470  12.159  15.474 -0.1051 -0.1501  0.0145
31144W        W46275   8.473   6.144   2.799  0.1216 -0.0287 -0.0073
31145W        W46276  11.624   3.842  16.039 -0.0213  0.1336  0.2024
31146W        W46277   0.214  14.496  12.458 -0.0931 -0.1533  0.1480
31147W        W46278   9.989  17.553  14.453  0.0827 -0.1674  0.0865
31148W        W46279  13.641  14.156  13.244  0.0032  0.0004  0.0190
31149W        W46280  17.280  16.503  13.772  0.0770  0.0571  0.1716
31150W        W46281   0.641  16.248  16.863 -0.2451  0.1142  0.1946
31151W        W46282   7.056   7.178   0.108 -0.0319  0.0055 -0.2069
31152W        W46283  13.931   0.464   5.756 -0.0617  0.2670  0.0448
31153W        W46284  15.575  10.504   1.098  0.1502  0.1988  0.2052
31154W        W46285   3.101   3.264  13.576  0.2167 -0.0530 -0.2734
31155W        W46286   2.636   5.549  10.044 -0.0612  0.0408 -0.0577
31156W        W46287   0.087   6.190   6.054 -0.1336  0.2664 -0.2188
31157W        W46288   1.477  13.230  16.544  0.0834  0.4076  0.1425
31158W        W46289  14.019   1.773   4.716 -0.2036 -0.2538  0.1350
31159W        W46290   6.027   2.246  13.273  0.2011  0.0043 -0.0450
31160W        W46291  15.399   0.037   4.894  0.1451  0.1172  0.2310
31161W        W46292   4.790  17.114  12.352 -0.1623 -0.2140 -0.2254
31162W        W46293   1.728   4.182  14.527 -0.0465  0.2587  0.1626
31163W        W46294   1.050  16.765   3.825  0.1261 -0.5110  0.0737
31164W        W46295  13.653   2.952   4.043  0.1935 -0.0912 -0.3593
31165W        W46296  12.124  14.500   5.126  0.3514  0.2541  0.3620
31166W        W46297  15.804  15.390   4.084  0.2429 -0.1363 -0.0290
31167W        W46298   9.075  13.561  12.711  0.3364  0.2548  0.0310
31168W        W46299   1.230   3.305  13.655 -0.1547  0.1431  0.0747
31169W        W46300   6.584  15.861   3.148  0.0160  0.0395 -0.2249
31170W        W46301   3.621  16.942   2.269 -0.0817 -0.2265  0.0202
31171W        W46302   2.038   6.361   4.356  0.1730 -0.1079 -0.2284
31172W        W46303   8.183   3.581  16.683  0.0933 -0.1959 -0.0720
31173W        W46304  10.897  17.372   0.342 -0.2297  0.0394 -0.0017
31174W        W46305   9.303  13.363  15.083 -0.3571  0.1943 -0.3374
31175W        W46306   6.468  11.522  15.217  0.1273  0.0511 -0.0725
31176W        W46307  11.567   5.556  12.031  0.1354 -0.1831  0.0308
31177W        W46308  11.207   9.528  14.964  0.1013  0.1699  0.0526
31178W        W46309   5.357   8.164   1.204  0.0615 -0.0305  0.0631
31179W        W46310   5.657   4.022   3.789 -0.3138  0.0284  0.1766
31180W        W46311   2.057   1.049  11.751  0.4309 -0.1860 -0.1060
31181W        W46312   4.036  10.240  13.901 -0.1587  0.0211  0.1455
31182W        W46313   8.000  10.825  16.078  0.2439  0.0027 -0.0914
31183W        W46314  13.605   8.746   0.714 -0.1167 -0.0808  0.0462
31184W        W46315   8.026   0.715  15.379 -0.2811  0.2074  0.1432
31185W        W46316  13.908  12.276   2.464  0.2570  0.1411 -0.0562
31186W        W46317  13.676   1.947   1.249 -0.0545 -0.2521 -0.0926
31187W        W46318  10.128  16.924   7.047 -0.2011 -0.2555  0.1300
31188W        W46319   0.181   2.501  10.742  0.0446  0.0131  0.0583
31189W        W46320   7.667   7.225   3.638  0.2678 -0.2860  0.1859
31190W        W46321   5.776   3.782  11.579  0.0311 -0.2638 -0.3054
31191W        W46322   8.397   7.671   3.370  0.2582 -0.0232 -0.1946
31192W        W46323   9.314   1.231  11.657  0.3112  0.0149 -0.0571
31193W        W46324   4.496  10.416   0.222  0.3713 -0.0165 -0.2124
31194W        W46325   8.048  11.197  14.105  0.0842 -0.2046 -0.0148
31195W        W46326   7.167   4.636  16.539 -0.3035 -0.0271 -0.0130
31196W        W46327   1.508   5.667   0.176  0.0140 -0.0895  0.0069
31197W        W46328  10.236  14.423  12.865 -0.2242  0.0028 -0.2391
31198W        W46329   2.295  15.558  12.173 -0.1717  0.0599  0.2265
31199W        W46330  11.634  10.507  14.612  0.0937  0.1535 -0.1580
31200W        W46331   7.481  15.421  15.572 -0.1628  0.2313  0.1106
31201W        W46332   5.887  16.735  11.501 -0.2168  0.1555 -0.0254
31202W        W46333   5.929  11.973   3.656 -0.3094 -0.3367 -0.1613
31203W        W46334   2.256   6.144  12.588  0.1488  0.0692 -0.1599
31204W        W46335   6.371   4.567   0.253 -0.0138 -0.4995  0.1055
31205W        W46336  15.051  17.452  11.757  0.0248 -0.2449  0.4464
31206W        W46337  14.228  11.768   0.565 -0.3028  0.3551  0.0083
31207W        W46338   9.149   1.206  15.285 -0.1465 -0.2284  0.1985
31208W        W46339  12.168  11.147   2.680 -0.1523  0.0842  0.0847
31209W        W46340  16.236   5.428  14.631 -0.1436  0.2332 -0.3084
31210W        W46341   7.965   8.421   1.974 -0.2695 -0.0712  0.1360
31211W        W46342   4.608   9.844   3.556  0.2959  0.0241  0.1112
31212W        W46343  16.666  13.942   1.821  0.0079 -0.1198 -0.3166
31213W        W46344  15.290   8.775  13.009  0.0491 -0.1343 -0.3047
31214W        W46345   3.168   3.427  14.449 -0.3105 -0.1796 -0.1434
31215W        W46346  10.547  14.985   3.100  0.1780  0.2007  0.0420
31216W        W46347  17.536   6.599  13.970  0.0265  0.3143  0.1212
31217W        W46348   8.353   7.476   1.568 -0.0898 -0.1021 -0.3299
31218W        W46349   2.312   4.698  12.981 -0.2210  0.2780 -0.0072
31219W        W46350   8.389   9.130  15.398 -0.0490 -0.0435  0.1164
31220W        W46351   5.139   8.952   1.682 -0.0101 -0.0474 -0.0558
31221W        W46352  17.581   5.632   0.920  0.3192 -0.0386 -0.3341
31222W        W46353   4.412  10.564  14.141  0.0472 -0.0673  0.0165
31223W        W46354   6.027  17.003   1.715  0.1522  0.0741 -0.0402
31224W        W46355   3.561  14.323  12.524  0.2249  0.0375 -0.2411
31225W        W46356   0.732   6.149   2.036 -0.0893  0.1480  0.1805
31226W        W46357   5.634  15.198  12.282  0.1345 -0.1257 -0.0039
31227W        W46358   3.215  14.679   0.353  0.2139  0.2477 -0.0369
31228W        W46359   5.607  10.762   5.495  0.0317  0.0613 -0.2605
31229W        W46360  16.895  11.570   0.758 -0.0511 -0.1891 -0.4747
31230W        W46361  17.635  17.680  15.617 -0.0380 -0.2164  0.2517
31231W        W46362  11.085  17.521   1.249 -0.1520  0.0627 -0.1378
31232W        W46363   1.684   2.399  14.733  0.0867  0.3448 -0.0454
31233W        W46364  16.021   5.514   1.363  0.0236 -0.1831  0.2246
31234W        W46365   3.107   9.239   0.680  0.0410 -0.0301 -0.0555
31235W        W46366  16.104  16.752   6.163  0.3352 -0.1792 -0.1887
31236W        W46367  11.762   2.105   3.163  0.1662 -0.0005 -0.1599
31237W        W46368  14.631  16.219   3.464  0.1619 -0.1764  0.0853
31238W        W46369   5.214  10.395   3.981  0.1465  0.1084  0.2299
31239W        W46370   3.931  11.260   0.611  0.1692 -0.2179 -0.0407
31240W        W46371  14.918   1.774  13.632  0.0446  0.0625 -0.1232
31241W        W46372  12.795   3.824   4.256 -0.1155 -0.0080  0.1589
31242W        W46373  10.225  11.200   2.873 -0.0747  0.2522  0.0837
31243W        W46374  10.674  11.786   5.485  0.0109 -0.2581 -0.0781
31244W        W46375   7.235   3.605  12.267 -0.0602  0.0407  0.2479
31245W        W46376  15.564   6.939   5.581  0.0029  0.2528  0.2667
31246W        W46377   4.696   7.634   1.939  0.1475 -0.0438  0.0239
31247W        W46378  17.523   2.384  10.432 -0.0713  0.1835  0.2569
31248W        W46379   7.870   7.989   3.242 -0.2398  0.1515 -0.1507
31249W        W46380  15.034   0.496  13.533  0.0760  0.1193 -0.2006
31250W        W46381   4.338   5.787   4.459 -0.0528 -0.3008 -0.0058
31251W        W46382   3.934   7.579  13.351  0.1220 -0.3694  0.0755
31252W        W46383   2.320  14.039   5.912 -0.0039 -0.0380  0.0377
31253W        W46384   2.582   1.562  12.256  0.0945 -0.4101  0.1235
31254W        W46385   1.287  11.163  15.421  0.0573  0.0811 -0.1263
31255W        W46386   0.873  17.240   3.936  0.3108 -0.0140  0.0130
31256W        W46387   9.842   0.709   4.674 -0.3482 -0.2506 -0.0337
31257W        W46388  12.905   3.250   2.177  0.2105 -0.1027  0.1710
31258W        W46389  12.125   7.902  14.239 -0.3644  0.0948 -0.1962
31259W        W46390   2.250   1.015  13.510 -0.1675  0.0593  0.0409
31260W        W46391  13.937   1.596  15.564 -0.1038  0.2665 -0.0147
31261W        W46392  10.911   7.108  12.244 -0.2112 -0.1082  0.1613
31262W        W46393  12.157   2.001  10.802  0.1293 -0.1792  0.0670
31263W        W46394  13.176   3.176  14.064 -0.2930 -0.1593  0.0448
31264W        W46395   6.351  10.544  11.607  0.0908  0.1751  0.0294
31265W        W46396  10.202  13.353   2.991 -0.1875 -0.0475  0.0472
31266W        W46397   4.425  13.895   4.128 -0.3682  0.0431 -0.0343
31267W        W46398   2.223  11.230  14.383  0.0383  0.0745 -0.1220
31268W        W46399   4.057   9.132   3.651 -0.3282 -0.0185 -0.2055
31269W        W46400   4.175  16.450   5.502 -0.0656  0.0440 -0.0894
31270W        W46401   2.083   0.941   0.674  0.2005 -0.1213  0.0267
31271W        W46402   8.444   7.447   5.212 -0.0697 -0.0167  0.1363
31272W        W46403  12.805  16.225  15.161  0.0474 -0.1470  0.0131
31273W        W46404   9.498  11.231  13.356 -0.0330 -0.0824  0.1116
31274W        W46405  17.499   5.008  16.125  0.3196  0.3338  0.2714
31275W        W46406  13.345   7.788  15.036 -0.1419  0.0425  0.0451
31276W        W46407   1.182   5.157   1.109 -0.0329  0.1480 -0.1076
31277W        W46408  13.199  11.230   1.071  0.1756 -0.1791 -0.0722
31278W        W46409  14.470  17.100   3.344 -0.0375 -0.1055 -0.1124
31279W        W46410  14.179  13.978  14.981  0.0987  0.2240  0.1514
31280W        W46411  10.401   8.107   1.538 -0.2729  0.2423 -0.3726
31281W        W46412  15.825   6.686  12.422 -0.0947 -0.1029 -0.3701
31282W        W46413  17.292   7.998  12.331  0.1409  0.0366 -0.4871
31283W        W46414   4.610   3.087  11.216 -0.1840  0.1561 -0.0416
31284W        W46415  15.893   7.102   5.265  0.1729 -0.4102 -0.0543
31285W        W46416  16.012  15.110  12.876 -0.2092 -0.1966 -0.0940
31286W        W46417   7.488   9.850  15.824 -0.1022 -0.1597 -0.2570
31287W        W46418  10.818  15.789   5.800  0.1182 -0.4715 -0.1620
31288W        W46419   8.078   1.000   5.054  0.1639 -0.2336 -0.1763
31289W        W46420  15.231   9.296  15.711  0.0341 -0.3667  0.0702
31290W        W46421  12.815  14.057   2.409  0.0462  0.1991 -0.0761
31291W        W46422  16.170   4.545   4.093 -0.0134 -0.3731  0.0034
31292W        W46423   3.824   0.549  12.725  0.1729 -0.0623  0.3668
31293W        W46424   4.034   6.180   0.499  0.2946 -0.0224  0.2579
31294W        W46425   0.346   7.537   2.095  0.0302 -0.1808  0.2228
31295W        W46426   4.049   2.412  15.946 -0.2289 -0.0434 -0.0629
31296W        W46427   0.217  13.449  16.875 -0.3157  0.2939 -0.0794
31297W        W46428  16.452   2.413  11.272 -0.2627  0.0106  0.3034
31298W        W46429  13.196   0.626  11.902  0.0178  0.1403  0.0680
31299W        W46430  16.370  10.039  16.907 -0.0625  0.0372  0.0648
31300W        W46431   9.182   2.501  16.111  0.0717 -0.2194  0.0097
31301W        W46432  16.607   0.999  16.895 -0.1001  0.2164  0.0709
31302W        W46433  12.607   9.257  12.495  0.2201 -0.4112 -0.1111
31303W        W46434   2.724   8.485   5.585 -0.0398  0.0103  0.1900
31304W        W46435  10.814   9.318   5.891 -0.2025  0.2318 -0.0544
31305W        W46436   9.777  17.479  16.186  0.1333 -0.2158  0.0038
31306W        W46437  10.832   4.397   2.178 -0.2058  0.0984 -0.0408
31307W        W46438   3.311  17.527   5.892 -0.5927 -0.0641 -0.0727
31308W        W46439   5.849  15.852  15.206 -0.3263 -0.3259  0.0161
31309W        W46440   6.884  15.890   6.192  0.3468 -0.0281 -0.0035
31310W        W46441   9.958   5.890   5.966 -0.1568  0.2897  0.1523
31311W        W46442  14.413   6.089   1.068  0.0887 -0.1162 -0.2374
31312W        W46443  16.445   4.057   1.361 -0.0840  0.2992 -0.0235
31313W        W46444   1.247  15.892  12.387  0.1871 -0.1591  0.2654
31314W        W46445  10.157   5.670   3.700 -0.4438  0.0390 -0.0444
31315W        W46446   9.625   5.067   5.680 -0.1336 -0.0766 -0.1023
31316W        W46447  15.331   9.021   3.485  0.2704  0.1199  0.2073
31317W        W46448   0.408   6.679  13.030 -0.1570 -0.2302 -0.4062
31318W        W46449   8.386  14.105   5.851  0.0982  0.2877  0.1777
31319W        W46450   3.559   5.623  13.997 -0.1953 -0.1673 -0.1222
31320W        W46451   9.493  13.997  14.067  0.1380 -0.3419 -0.2339
31321W        W46452   3.461  14.699   4.511 -0.2496  0.1663  0.1389
31322W        W46453  17.286   6.107  13.473 -0.1759 -0.0812  0.2451
31323W        W46454  11.734   4.319  13.125 -0.0504 -0.3127  0.1838
31324W        W46455   5.562  15.627  14.819  0.0780  0.0121  0.2676
31325W        W46456   2.335  15.119  15.478 -0.1687  0.1643 -0.0445
31326W        W46457  10.027  14.597  13.270  0.0545 -0.1476 -0.4556
31327W        W46458  17.091  13.400  13.419 -0.0543 -0.0802 -0.0461
31328W        W46459   7.303   3.039   4.342  0.0419 -0.3769 -0.0019
31329W        W46460  14.255  17.621  14.437  0.0733 -0.1975 -0.0717
31330W        W46461   3.209   5.973   1.464 -0.1706  0.2193 -0.2014
31331W        W46462  10.225   6.958  11.438 -0.0091  0.1001 -0.1322
31332W        W46463  11.124   3.903  13.315  0.1699  0.0789 -0.1242
31333W        W46464  11.330  14.757  14.714 -0.0957 -0.0911  0.2164
31334W        W46465  11.436  10.820  10.523 -0.0618 -0.2442 -0.0639
31335W        W46466  16.667  15.018  11.731  0.0993  0.2520  0.0772
31336W        W46467   8.185   9.298  12.177  0.1947 -0.1915  0.1536
31337W        W46468  10.109   4.233   4.619 -0.2423 -0.2461 -0.1665
31338W        W46469   0.645   6.162   4.236  0.0713 -0.1001  0.2029
31339W        W46470   4.317   2.740  14.726  0.0970  0.0532  0.2131
31340W        W46471  10.401  17.179   2.916  0.2998  0.2793  0.0112
31341W        W46472   7.957   2.556   0.421  0.1608 -0.2037  0.0728
31342W        W46473   8.822   0.636   6.102 -0.1927 -0.1747 -0.0255
31343W        W46474   3.345  12.862   1.680 -0.1758 -0.1390  0.2624
31344W        W46475   5.080   2.375  16.526 -0.2049 -0.0130 -0.2282
31345W        W46476  10.617  17.551   3.213  0.2468 -0.0288  0.0942
31346W        W46477  15.362   2.407  11.342  0.0417  0.1856 -0.0763
31347W        W46478  11.796   1.499   3.430 -0.0131  0.2338 -0.0035
31348W        W46479   0.289  10.117   5.134  0.0624 -0.2353  0.0687
31349W        W46480  11.865  13.338   1.002 -0.1328  0.0665 -0.1793
31350W        W46481   2.481   8.899   2.725  0.3665 -0.3619 -0.4260
31351W        W46482   3.325   5.354  15.947 -0.1915  0.1575 -0.2060
31352W        W46483  16.742   6.588   1.293  0.1007  0.2095  0.0259
31353W        W46484  15.393   2.133  16.039  0.2730  0.0757 -0.0275
31354W        W46485   5.589  16.766   1.402 -0.0170  0.1604 -0.3009
31355W        W46486   2.416   9.454   2.354 -0.3782  0.1140  0.0866
31356W        W46487  14.099  15.420  16.742 -0.0646  0.0700  0.1303
31357W        W46488   2.497  16.475  13.088 -0.0704  0.2796 -0.0193
31358W        W46489   7.512  13.724  16.047  0.3440 -0.1863 -0.5523
31359W        W46490  17.026   5.890  11.913  0.3215 -0.1291  0.0113
31360W        W46491  15.973   0.033   1.288 -0.1502 -0.1284 -0.2380
31361W        W46492  11.420  11.241  15.111 -0.0498  0.2399 -0.1040
31362W        W46493   1.933   2.541   4.781  0.1074  0.2045  0.1019
31363W        W46494   1.531   5.848  15.174  0.0185  0.0809  0.2839
31364W        W46495   3.423   2.247   0.745  0.1532  0.0855  0.0074
31365W        W46496   3.087  10.336   5.489 -0.0131 -0.1220 -0.0061
31366W        W46497  15.613   9.041   1.056 -0.3036 -0.1218 -0.0330
31367W        W46498   4.376  14.717   1.390 -0.1740 -0.1062  0.1039
31368W        W46499   0.322   8.305  15.697  0.4104  0.0897  0.0780
31369W        W46500   3.298   2.531  14.037  0.1009  0.0055  0.3081
31370W        W46501   3.907   3.296  13.867  0.1415  0.0198  0.2978
31371W        W46502   2.327  10.346   3.116 -0.0475  0.0447  0.0560
31372W        W46503  11.779  14.737   5.554 -0.0324 -0.1234  0.0249
31373W        W46504  10.766  16.880   0.456  0.1611 -0.2768 -0.2777
31374W        W46505   9.448   5.832  11.080  0.0872 -0.0321 -0.0013
31375W        W46506   6.388  16.843   5.931 -0.4473 -0.0227 -0.0655
31376W        W46507   3.535   3.411   1.374 -0.0475  0.2437 -0.4442
31377W        W46508  11.972   7.756   3.032  0.0318  0.0138  0.1694
31378W        W46509   0.751  13.283  14.596 -0.7131  0.1651 -0.1544
31379W        W46510   5.198   3.196  14.702  0.1492  0.3051  0.2173
31380W        W46511  14.182   1.741   5.234  0.1335 -0.1082  0.0149
31381W        W46512   2.051  15.741   3.644  0.2185  0.2362 -0.5424
31382W        W46513  10.016   2.664  12.224  0.0590 -0.1928 -0.2184
31383W        W46514   5.906   9.058  12.669 -0.1877 -0.1289  0.0014
31384W        W46515   9.018  15.940   0.097 -0.2673 -0.1826  0.1501
31385W        W46516  17.151  10.811   0.487 -0.1618 -0.2126  0.0253
31386W        W46517   0.762  17.335  14.238 -0.0033 -0.0160 -0.1495
31387W        W46518   2.127   6.873  14.386 -0.1530 -0.0882  0.2693
31388W        W46519  15.516   6.786  15.494  0.0494 -0.0977  0.0633
31389W        W46520   3.870  11.365  15.252 -0.1681  0.1525 -0.0828
31390W        W46521   5.716   8.062   3.754  0.1688 -0.1004 -0.2149
31391W        W46522   1.566   9.589   3.254  0.1526  0.0105 -0.0995
31392W        W46523   9.408  11.248  12.482  0.0772  0.0757  0.0355
31393W        W46524   3.635  15.771  13.110 -0.2710  0.0150 -0.0915
31394W        W46525   2.510   5.576  14.479 -0.0401 -0.2280 -0.0789
31395W        W46526  15.921   2.732  15.714 -0.0369 -0.0526 -0.0592
31396W        W46527   2.583   5.582  13.344 -0.1429  0.0567  0.1773
31397W        W46528   2.799  10.806   4.534  0.2152  0.0219 -0.2733
31398W        W46529  14.485  16.715   1.684 -0.0267 -0.0318  0.1234
31399W        W46530   4.367   5.330  12.938  0.0962 -0.1277  0.0128
31400W        W46531  12.420  17.626  16.801  0.0002 -0.1323  0.3409
31401W        W46532   4.143   7.678   4.668 -0.5747 -0.0575 -0.1795
31402W        W46533   7.064  14.263   3.085 -0.0810  0.1439 -0.3015
31403W        W46534  15.697  13.365   5.588 -0.0151 -0.2078 -0.0582
31404W        W46535   9.426  16.244  14.798 -0.2666  0.2389  0.1285
31405W        W46536   4.885   7.985   3.703 -0.3762  0.0047  0.0714
31406W        W46537  12.692   7.346  14.767  0.0488  0.1075 -0.0319
31407W        W46538  16.931  12.119  11.570  0.2600 -0.0039 -0.0824
31408W        W46539   6.555   5.841   0.514 -0.0458 -0.1837  0.3008
31409W        W46540   0.065  17.336   6.203  0.1132  0.0683 -0.2566
31410W        W46541   3.923  16.534   1.748 -0.0596  0.0624 -0.1290
31411W        W46542   9.995   9.847  11.479  0.1300  0.0124  0.0593
31412W        W46543  14.637   2.608   2.652  0.1327  0.0086  0.0212
31413W        W46544   9.839   0.160  12.983  0.0999  0.0716  0.0375
31414W        W46545  12.699   1.192  11.625  0.1531  0.0948 -0.0813
31415W        W46546  15.759  10.551  12.935  0.0999  0.3138 -0.0776
31416W        W46547   7.228   8.697  13.010 -0.1164  0.0377  0.0668
31417W        W46548  10.413   9.528  16.520 -0.1390 -0.2564 -0.0498
31418W        W46549  11.129   6.791   2.803 -0.1977 -0.0847 -0.2283
31419W        W46550  14.257  17.546   2.086  0.1239 -0.1659  0.2952
31420W        W46551  14.669  11.998   0.432 -0.2166 -0.0219 -0.0564
31421W        W46552  10.284  12.189  12.940  0.1667  0.1760 -0.1062
31422W        W46553   4.481  10.397   2.791 -0.1347 -0.2204 -0.2408
31423W        W46554  17.148   3.004  16.818  0.2554  0.1072 -0.2888
31424W        W46555   0.727  16.506   3.522  0.1400  0.0753 -0.0048
31425W        W46556   1.115  16.952   5.427 -0.3984 -0.0245 -0.2062
31426W        W46557  10.610   9.380   1.145 -0.3187 -0.1215 -0.1285
31427W        W46558  14.111   4.930  13.167 -0.1098  0.1220 -0.0788
31428W        W46559   5.100  13.448   4.890 -0.0044 -0.0356  0.0610
31429W        W46560  14.859   8.409  12.092 -0.1092  0.0085 -0.0526
31430W        W46561  10.649   8.893   0.394  0.0214  0.2207  0.3235
31431W        W46562   2.444  11.496   3.455 -0.1354  0.2664  0.3338
31432W        W46563  13.928   3.676   5.161  0.1387  0.0057 -0.0013
31433W        W46564   6.668   2.832  15.912 -0.0785  0.1270 -0.0879
31434W        W46565  13.496   9.070  15.294  0.0969  0.0235  0.0427
31435W        W46566   5.929  10.601   5.108 -0.2570  0.0890 -0.1231
31436W        W46567   4.685   9.377  11.961  0.1949 -0.0675 -0.1623
31437W        W46568  12.052  16.374   0.113  0.0169 -0.2450 -0.0423
31438W        W46569   9.877   1.191   2.119 -0.0016 -0.1266  0.0121
31439W        W46570  14.178   6.626  13.458  0.1270  0.1558 -0.1500
31440W        W46571  10.218   9.731  15.536 -0.0659  0.1434  0.0065
31441W        W46572   9.058   5.560  15.320  0.0964  0.0012 -0.2407
31442W        W46573  13.304   4.116   4.358 -0.1293  0.0026 -0.1653
31443W        W46574  11.920  10.464   5.418 -0.1997 -0.1729  0.0022
31444W        W46575  16.151   7.333   0.118  0.1254  0.1512  0.0481
31445W        W46576   1.186  14.932   1.407  0.0921 -0.2972 -0.0951
31446W        W46577  16.349   8.605  12.787 -0.1746  0.1108  0.0501
31447W        W46578  15.651   8.770  11.947  0.1157  0.1945 -0.2335
31448W        W46579  15.049  13.258   5.238 -0.1122  0.0533 -0.2434
31449W        W46580   2.206  12.379  15.970 -0.0990  0.2446  0.1617
31450W        W46581  11.491  17.346   1.931  0.1784 -0.1473  0.1398
31451W        W46582  15.867  15.137  15.143 -0.0089  0.0263 -0.0938
31452W        W46583  14.108  15.077   0.774  0.1583  0.2045 -0.0937
31453W        W46584   7.059  17.447   2.467 -0.0109 -0.1011  0.2346
31454W        W46585   0.709  14.281  15.463  0.3659  0.2646 -0.4959
31455W        W46586  10.531  10.775  14.404  0.1366 -0.1793  0.0665
31456W        W46587  17.374   9.743  13.355  0.0992  0.2418  0.1587
31457W        W46588  15.183  11.676   0.848 -0.1431 -0.0165 -0.1612
31458W        W46589   4.045  14.988  13.241  0.2330 -0.0000 -0.0720
31459W        W46590  14.498  11.107  13.550 -0.0363 -0.0107  0.0194
31460W        W46591  10.960  16.844   5.772  0.2582 -0.3497  0.2339
31461W        W46592   0.630  11.039   6.067  0.0673  0.1884  0.1112
31462W        W46593   4.543   9.998  14.779  0.2403  0.2155 -0.0438
31463W        W46594  10.200  15.275   0.155  0.0790  0.2053 -0.2304
31464W        W46595  14.558  14.142  12.620 -0.0052  0.0670 -0.0937
31465W        W46596  10.239  15.881  16.296 -0.1165 -0.1672  0.0266
31466W        W46597   5.906   5.653  15.648  0.0870  0.2608 -0.0716
31467W        W46598  17.318   2.463  13.436 -0.0924 -0.1203 -0.0950
31468W        W46599   2.273  13.157  15.636 -0.0939 -0.1262  0.1606
31469W        W46600  10.968  13.287  15.482 -0.2550  0.0312 -0.1330
31470W        W46601   2.524   0.599  13.358 -0.0443  0.0759 -0.2386
31471W        W46602   9.256   1.302  10.760 -0.0538 -0.1283  0.3808
31472W        W46603  13.795   6.939   2.379  0.0293 -0.1156  0.0642
31473W        W46604  16.707   7.182   3.779  0.2352  0.0319 -0.0930
31474W        W46605  13.172   8.735   3.785  0.1611  0.2233  0.2193
31475W        W46606  14.132  16.452   5.220 -0.0116 -0.2262 -0.1089
31476W        W46607   3.523  15.763   1.420  0.0969 -0.4184  0.0764
31477W        W46608  16.537  11.066   3.043  0.0821 -0.1081  0.0027
31478W        W46609   0.495  15.202  15.077  0.1466 -0.1409  0.0186
31479W        W46610  12.852  16.071  12.419 -0.2144 -0.0477  0.2333
31480W        W46611  11.847   0.183   3.141  0.0567  0.1521  0.2226
31481W        W46612   8.100   6.754  14.538 -0.0425 -0.1506  0.4338
31482W        W46613   3.726   8.330   3.399  0.0182  0.1565  0.0645
31483W        W46614  15.715  10.429  11.622  0.2068  0.0081 -0.2281
31484W        W46615   3.125   2.296  12.331  0.0079  0.0212 -0.0928
31485W        W46616  13.010   8.827  16.177 -0.4228  0.2180 -0.1480
31486W        W46617   1.409   7.390   3.000  0.4337  0.3020  0.2523
31487W        W46618   8.193  16.278   2.765  0.0631  0.0343  0.1730
31488W        W46619   2.064   0.754   6.047  0.0601 -0.0917 -0.2084
31489W        W46620  14.062   0.175  13.734  0.1644  0.1904  0.0720
31490W        W46621  11.929  12.265  14.179  0.2614  0.1998 -0.1246
31491W        W46622   2.190  12.378   2.952  0.3571 -0.1072 -0.1122
31492W        W46623   9.699   1.668  12.085 -0.1329  0.1007 -0.0685
31493W        W46624  10.352   1.014  12.572 -0.0495 -0.1684 -0.0557
31494W        W46625   0.925  14.348  15.996 -0.0027  0.1225  0.1430
31495W        W46626  12.105  13.915  14.917 -0.2314  0.1703  0.1409
31496W        W46627   3.173  17.060   5.290 -0.2070 -0.0134 -0.1122
31497W        W46628  17.526  16.090   4.948  0.1357  0.1666 -0.0329
31498W        W46629   9.063  16.082  16.533 -0.0073  0.0477 -0.1209
31499W        W46630   3.027   1.211   5.838  0.0334  0.2730  0.0615
31500W        W46631   0.685   1.717  16.749 -0.2604 -0.1781  0.2573
31501W        W46632  10.319   0.721   2.880 -0.1405 -0.0711 -0.1094
31502W        W46633   1.063  11.191  12.944  0.0924  0.3331 -0.0584
31503W        W46634   1.317   0.350  15.885 -0.0801 -0.1265  0.2523
31504W        W46635  17.041   0.245   4.203 -0.1292  0.1057  0.2988
31505W        W46636   5.814  12.727   5.325 -0.0092 -0.1532  0.0545
31506W        W46637  11.848   9.429   2.553 -0.1441  0.0219  0.0698
31507W        W46638  17.541  17.009  12.674  0.0827 -0.1820  0.0364
31508W        W46639  11.803   4.659  12.678 -0.1583  0.1905 -0.0814
31509W        W46640   7.426  17.052   2.612  0.0423 -0.1983  0.1623
31510W        W46641   4.737  17.144   5.363  0.1783 -0.0735  0.2046
31511W        W46642  14.857  12.073  13.466  0.1500 -0.0500 -0.0358
31512W        W46643  15.043  15.189  15.978  0.1228  0.1768 -0.1052
31513W        W46644   1.795   9.971  14.651 -0.3059 -0.1358 -0.1030
31514W        W46645  13.787  11.182  14.150  0.2005 -0.1952  0.0013
31515W        W46646  14.892  15.968  15.611  0.0159  0.1863 -0.1596
31516W        W46647   9.814  16.007   3.303  0.2954  0.1744 -0.0134
31517W        W46648  16.736  15.756   1.906  0.0081  0.0186  0.0221
31518W        W46649   9.856   0.468   4.145  0.0008 -0.0638  0.0998
31519W        W46650  10.396   5.327  15.452  0.0171  0.0710  0.0569
31520W        W46651  13.474   5.239  16.674 -0.0980  0.0370  0.0516
31521W        W46652   6.512   5.943  12.599 -0.0184  0.1865  0.0693
31522W        W46653  14.204  10.400  16.936 -0.1156 -0.0184 -0.3087
31523W        W46654   8.336  14.467  15.334 -0.1242  0.1573  0.1308
31524W        W46655   6.385   4.461   3.462  0.0196  0.4157  0.1251
31525W        W46656   4.607   6.935   0.797 -0.0737  0.1250  0.0940
31526W        W46657  16.870  17.492  12.894 -0.1032 -0.1037 -0.2373
31527W        W46658  13.292  17.704   3.384  0.0028 -0.3853 -0.2099
31528W        W46659  17.548   0.175   2.684 -0.0894  0.0502  0.0858
31529W        W46660   9.386  15.823  15.030 -0.0692 -0.1512  0.1948
31530W        W46661   1.183  15.434   2.731  0.2453  0.0815  0.2267
31531W        W46662  16.235   9.385   5.149 -0.0721 -0.3272 -0.1715
31532W        W46663  17.078  15.132  11.986 -0.2252  0.1309  0.1627
31533W        W46664  12.112   6.456   0.711 -0.1139  0.0551  0.1473
31534W        W46665   8.517   2.603   1.824  0.3027 -0.0602  0.1101
31535W        W46666   7.882   3.612   4.039 -0.0428  0.1223  0.2390
31536W        W46667  10.547   1.257  16.350 -0.0648  0.2728  0.1631
31537W        W46668   8.333   3.795   3.963 -0.1160 -0.2248  0.1781
31538W        W46669  14.847   1.993  14.140 -0.0357 -0.0281 -0.1312
31539W        W46670  13.707  15.985   0.713  0.1273 -0.0933 -0.0749
31540W        W46671   8.773   7.306  16.431  0.1455 -0.4032 -0.1909
31541W        W46672  15.689  11.663  11.909  0.0960  0.1895 -0.1174
31542W        W46673  16.542   3.786  12.621 -0.1762 -0.1049 -0.0487
31543W        W46674   0.550  10.746  11.747 -0.2163 -0.0998  0.0099
31544W        W46675   0.278  14.282  11.596  0.0481 -0.2816 -0.1222
31545W        W46676   8.022   1.320  13.021  0.2832  0.0205  0.0921
31546W        W46677  13.619  16.136  15.728  0.2215 -0.1468 -0.3771
31547W        W46678  11.718  12.503   0.895  0.1252 -0.0165  0.1228
31548W        W46679   7.048  12.847   4.665 -0.0406  0.0852  0.1122
31549W        W46680  12.746  17.658   2.097  0.3112 -0.0066 -0.0777
31550W        W46681   2.413   9.153  16.281  0.0313 -0.0515 -0.2940
31551W        W46682  10.414  13.309  11.971 -0.0236  0.2316 -0.0233
31552W        W46683  15.910   6.350  13.463 -0.1702 -0.0315  0.3842
31553W        W46684   7.678  13.214   1.461 -0.3496 -0.0059 -0.1556
31554W        W46685   1.610   2.070   3.340  0.4509  0.0922  0.5016
31555W        W46686  16.764   6.616  16.648 -0.1615  0.2390  0.0195
31556W        W46687   2.129  14.585   5.284  0.0747 -0.0710 -0.1744
31557W        W46688  17.254  14.281  13.029  0.1341 -0.1361 -0.2769
31558W        W46689   4.128   9.578  12.706  0.0470 -0.0512  0.2915
31559W        W46690   1.120  17.349  15.146  0.3354  0.0486  0.0558
31560W        W46691   9.915   8.591  15.024  0.1082  0.1416  0.0038
31561W        W46692  15.382   1.398   1.835  0.0458 -0.0757  0.1634
31562W        W46693  10.092   9.889  13.165 -0.0751  0.0300 -0.0734
31563W        W46694  17.684   5.317   3.404 -0.0138 -0.1998 -0.0893
31564W        W46695  12.560   7.796   3.021 -0.0670  0.1546 -0.0554
31565W        W46696   6.821   5.395   4.273 -0.0472  0.2228  0.1284
31566W        W46697  16.026  11.374   4.013 -0.0720  0.0781 -0.1580
31567W        W46698  14.385   6.648  15.312  0.1949  0.2387  0.2549
31568W        W46699   4.855   1.544   3.574 -0.0395  0.0246  0.1801
31569W        W46700  13.591   2.492  10.848 -0.0361  0.4003 -0.1839
31570W        W46701   5.899   0.967  13.017  0.0326 -0.1599 -0.0882
31571W        W46702  13.859   3.690   2.890  0.0803 -0.0715  0.2158
31572W        W46703   2.292  12.784  12.558 -0.2329 -0.3526  0.0352
31573W        W46704   6.731  12.372   5.520 -0.0078  0.1564  0.0822
31574W        W46705   8.649   7.035   4.643 -0.2451 -0.0494 -0.0803
31575W        W46706  16.687   4.478   3.809  0.1349 -0.2539 -0.1598
31576W        W46707  16.243  11.760   5.822  0.1737 -0.1433 -0.0807
31577W        W46708   7.584   6.058  14.157  0.1177 -0.2465 -0.0331
31578W        W46709  11.386  15.011   3.066 -0.0877  0.2154 -0.1350
31579W        W46710  10.849   3.088  10.858 -0.1916  0.0547 -0.0128
31580W        W46711   2.043  17.698   1.109 -0.1211  0.1299 -0.0440
31581W        W46712  16.474  13.230  12.759 -0.1230 -0.0679 -0.0480
31582W        W46713  16.834   9.673  13.208  0.0156  0.1095  0.1287
31583W        W46714   6.069   6.240  15.451  0.1451  0.0424  0.0863
31584W        W46715   1.633   2.744   0.842  0.1047  0.0356  0.1333
31585W        W46716   3.396  17.353  15.101 -0.1817  0.2119  0.1028
31586W        W46717  12.884   3.369  10.869  0.2099 -0.1024  0.0842
31587W        W46718   2.431  12.798   2.825  0.0683 -0.1247 -0.1016
31588W        W46719  16.335   1.863   4.568  0.1661 -0.0764 -0.0072
31589W        W46720   5.255   9.232  15.713 -0.1257  0.0287  0.1896
31590W        W46721   1.042  17.007   1.566 -0.1188 -0.0308  0.1434
31591W        W46722  14.709  15.725   2.652 -0.1011 -0.0391  0.0752
31592W        W46723  16.893   0.133   0.145 -0.1268 -0.2256  0.3270
31593W        W46724   8.186  10.149   5.891  0.0533  0.3383  0.0507
31594W        W46725  13.408  13.505  11.831  0.1141 -0.1421 -0.0659
31595W        W46726  11.500  16.996   4.112  0.1676  0.1467  0.2161
31596W        W46727  15.269  16.080   1.679 -0.0454 -0.4115 -0.0489
31597W        W46728   8.340  14.910   3.206 -0.0440  0.0587 -0.0559
31598W        W46729   7.867  10.235  11.809 -0.0286 -0.0439 -0.3824
31599W        W46730   5.375  10.803  14.878  0.0547 -0.0507 -0.2395
31600W        W46731   1.467  12.174   4.590  0.1581 -0.1870  0.1631
31601W        W46732   4.012  13.679  16.931  0.1429  0.0884 -0.5249
31602W        W46733  12.193   7.203  15.220  0.1356 -0.1329  0.2910
31603W        W46734   9.156  16.095  12.444 -0.2811  0.0398  0.1814
31604W        W46735  14.547  12.321   1.055  0.1553  0.0166 -0.2925
31605W        W46736   5.178   1.435   3.972 -0.0062 -0.2104  0.1741
31606W        W46737  17.147   1.304   5.517  0.3076  0.0828 -0.0481
31607W        W46738   6.962   9.726  14.254  0.0471  0.0631 -0.3381
31608W        W46739  12.369  15.429  12.998  0.0497 -0.0515 -0.1601
31609W        W46740   0.274   5.376  13.416  0.2501  0.0798 -0.0721
31610W        W46741  11.376   9.636   0.830  0.0278 -0.2062  0.0032
31611W        W46742   9.457   5.212  14.221  0.0311 -0.0639  0.1129
31612W        W46743   2.164   7.191  12.123  0.3104 -0.0709 -0.0344
31613W        W46744   8.089  11.056  15.355  0.0691  0.0014  0.1240
31614W        W46745   1.561  15.686  13.684 -0.1206 -0.2590 -0.1263
31615W        W46746   3.284   9.009   0.229  0.1170  0.1332  0.0170
31616W        W46747  16.866  16.927   4.441  0.0627 -0.0898  0.1329
31617W        W46748   1.569   7.009  14.928 -0.1693  0.2413  0.2402
31618W        W46749   5.408  17.506  13.628 -0.1549  0.1100  0.1393
31619W        W46750  11.659  11.197  12.488 -0.0525  0.4820 -0.0408
31620W        W46751   0.801   1.437  15.178 -0.1369 -0.1741 -0.0525
31621W        W46752   8.565   8.447   0.009  0.2306 -0.1515  0.1870
31622W        W46753   1.918  17.495   6.699  0.3317 -0.0626 -0.2734
31623W        W46754  14.767  15.676  13.896  0.1549 -0.0195  0.1113
31624W        W46755   4.664   8.850   3.590  0.1912  0.0190  0.2414
31625W        W46756   0.592   8.022  16.057  0.1747 -0.2623  0.0243
31626W        W46757  11.223  11.333   0.021 -0.1563 -0.0455  0.1134
31627W        W46758  14.158   1.711   0.600 -0.3450 -0.1640  0.2040
31628W        W46759  15.278  15.393  11.747 -0.1583 -0.0941  0.0203
31629W        W46760   9.316  10.384   2.320  0.1667 -0.0069 -0.3084
31630W        W46761  12.985   8.860  11.134  0.0941  0.2001 -0.3443
31631W        W46762   3.159  14.353   3.290  0.2691  0.2274 -0.1570
31632W        W46763   2.592  10.971   5.654 -0.0847 -0.1747  0.4229
31633W        W46764  16.367   8.009   3.469 -0.4000  0.2531  0.0045
31634W        W46765   5.505  15.632   0.101 -0.0381 -0.0902  0.0360
31635W        W46766  14.714   2.053   2.463  0.1233 -0.0444  0.0320
31636W        W46767  13.328   1.128   2.298  0.1187  0.0822 -0.0614
31637W        W46768   7.263  16.905   1.159  0.2374  0.2525 -0.2259
31638W        W46769  14.761   4.047   3.188  0.2006  0.2715 -0.2041
31639W        W46770  16.699  13.756  13.769 -0.1174 -0.1677  0.0376
31640W        W46771  10.810   0.612  14.578  0.1028  0.0556 -0.0917
31641W        W46772   2.938   3.263  16.150  0.2249  0.0672 -0.0625
31642W        W46773  12.746  11.117  15.684 -0.0659  0.0062 -0.3292
31643W        W46774   3.818   7.253  12.488 -0.0586 -0.0695 -0.3197
31644W        W46775  17.442  12.661  11.333 -0.1844 -0.0924 -0.2695
31645W        W46776   2.042   4.836   5.513 -0.1777  0.0003  0.1419
31646W        W46777   0.934  16.458   6.111 -0.1521  0.0733  0.0656
31647W        W46778   0.226   7.796   1.183 -0.1507  0.0343 -0.1611
31648W        W46779   1.345  17.643  16.281  0.0369 -0.0127  0.0291
31649W        W46780  15.816   7.304   1.495 -0.3509  0.0497  0.1640
31650W        W46781   2.070  10.571   2.666 -0.2801  0.1650 -0.0449
31651W        W46782   2.053   2.830  14.956 -0.1755 -0.1883  0.1665
31652W        W46783  12.489  17.635  15.974 -0.2747  0.1386  0.1831
31653W        W46784  10.622   2.471  15.046  0.1962  0.1034  0.1090
31654W        W46785  12.424   8.347   3.507  0.2636 -0.2817  0.0164
31655W        W46786   5.157  14.407  15.710  0.0405 -0.0645  0.2980
31656W        W46787  14.106  12.931  16.929  0.0550 -0.1219  0.2652
31657W        W46788  14.918   6.560  15.991 -0.1576  0.0408  0.0310
31658W        W46789  15.783   8.110   1.335  0.2494 -0.1845 -0.1424
31659W        W46790   7.975  15.283  16.735  0.0628 -0.0223  0.0689
31660W        W46791  16.709  12.755  14.109  0.1081  0.1495  0.0200
31661W        W46792  14.512   3.460   0.786  0.3480 -0.0545 -0.1276
31662W        W46793   7.692   5.372   1.149 -0.0645  0.0822 -0.0516
31663W        W46794   4.764   5.906  15.442  0.0212  0.0668  0.1976
31664W        W46795   6.424   4.957   5.354 -0.1889 -0.0312  0.1034
31665W        W46796  13.857  10.377   3.311 -0.3961 -0.1881  0.0801
31666W        W46797  15.683  17.398   5.619  0.0427  0.0570  0.2007
31667W        W46798  14.915   6.091   1.025  0.0577  0.0184  0.2695
31668W        W46799   4.779  14.946   3.883 -0.0796 -0.0410  0.2550
31669W        W46800   9.146   3.696   4.103  0.2079  0.4073 -0.1622
31670W        W46801   9.695   9.040  16.347  0.0863 -0.1561  0.0012
31671W        W46802  15.740  11.034   1.106  0.1169  0.1741 -0.1023
31672W        W46803   4.530   6.313  13.051  0.1452  0.1832 -0.0975
31673W        W46804  13.370  12.460   4.216 -0.0728 -0.0324  0.2709
31674W        W46805   1.603   4.959  15.405 -0.0342  0.1614 -0.0090
31675W        W46806   9.636  14.175  13.586 -0.2215 -0.2429  0.2480
31676W        W46807   3.360  12.362  11.700 -0.1920  0.1849 -0.1643
31677W        W46808  10.621  16.850   7.050  0.0375  0.1245  0.0154
31678W        W46809  10.100  13.058   0.328  0.1080  0.0506  0.0473
31679W        W46810   4.606   3.400  10.194  0.4962 -0.1452 -0.2886
31680W        W46811   0.640  15.467  14.551 -0.3274  0.0394 -0.4636
31681W        W46812   6.328   2.207  14.559 -0.2650 -0.1278  0.1484
31682W        W46813   1.093  15.040   2.452 -0.2391 -0.0211 -0.6415
31683W        W46814   2.805   0.952  13.819 -0.3571  0.2031 -0.1248
31684W        W46815   1.580   5.603   5.266  0.1091 -0.0797  0.0502
31685W        W46816  12.497  11.981  12.272  0.3640 -0.0929  0.2755
31686W        W46817   9.241   3.702   1.849  0.3111 -0.2085  0.1964
31687W        W46818  11.625  16.782   3.235 -0.3117 -0.0481 -0.1348
31688W        W46819   7.482  13.194   4.530  0.0269  0.0086 -0.3742
31689W        W46820   5.649   3.192   3.674 -0.0011 -0.1271 -0.1853
31690W        W46821  13.848  10.660  14.930 -0.1700  0.0700  0.3789
31691W        W46822   7.022   3.114  15.791  0.1157  0.0054  0.3236
31692W        W46823   9.604  15.577   3.573  0.0450 -0.2262 -0.1077
31693W        W46824  16.358  12.216   0.283  0.0126 -0.0371  0.1344
31694W        W46825  16.275   4.145   2.129 -0.2241  0.0167  0.0145
31695W        W46826   7.810   7.250   2.271 -0.0376 -0.1229  0.3160
31696W        W46827   0.288   0.591   2.557  0.1306  0.0070  0.2186
31697W        W46828   7.158   2.433   3.612 -0.1705  0.2896 -0.0085
31698W        W46829   5.567  14.016   1.628  0.3120 -0.4042  0.0715
31699W        W46830   5.898   5.110  15.573  0.0176 -0.2440 -0.0259
31700W        W46831  15.308   9.514  11.322 -0.0013 -0.0618 -0.3893
31701W        W46832   7.362  15.195   5.619 -0.2790 -0.1374 -0.2926
31702W        W46833  15.908   5.644  11.224  0.0377  0.0120 -0.2788
31703W        W46834  12.381  15.938  13.294 -0.0517 -0.2358  0.0892
31704W        W46835  15.941  14.128   4.341  0.0144 -0.0850  0.1622
31705W        W46836  16.381  17.282   5.267  0.3941 -0.0946  0.0400
31706W        W46837  13.683  13.374   5.496  0.1253 -0.1069 -0.0104
31707W        W46838  15.068  11.049  12.737  0.2872 -0.1175  0.0692
31708W        W46839  10.023   1.658   1.426  0.3718 -0.1969  0.0568
31709W        W46840  13.489  15.833  14.382  0.3064 -0.0818 -0.1714
31710W        W46841   6.924  15.548   1.674 -0.0358  0.1867 -0.1522
31711W        W46842  17.083   6.733  15.700 -0.0662 -0.1965 -0.0137
31712W        W46843  17.381  10.796  13.425 -0.1098 -0.0716 -0.0931
31713W        W46844   2.693   7.446  11.420  0.1415 -0.1200  0.0864
31714W        W46845   3.240  15.214  11.854 -0.3547 -0.2493 -0.4188
31715W        W46846   1.136   5.130  11.302  0.1063 -0.1130 -0.0871
31716W        W46847  15.756  17.224  14.702 -0.4294  0.1888 -0.3375
31717W        W46848   1.980  16.657  13.182 -0.2545 -0.2251 -0.0356
31718W        W46849  16.323   8.646   2.494 -0.3332  0.0077 -0.2701
31719W        W46850  10.517   4.099   5.227  0.2818 -0.1780  0.0755
31720W        W46851  11.209  13.748   2.285  0.1512  0.3908 -0.2536
31721W        W46852   9.961  10.257  15.710  0.4655 -0.0779  0.0258
31722W        W46853  12.724   9.791   1.580  0.1793 -0.1382  0.0869
31723W        W46854  13.306   7.614  12.014 -0.1018  0.1331  0.1081
31724W        W46855   9.206   4.393   3.572 -0.1002  0.0511 -0.0515
31725W        W46856  12.126   1.397  14.352  0.5207 -0.0405 -0.1324
31726W        W46857   3.759   2.597   4.080 -0.0030 -0.1098  0.0321
31727W        W46858  11.423   3.550   4.733  0.1215  0.0881  0.0424
31728W        W46859   3.576   4.941  12.857 -0.2507  0.0623  0.2463
31729W        W46860   0.652   8.101   2.739  0.0316 -0.1041 -0.3102
31730W        W46861   6.559  12.566   4.187 -0.2689 -0.1913 -0.0522
31731W        W46862   4.454   8.778   1.080  0.0015 -0.1099  0.1781
31732W        W46863  13.116   5.552   2.592 -0.0805  0.2407  0.1127
31733W        W46864   7.906   8.662   3.213 -0.2158  0.0373 -0.0430
31734W        W46865  11.532   0.328   3.916  0.0294  0.1895 -0.1209
31735W        W46866   4.772  12.943   0.585  0.1918 -0.0825 -0.0090
31736W        W46867   9.734  12.434   6.353  0.2979  0.0142  0.1837
31737W        W46868  15.021   5.326  16.102 -0.0983  0.0918  0.0971
31738W        W46869  10.489   6.141   4.431 -0.3076 -0.1539 -0.1476
31739W        W46870  13.081  15.848   1.610 -0.2854  0.0501 -0.0781
31740W        W46871   4.342   7.392  11.892  0.1382  0.0547 -0.1465
31741W        W46872  10.762   9.552  12.646 -0.0378 -0.3896  0.0103
31742W        W46873   0.927   3.569   5.748 -0.2890  0.0911 -0.1155
31743W        W46874   3.960   1.875   2.989  0.2270 -0.3465  0.3429
31744W        W46875  11.426   9.570  13.186  0.1390 -0.0549  0.2458
31745W        W46876   0.396  10.902  14.167  0.3084  0.1707  0.1290
31746W        W46877   8.692   3.881   2.639  0.2925 -0.1466  0.0858
31747W        W46878   6.854   0.861   5.931 -0.1341 -0.1260  0.1203
31748W        W46879   6.288  12.017   2.494 -0.1560 -0.2639 -0.4393
31749W        W46880  16.003   2.586   4.985 -0.2420  0.0080 -0.3953
31750W        W46881  12.428  13.670   0.406  0.3413 -0.3380  0.3948
31751W        W46882   6.650  12.756  11.881  0.2011  0.0816 -0.1595
31752W        W46883   5.380   0.695  13.396  0.0342 -0.0356  0.2993
31753W        W46884  11.772   5.193   2.950 -0.2127 -0.0683  0.1486
31754W        W46885  15.046   4.896   0.783  0.1469  0.3881 -0.3049
31755W        W46886   7.279   8.232  13.207 -0.1961  0.2999  0.1739
31756W        W46887   6.889   2.821   3.424  0.0018 -0.1534  0.0149
31757W        W46888  11.221  16.161   0.515 -0.0681 -0.0318  0.1132
31758W        W46889  12.984   0.193   4.292  0.0301  0.1209  0.0738
31759W        W46890  10.680  12.497   5.000  0.1188 -0.1099 -0.2140
31760W        W46891  10.572   0.519  13.760  0.2224 -0.0263  0.0714
31761W        W46892  16.392   7.513   1.660 -0.1482  0.2332 -0.1590
31762W        W46893   6.470   8.286  12.920 -0.0851 -0.4698 -0.2367
31763W        W46894  11.036  14.989  15.956  0.0279  0.0958  0.1518
31764W        W46895   1.698  15.129   0.283  0.3387  0.1095  0.0205
31765W        W46896  15.220  10.231   1.569 -0.1953  0.0353  0.0204
31766W        W46897   5.221  15.370  15.271 -0.1618  0.0557  0.0789
31767W        W46898  10.604   3.558   5.068 -0.3694 -0.0155  0.0010
31768W        W46899  13.260  14.183  15.370  0.2066  0.1564 -0.0545
31769W        W46900  15.895   4.922  13.471 -0.1610 -0.1184  0.0758
31770W        W46901   5.316  14.619  14.603 -0.1324  0.1168  0.0405
31771W        W46902  15.211   2.069   3.353 -0.3811 -0.1013 -0.0069
31772W        W46903  11.064   3.071  16.158  0.0869 -0.1361  0.1089
31773W        W46904  15.870   4.410   2.119 -0.1456  0.2198  0.1987
31774W        W46905   2.496   9.736  16.214 -0.3575 -0.1448 -0.0998
31775W        W46906  12.980  10.130   6.222 -0.1084 -0.0054 -0.0968
31776W        W46907  10.500   7.984  11.957 -0.0613  0.2936 -0.3836
31777W        W46908  17.066   1.971   5.570  0.0332  0.2929 -0.1259
31778W        W46909  15.865  15.047   4.496  0.1367 -0.0212  0.2010
31779W        W46910   5.761   1.652   5.802 -0.0936  0.1419  0.0005
31780W        W46911   0.426   0.482   0.991  0.1438  0.0009  0.1016
31781W        W46912   4.573  14.983  14.954  0.2377 -0.1015  0.2633
31782W        W46913   2.736  15.764   4.636 -0.4160 -0.0072 -0.0498
31783W        W46914   2.870   4.317   1.162 -0.0668  0.0812 -0.1855
31784W        W46915  10.336  16.785  11.104  0.1463  0.2162  0.0545
31785W        W46916  15.030  12.176   0.795 -0.1797 -0.2544 -0.2848
31786W        W46917   9.896   2.414   2.777  0.0024  0.3613 -0.0698
31787W        W46918   7.620  11.787   5.061  0.1915 -0.0947  0.1338
31788W        W46919  17.123   4.061  16.173 -0.1452 -0.1161 -0.0969
31789W        W46920  15.515  17.267   5.108  0.0288 -0.2387 -0.1743
31790W        W46921   7.406   0.431   0.223  0.1157 -0.1391 -0.1771
31791W        W46922   8.295   4.171  14.256  0.0804 -0.2700  0.0836
31792W        W46923  15.511  15.130  13.601 -0.0618  0.3234  0.0925
31793W        W46924   0.611   2.212  14.148 -0.1909 -0.0911  0.3876
31794W        W46925  17.304   4.225   2.682 -0.0746  0.0823 -0.2795
31795W        W46926  11.808   7.019  12.801 -0.0153 -0.0679 -0.1407
31796W        W46927   8.156   9.693  14.160 -0.0627  0.2044 -0.2044
31797W        W46928  12.325   9.648  15.875  0.2052  0.3193 -0.0981
31798W        W46929   3.695   7.468  12.068 -0.0848 -0.3343  0.0671
31799W        W46930   2.645   6.612  15.615  0.0231  0.0088  0.1003
31800W        W46931   4.436   5.390  12.423 -0.3249 -0.0396 -0.2981
31801W        W46932   8.623   1.896   5.900  0.0520  0.0498 -0.0850
31802W        W46933   0.463   9.201  12.424  0.1383  0.0838  0.1657
31803W        W46934   0.161   4.684   0.453 -0.1562 -0.1121 -0.0202
31804W        W46935  11.901   9.366   0.722  0.0185 -0.0690 -0.1300
31805W        W46936  11.314   0.558   3.518 -0.0732  0.3164  0.0346
31806W        W46937  16.226  14.576  16.350  0.0565 -0.1422  0.0464
31807W        W46938  12.661   5.902  15.878  0.0665  0.0662 -0.0734
31808W        W46939  11.356   2.308   2.974  0.3268  0.0225  0.0934
31809W        W46940   8.378  14.481   3.581 -0.0095 -0.0248  0.0115
31810W        W46941   2.108  14.374   1.907  0.2308  0.2120 -0.1032
31811W        W46942   2.762   8.387  14.970  0.1126 -0.0862  0.2611
31812W        W46943   9.957   4.992   4.842 -0.0241  0.1598  0.0089
31813W        W46944   5.599   1.834  10.723  0.2087 -0.0723 -0.0462
31814W        W46945  12.186  11.045  12.429 -0.0192  0.0694  0.0154
31815W        W46946   0.903  14.753   6.255 -0.1072 -0.2046  0.0454
31816W        W46947   1.274  12.080   0.903  0.2636  0.0099 -0.3079
31817W        W46948  13.852   0.060  13.080 -0.0665  0.0777  0.1528
31818W        W46949   6.410   5.624   4.104  0.2286 -0.0821  0.0237
31819W        W46950  13.507  15.223   2.565  0.2107 -0.0166 -0.2233
31820W        W46951   2.553  14.910   1.199 -0.2473  0.0424 -0.2155
31821W        W46952  13.366   3.567   3.611 -0.0667  0.0244 -0.0621
31822W        W46953   3.237  17.435   3.710 -0.0685  0.0417 -0.2134
31823W        W46954   3.742   7.414   1.021  0.0283 -0.0418  0.1540
31824W        W46955   8.137   5.414  12.646  0.0759 -0.1691  0.2227
31825W        W46956  15.037  10.140   5.064 -0.1746  0.1616 -0.0845
31826W        W46957   2.910  17.559   5.536  0.0492 -0.1610  0.0318
31827W        W46958   6.652  11.787   2.293 -0.0077 -0.1843 -0.2435
31828W        W46959  11.885   4.558   1.022 -0.0223  0.0171  0.1480
31829W        W46960  12.692   9.868   5.909 -0.2167 -0.0814  0.2834
31830W        W46961  10.359  14.162   4.192 -0.0213  0.1228 -0.2746
31831W        W46962  13.166   3.985  15.729 -0.1495 -0.1206 -0.0760
31832W        W46963   9.486  16.323  15.818  0.4683  0.4696  0.2090
31833W        W46964  17.030   1.834  15.915 -0.0531  0.1322  0.0810
31834W        W46965  17.643   9.920   2.108  0.0067 -0.3117 -0.2169
31835W        W46966  14.619  10.750   4.929  0.0193 -0.2342  0.0891
31836W        W46967   5.130  10.863   4.911 -0.1101  0.2222  0.1198
31837W        W46968   0.671   1.155  12.323 -0.0770  0.0348  0.0891
31838W        W46969   0.457   0.023  13.025 -0.1391  0.3469 -0.0632
31839W        W46970  12.965  16.585  12.375 -0.0432 -0.1819  0.2610
31840W        W46971   6.165   2.459  16.704 -0.1745  0.2254 -0.0463
31841W        W46972  16.924   5.042  12.015 -0.0121 -0.1259 -0.0213
31842W        W46973   6.922   6.417   5.139 -0.0665 -0.0327  0.2453
31843W        W46974   1.389   8.782  11.269  0.0129  0.0383 -0.0826
31844W        W46975   0.814  17.065  15.975  0.0572 -0.0303 -0.0877
31845W        W46976   1.458  13.349   2.843  0.0334 -0.1693  0.0457
31846W        W46977   5.192  14.324   4.556 -0.1757  0.2116  0.1875
31847W        W46978   8.194   4.612  15.072 -0.4736  0.1562 -0.0153
31848W        W46979  13.276  10.979   1.579 -0.0531  0.0933 -0.4673
31849W        W46980  13.100  16.800   3.674 -0.0124  0.2270  0.1210
31850W        W46981  13.430   3.839   0.322  0.2903 -0.2223 -0.1789
31851W        W46982  10.100  14.228   4.632  0.2464  0.1959 -0.0715
31852W        W46983  10.269   0.078  13.971 -0.0714  0.3374 -0.1695
31853W        W46984   0.541  10.636   3.653 -0.1963  0.1287 -0.2583
31854W        W46985   9.720  14.341  12.997 -0.1185  0.2490 -0.2564
31855W        W46986   6.472  17.310  16.241  0.0769  0.2142 -0.2783
31856W        W46987   2.600  14.372   1.798  0.1824  0.1266 -0.0026
31857W        W46988  16.415  16.830   3.486  0.1184  0.0191  0.1468
31858W        W46989  16.656   4.252  12.652 -0.0844 -0.3228  0.0857
31859W        W46990   9.980  12.708   3.631 -0.2618 -0.1924  0.0141
31860W        W46991  15.192  12.610   2.215  0.2648 -0.0436 -0.1597
31861W        W46992   4.842   6.863  10.404  0.1187  0.0170  0.1014
31862W        W46993  16.317  11.720   3.721  0.1645 -0.1406  0.0222
31863W        W46994  12.448  12.857   1.607  0.3061 -0.2089  0.4714
31864W        W46995   4.166   5.979  10.989  0.2448 -0.0777 -0.4946
31865W        W46996  16.509  13.746   3.554 -0.0942 -0.2918  0.1645
31866W        W46997   0.131   3.648  14.529  0.1863 -0.2896 -0.2524
31867W        W46998   3.539   3.306  12.885  0.1509  0.3042 -0.1154
31868W        W46999   2.857   5.288   5.174 -0.2954  0.0128  0.2001
31869W        W47000   9.026   5.751   0.122 -0.2853 -0.0768 -0.3256
31870W        W47001   5.039   5.569  16.539 -0.2731 -0.1348 -0.0530
31871W        W47002   6.404  13.110   5.229 -0.2250 -0.0672 -0.1076
31872W        W47003  10.468   2.981  14.428  0.0040  0.1380 -0.1616
31873W        W47004   5.115  10.431  15.971 -0.0333 -0.0771  0.1135
31874W        W47005   9.815  10.713  15.414  0.4107 -0.0806  0.0174
31875W        W47006   2.994  11.915   5.699  0.0044  0.0861  0.1584
31876W        W47007  15.812  10.363   2.266  0.1092  0.0597 -0.0803
31877W        W47008  12.561   7.684  13.704  0.0684  0.0385  0.2758
31878W        W47009   7.416  15.615   2.398 -0.0668 -0.3148  0.1123
31879W        W47010   8.573  13.621  12.543 -0.5426  0.0095 -0.3868
31880W        W47011  14.382   9.345   4.064 -0.0472 -0.0079 -0.1362
31881W        W47012  14.839   7.195  13.391  0.1005 -0.0431 -0.0004
31882W        W47013   3.370   1.360   5.099  0.1066  0.0211 -0.1352
31883W        W47014  13.251  10.894  11.179 -0.0135  0.2439 -0.0233
31884W        W47015   2.569  11.933   5.427 -0.0205  0.3209  0.0661
31885W        W47016   9.339   8.438   0.730 -0.0040 -0.2031  0.2026
31886W        W47017  14.075  11.210  12.348  0.0133  0.0061  0.0544
31887W        W47018   4.969   8.132   0.467 -0.1185 -0.0004 -0.0783
31888W        W47019  17.199   2.093   6.089 -0.0107  0.3079  0.1321
31889W        W47020  10.466   7.127   4.215  0.1312 -0.2478 -0.2782
31890W        W47021  12.283  13.423  15.024  0.0248 -0.0740  0.0215
31891W        W47022  17.021   3.171  14.649  0.0032 -0.0057  0.0305
31892W        W47023   6.366   1.043   1.229  0.1247 -0.0587 -0.3327
31893W        W47024   0.757   8.482  15.545  0.0765 -0.1847  0.3152
31894W        W47025  10.875  13.659  12.586 -0.0625  0.0167 -0.0646
31895W        W47026   8.476  12.913   1.269  0.2178  0.0301 -0.0702
31896W        W47027  17.210   0.253  14.376  0.3404  0.0601 -0.3428
31897W        W47028   2.966   4.337   4.176 -0.1170 -0.1395  0.1684
31898W        W47029   9.228   3.837  11.280 -0.1701  0.1046 -0.1655
31899W        W47030   0.227   9.739  12.537  0.1224 -0.1400 -0.2779
31900W        W47031   3.573   5.692  12.050 -0.0186  0.0168 -0.0179
31901W        W47032   2.470   1.186  11.462  0.0430 -0.0666 -0.2290
31902W        W47033  15.287  13.513   4.840 -0.0199 -0.3078  0.0689
31903W        W47034   1.871   8.735  11.830 -0.0227 -0.2455  0.4216
31904W        W47035   0.985   4.536  15.035  0.0067  0.0961 -0.0489
31905W        W47036   4.088   2.761  13.615 -0.2110 -0.1932  0.1162
31906W        W47037   9.966  12.620  12.641 -0.1770  0.0465 -0.0588
31907W        W47038   6.135  14.244   3.967 -0.1841 -0.3217  0.0462
31908W        W47039   1.270   8.129  11.841  0.1296 -0.2704 -0.3438
31909W        W47040   9.056   9.499  13.976 -0.3968 -0.1285  0.0300
31910W        W47041   3.668   9.497   2.069 -0.1309  0.3217  0.1284
31911W        W47042  15.522   7.910   4.231  0.1118  0.0806 -0.1538
31912W        W47043  12.279   8.017   2.266 -0.0512  0.1228  0.1915
31913W        W47044   1.809   3.226   1.820 -0.0724 -0.0601 -0.1707
31914W        W47045   4.635   8.024   5.442  0.3100 -0.0687 -0.0894
31915W        W47046   6.999   6.952  11.877 -0.1701  0.0612 -0.0598
31916W        W47047  17.580  15.824  13.123  0.1865  0.2237 -0.1147
31917W        W47048  12.371   9.587   1.829  0.0571 -0.0190 -0.2428
31918W        W47049   5.490   3.477   2.474 -0.1176 -0.3148 -0.1894
31919W        W47050   8.988   6.760   0.118 -0.0618  0.1777 -0.2275
31920W        W47051  11.720  13.437  15.688 -0.2490 -0.0758 -0.0314
31921W        W47052  17.155  12.908   4.619 -0.3467 -0.3266 -0.0567
31922W        W47053   1.848   8.658   2.290  0.2335  0.0558 -0.0404
31923W        W47054   8.339   5.460  11.953  0.2028 -0.0710  0.2240
31924W        W47055   8.973  12.891  13.657  0.0018  0.0718 -0.1397
31925W        W47056  11.740   1.403   1.288  0.1739 -0.0724  0.0750
31926W        W47057   5.367   1.306   4.507  0.1635  0.1615  0.1557
31927W        W47058  11.330   4.868   3.056 -0.2811  0.3167  0.0539
31928W        W47059   1.997  10.105   2.711 -0.0353  0.1847  0.0852
31929W        W47060  12.361   1.180  14.849 -0.2475 -0.0361 -0.3920
31930W        W47061   9.135  15.414  14.943 -0.1877  0.0792 -0.0693
31931W        W47062  16.707   2.514   2.086 -0.0992  0.0627  0.3330
31932W        W47063  16.977   8.137   2.779  0.3424  0.0624  0.1083
31933W        W47064   7.416   0.665  12.926  0.1869  0.1709  0.3316
31934W        W47065   4.819   6.203  12.621  0.1725 -0.2517  0.1801
31935W        W47066  11.829   0.522  16.627 -0.3101 -0.0388 -0.0571
31936W        W47067   4.892  11.808  14.323  0.1036  0.3042  0.0345
31937W        W47068  13.468   8.081  16.560 -0.1647  0.0465 -0.0983
31938W        W47069   9.890   6.116  16.305 -0.1974  0.2622 -0.1476
31939W        W47070   1.231   0.804   1.128 -0.1011  0.0931 -0.1146
31940W        W47071  14.269  14.770  15.907  0.0571 -0.2503  0.0621
31941W        W47072   5.530   0.626  16.356  0.1636  0.4847 -0.0531
31942W        W47073   5.200   4.815   0.928 -0.0966 -0.1526  0.0174
31943W        W47074   1.829   3.501   3.855  0.2839 -0.2033 -0.0480
31944W        W47075  13.547   5.445   4.643 -0.1694 -0.1785 -0.0192
31945W        W47076  10.619   5.880  12.687 -0.0090 -0.1741  0.2632
31946W        W47077   1.390  15.842   2.493  0.1443  0.0566  0.4024
31947W        W47078   6.765   3.124   2.804 -0.0338 -0.1357 -0.0712
31948W        W47079   6.267  11.309   5.260 -0.0420  0.1521 -0.0210
31949W        W47080   1.427   4.475  12.494  0.1224 -0.1052  0.2624
31950W        W47081   3.340   7.511  15.094  0.0732 -0.1849  0.0191
31951W        W47082  15.572  14.154   1.031 -0.0025  0.1264  0.0619
31952W        W47083   9.169   8.344   5.033 -0.1045 -0.1155 -0.0151
31953W        W47084   9.218  15.261   0.116  0.0514  0.0627  0.1213
31954W        W47085  16.164  16.532  14.684 -0.1510 -0.1000  0.1119
31955W        W47086   6.515   7.895  14.115 -0.2855 -0.0169  0.0389
31956W        W47087   6.217  11.225  12.043 -0.1546 -0.4548 -0.1626
31957W        W47088  12.483  15.625   3.679 -0.2076 -0.0020 -0.0151
31958W        W47089   7.908   2.967   3.627  0.2908 -0.1366 -0.3029
31959W        W47090   0.616  11.350   3.191  0.1256 -0.2224 -0.1820
31960W        W47091  12.202  11.984  11.860  0.4423 -0.1195  0.0925
31961W        W47092  14.053   5.846   0.791  0.0188  0.1928  0.0770
31962W        W47093   8.031  15.940   4.895 -0.1285 -0.1205 -0.0323
31963W        W47094   1.086   7.246  15.839  0.1393 -0.1142 -0.0469
31964W        W47095   0.924   2.040  12.160 -0.0721 -0.0641  0.0396
31965W        W47096   6.646   6.540   1.702  0.2207 -0.2082  0.2112
31966W        W47097   6.097   6.412   3.480 -0.0771  0.0847  0.4116
31967W        W47098   6.054   2.614  12.296 -0.3967  0.3137  0.2311
31968W        W47099   4.140  11.823   0.807  0.1087 -0.0986 -0.2612
31969W        W47100  11.374  16.756   2.633  0.2642 -0.3728  0.1442
31970W        W47101   2.352   4.009  13.350 -0.1033 -0.3369 -0.2589
31971W        W47102   2.087  16.179  14.775  0.1525 -0.3782 -0.1537
31972W        W47103  11.313  10.854   6.287 -0.1882 -0.2773 -0.2375
31973W        W47104  16.691   8.788  13.658 -0.2340 -0.0625  0.0117
31974W        W47105   8.846  10.387  13.327  0.1534  0.1017  0.0171
31975W        W47106  17.283  12.362  13.255 -0.1960  0.1180 -0.0597
31976W        W47107   3.959  14.556   1.708  0.3621  0.0359 -0.2005
31977W        W47108  11.560   4.166   4.108 -0.0907  0.1441 -0.2064
31978W        W47109  17.116   9.659   1.114  0.0946  0.0326  0.3009
31979W        W47110   5.748  11.838  16.883  0.0138  0.0281  0.0427
31980W        W47111   6.620   1.711  16.629 -0.0035 -0.2331 -0.3721
31981W        W47112  10.657   4.576  15.285  0.2237 -0.1267 -0.0935
31982W        W47113   5.068  10.028  14.714  0.1318  0.0162  0.0452
31983W        W47114   7.375   2.617  11.186 -0.1661  0.0527 -0.0861
31984W        W47115   0.705  16.635   0.690  0.0982 -0.1712  0.2040
31985W        W47116   0.343   2.345  15.026  0.0996  0.1262 -0.2628
31986W        W47117   0.136   1.961   3.956  0.2121  0.1533  0.3891
31987W        W47118   1.647  13.052   0.565 -0.0731  0.0388 -0.0056
31988W        W47119  10.343   9.718  12.390 -0.1683  0.1348 -0.2427
31989W        W47120   1.849  15.283   2.024  0.1859  0.0690 -0.2563
31990W        W47121  11.231  10.682  13.614  0.0527 -0.1102 -0.3527
31991W        W47122  14.942   8.702  14.873  0.0351 -0.0932 -0.1020
31992W        W47123   9.167   8.042  14.961 -0.2142  0.1309  0.0574
31993W        W47124  16.158  12.877   3.936 -0.2143  0.1666 -0.1996
31994W        W47125   3.567   1.240  16.537 -0.0164 -0.0431  0.2547
31995W        W47126   0.716   4.026  12.407  0.0255 -0.3409 -0.1072
31996W        W47127  14.222   5.379   3.283  0.4399  0.1012 -0.1288
31997W        W47128   6.511  12.254   2.055  0.1759 -0.0977  0.1571
31998W        W47129  15.034  11.513  14.811 -0.0962  0.1932 -0.2497
31999W        W47130   7.310  11.499   0.468 -0.1409 -0.0883 -0.0749
32000W        W47131   5.961  12.256  14.069  0.0239  0.0020  0.2064
32001W        W47132   9.597  15.820  15.784 -0.1742  0.0481  0.1587
32002W        W47133  13.668   2.373  15.020 -0.0392  0.1561 -0.0913
32003W        W47134   0.578  14.795   2.490 -0.2895  0.0593 -0.0297
32004W        W47135  14.743  14.604  16.004  0.1604  0.3468 -0.0599
32005W        W47136   0.539   7.319   0.863  0.0529 -0.3392  0.0524
32006W        W47137   2.249   1.923  15.206 -0.1175 -0.0894  0.4265
32007W        W47138   8.851   9.973   3.640 -0.3978  0.0159  0.1922
32008W        W47139   5.049  11.387  13.429  0.0509 -0.1375 -0.3172
32009W        W47140  13.310  15.899   0.400 -0.1446  0.2389 -0.0714
32010W        W47141  12.785   8.072   0.301  0.0633 -0.0023 -0.2181
32011W        W47142   2.543  17.434  16.604  0.0845 -0.1463  0.0497
32012W        W47143  13.822   2.845  13.480 -0.0634  0.0014  0.2229
32013W        W47144   8.651  16.310  16.866 -0.0921  0.1520 -0.0057
32014W        W47145   9.463  16.886   2.431  0.3063  0.0004 -0.1953
32015W        W47146  15.446  17.019  16.933 -0.0121 -0.2257  0.1320
32016W        W47147   5.405  16.292   2.630  0.2005  0.1358 -0.2216
32017W        W47148   4.744  11.950  13.793 -0.0429  0.1072  0.0365
32018W        W47149  12.426   4.387  15.956 -0.0171 -0.3519  0.0533
32019W        W47150  13.791   4.973   2.579  0.0902  0.4763  0.2095
32020W        W47151  11.689   8.231   4.460 -0.0038  0.2189  0.0037
32021W        W47152  14.791   8.035  15.529  0.0529  0.0476  0.0699
32022W        W47153  17.429   1.008   3.868 -0.1990 -0.1290  0.1053
32023W        W47154   8.149   8.485   1.482  0.2053 -0.2038  0.1747
32024W        W47155   0.702  12.516  13.440  0.1308  0.1551 -0.1453
32025W        W47156  16.318   6.891   4.006  0.0759 -0.3123  0.2138
32026W        W47157   1.869  12.460  12.453 -0.0340 -0.1981 -0.1878
32027W        W47158   7.438   2.597   0.237  0.2265 -0.1583  0.1378
32028W        W47159  14.825  11.252   1.001 -0.2881 -0.1257  0.0725
32029W        W47160   2.025  14.006  16.086 -0.1623 -0.3731  0.0855
32030W        W47161   9.074   5.003   4.313  0.3423 -0.0169  0.0766
32031W        W47162   7.569  14.640   2.075  0.2800 -0.0497 -0.0343
32032W        W47163  10.241   0.601   3.394  0.0287 -0.0918 -0.0953
32033W        W47164   3.857   3.912   1.928 -0.0128 -0.2138  0.0220
32034W        W47165   6.527   7.963   3.984  0.0672  0.0964 -0.1291
32035W        W47166   2.123   3.202   3.017  0.2040  0.0999 -0.0261
32036W        W47167  17.625   8.165   5.474 -0.0013 -0.1817  0.2005
32037W        W47168   9.694   6.953  12.610 -0.1778 -0.0607  0.1482
32038W        W47169   2.456   3.835  13.831 -0.1236 -0.0882  0.1791
32039W        W47170  12.988  16.575   1.045 -0.3297  0.0334  0.1145
32040W        W47171  15.963  10.216   0.900  0.2481 -0.0780 -0.1855
32041W        W47172  14.567  14.551  11.570 -0.0957  0.3019  0.0006
32042W        W47173   9.906   0.856  12.388  0.1867 -0.0046  0.2092
32043W        W47174  15.706   8.306  11.766  0.1260 -0.0274 -0.0152
32044W        W47175  13.321  12.074   0.447  0.0478  0.0152 -0.0734
32045W        W47176  14.186  14.898  16.900 -0.1067 -0.2673  0.2649
32046W        W47177   1.088  16.939   2.134  0.3334 -0.2100  0.2022
32047W        W47178  14.484   5.164  12.010  0.1854  0.0843  0.0916
32048W        W47179   1.342  15.972  15.025 -0.0688 -0.0397 -0.0814
32049W        W47180  17.322   7.114  15.355 -0.0820 -0.1589  0.1250
32050W        W47181   4.830  15.116   4.331 -0.0819 -0.0597  0.3153
32051W        W47182  14.684  11.780   0.920  0.1895 -0.3819 -0.0769
32052W        W47183   4.588   2.228  14.072 -0.1004  0.1319  0.0098
32053W        W47184  13.407   5.464   5.606  0.0355 -0.2356  0.2714
32054W        W47185   0.215   3.336  12.761  0.2897 -0.3392  0.3411
32055W        W47186  13.901   6.297  15.267  0.0920 -0.0229 -0.2967
32056W        W47187  10.404   6.691  15.443 -0.0554  0.3421  0.0003
32057W        W47188  10.245   0.824   1.942  0.1096  0.4453  0.1832
32058W        W47189   8.244   9.075   0.401  0.4736 -0.0579  0.0591
32059W        W47190  10.479   2.637  12.035  0.3454  0.1419  0.2301
32060W        W47191   1.147  11.905  16.254  0.1985  0.2220 -0.2111
32061W        W47192  14.640   6.079  12.734 -0.0902  0.0726 -0.0825
32062W        W47193   2.060  10.615  13.120 -0.0621 -0.0345 -0.0175
32063W        W47194  12.351  15.588   1.976  0.1052 -0.1261  0.0262
32064W        W47195   2.623   2.344   3.199 -0.1759 -0.2702 -0.1415
32065W        W47196   7.472   5.924   4.021 -0.0100 -0.0673 -0.1661
32066W        W47197  16.377  12.149   3.903  0.4076 -0.1111  0.0460
32067W        W47198   1.588  13.884   5.943 -0.4201  0.0275 -0.1995
32068W        W47199  13.729  16.385  13.108  0.0593 -0.0828 -0.0860
32069W        W47200  12.385   5.584  12.711  0.0540  0.0079 -0.1001
32070W        W47201   1.010  10.214   4.451 -0.2760  0.2858  0.0257
32071W        W47202  14.242   6.509   4.925  0.1610  0.0838 -0.2547
32072W        W47203  16.256   7.986  14.069  0.0808 -0.1507 -0.2303
32073W        W47204  11.457  16.904   5.885 -0.0944  0.3423  0.2137
32074W        W47205  16.855  16.274  12.967  0.0380 -0.1716 -0.0521
32075W        W47206   7.656   1.073   2.575 -0.0056 -0.1343 -0.3263
32076W        W47207   9.228  10.667  14.458 -0.0502 -0.1967 -0.2849
32077W        W47208  11.081   0.566   4.072 -0.0145 -0.1989 -0.0573
32078W        W47209  15.360   4.187  16.570  0.0120 -0.2105 -0.1030
32079W        W47210  12.365   2.474  15.089  0.0739 -0.2016  0.1364
32080W        W47211  14.379  16.382  13.695 -0.1864 -0.0314 -0.1553
32081W        W47212   8.085  16.511   3.696  0.2917 -0.0340  0.0331
32082W        W47213   2.091  14.063  15.186  0.4046  0.0276  0.0431
32083W        W47214  11.589  12.389   3.291  0.2822  0.1243 -0.1366
32084W        W47215  17.272  10.548   3.632  0.1656 -0.1615 -0.1033
32085W        W47216  13.898  11.735  13.122  0.0728  0.0537 -0.2587
32086W        W47217  10.856   4.778  16.753  0.0809 -0.2309 -0.0409
32087W        W47218   0.936   5.671   3.019 -0.0603 -0.1074  0.4079
32088W        W47219   4.680   8.177   1.807  0.0028 -0.0130 -0.0083
32089W        W47220   4.102  12.424  12.547  0.0600 -0.0099  0.1543
32090W        W47221   6.103   4.846  16.320 -0.2322 -0.0197 -0.0811
32091W        W47222   7.950   7.050  16.445 -0.0352 -0.0871 -0.0658
32092W        W47223   8.037  13.510  14.648  0.0544 -0.0719 -0.0818
32093W        W47224  12.816   3.701   4.760  0.2765 -0.0468 -0.3431
32094W        W47225  15.634   8.803  13.395 -0.0249 -0.1276  0.0712
32095W        W47226  13.728  14.131  15.124 -0.1020  0.2084  0.2003
32096W        W47227   7.761   1.697   3.923 -0.3969 -0.1597  0.0327
32097W        W47228   8.805   8.908   4.809  0.2358 -0.0740  0.1144
32098W        W47229   9.770   7.788  11.550 -0.1028 -0.1241  0.0178
32099W        W47230  11.082   9.801   3.783  0.3887  0.1991 -0.0283
32100W        W47231   5.800   2.621   3.502 -0.2697 -0.1727 -0.0539
32101W        W47232  13.028  14.106   1.102  0.1818 -0.1406  0.0847
32102W        W47233   1.296  12.185  14.034 -0.1580  0.0835  0.1358
32103W        W47234  14.506   0.506   5.287  0.1708 -0.0630 -0.0175
32104W        W47235  15.040  15.604  15.174  0.3183  0.1630  0.2427
32105W        W47236   8.323   7.041   1.309 -0.2009  0.3720 -0.5043
32106W        W47237   5.532  13.400   4.653  0.0253  0.1212  0.2165
32107W        W47238   1.109   4.015  12.767 -0.0926 -0.3632  0.3473
32108W        W47239  15.291   2.742   6.110 -0.3979  0.0375 -0.0384
32109W        W47240   4.275   9.999  12.944 -0.1193 -0.3183  0.0641
32110W        W47241   9.743   4.214  15.013 -0.1751 -0.0808  0.0485
32111W        W47242  13.883   5.073  13.755 -0.0044  0.1611 -0.1936
32112W        W47243   6.104  11.372  14.903 -0.0240 -0.0746 -0.0193
32113W        W47244  14.460  17.346  16.879 -0.1883  0.1163  0.2887
32114W        W47245  12.268  12.333   5.488  0.0557 -0.0640  0.1423
32115W        W47246   3.650   0.122  11.794 -0.0560  0.0559  0.2149
32116W        W47247  17.460  13.802  12.065  0.0402 -0.0150 -0.0839
32117W        W47248  10.794   9.824  14.301  0.0576 -0.0677 -0.1180
32118W        W47249  16.449  14.118   4.363 -0.0845 -0.2488  0.0837
32119W        W47250   7.833  12.364  12.518  0.2760  0.2047  0.0605
32120W        W47251   3.247  17.461  11.313 -0.2001 -0.2014  0.2482
32121W        W47252   7.355  10.805   0.930 -0.0484  0.1181 -0.0189
32122W        W47253   0.949  14.711  15.605  0.2013  0.1217  0.0189
32123W        W47254   2.504  17.133  11.742 -0.1396  0.0670  0.2228
32124W        W47255  10.760  11.865   1.544  0.0218 -0.0372 -0.3138
32125W        W47256  11.292   1.322   1.501  0.1034  0.0773 -0.1947
32126W        W47257   5.770   7.490  13.875  0.1418 -0.1188 -0.0751
32127W        W47258   6.223   9.085   5.064  0.2218 -0.1333  0.1718
32128W        W47259  11.213   2.692  13.276 -0.1533 -0.0320  0.0294
32129W        W47260   1.771   9.189  11.983 -0.0676  0.2465 -0.1768
32130W        W47261   8.646  10.461   3.952 -0.0797 -0.1576  0.1176
32131W        W47262   5.570  12.693  15.377  0.1919 -0.0138 -0.0653
32132W        W47263  16.980  12.978   1.522 -0.0174  0.1191  0.2941
32133W        W47264   1.881   2.234   4.339  0.1034  0.0992  0.1426
32134W        W47265   5.029  13.976  16.772 -0.1109  0.1746 -0.3247
32135W        W47266  10.809   2.269  12.186 -0.1502  0.0684 -0.2108
32136W        W47267  16.135   1.396  12.105 -0.0303 -0.0931  0.2728
32137W        W47268   7.997  13.558  12.725 -0.2439 -0.0800 -0.0286
32138W        W47269   7.960   7.773   2.342 -0.3014  0.0755 -0.0855
32139W        W47270   8.773  10.642  13.761  0.0476 -0.3006  0.4274
32140W        W47271  15.013   2.972  13.061 -0.0705  0.1534  0.2743
32141W        W47272   8.101   2.951   4.101 -0.0233  0.1891  0.1891
32142W        W47273   0.944  11.346  12.491 -0.1636  0.1370 -0.0036
32143W        W47274  15.319  14.256   2.824 -0.0921 -0.1798 -0.0537
32144W        W47275  13.878  16.834   5.949  0.1366 -0.1298 -0.1230
32145W        W47276  13.740   7.072  14.690  0.0768 -0.0548  0.0892
32146W        W47277  13.581  10.281  14.102 -0.1209 -0.2230 -0.0033
32147W        W47278   3.940  12.281  15.241 -0.1013 -0.3351  0.0356
32148W        W47279   1.450   0.869  11.884  0.0110  0.0383 -0.3168
32149W        W47280  13.554   7.300   1.986 -0.2301  0.3122 -0.1545
32150W        W47281   9.732  14.366   2.305  0.3204  0.2859 -0.1386
32151W        W47282  14.193   2.317   4.411 -0.0022  0.0427 -0.1719
32152W        W47283  17.200   4.141   5.030  0.3958  0.0578  0.0643
32153W        W47284   9.297   4.469   2.782 -0.2388  0.1360 -0.1153
32154W        W47285   0.589   9.185  13.992  0.1031  0.0869  0.3452
32155W        W47286   1.714   2.436   0.090 -0.1252  0.2050 -0.1581
32156W        W47287  12.038   4.575   0.568 -0.1532  0.0285  0.1028
32157W        W47288  11.222   0.908   3.225  0.2132  0.0463  0.0866
32158W        W47289   8.221  11.571   4.259  0.2752  0.1345  0.3128
32159W        W47290   9.960   5.210   5.333 -0.2960 -0.0062 -0.0671
32160W        W47291   3.543   8.272  16.924  0.2824  0.1295 -0.0455
32161W        W47292   7.341   0.349  11.611 -0.1071 -0.2392 -0.0038
32162W        W47293   9.443  16.257  16.768 -0.0424  0.1181  0.0488
32163W        W47294  17.344  12.916   5.458 -0.2327 -0.0815 -0.2133
32164W        W47295   4.676  13.759   1.154  0.3780  0.2723  0.0559
32165W        W47296   8.619  14.316  11.768  0.1200 -0.0515 -0.3298
32166W        W47297  10.078   1.522  16.771  0.3166  0.0184 -0.0086
32167W        W47298  12.919   9.184  10.797  0.0670 -0.2329 -0.2641
32168W        W47299  12.648   5.349   0.398 -0.2332  0.3879 -0.0183
32169W        W47300   2.199  12.004  15.622 -0.0900  0.1191 -0.2428
32170W        W47301   7.165   7.353  13.541  0.0207  0.0997  0.0673
32171W        W47302  12.369  15.298  12.255 -0.0168 -0.0694  0.0126
32172W        W47303  15.711   2.711  13.678  0.1005  0.2004  0.2515
32173W        W47304   5.041   1.690   4.450 -0.3551  0.0219  0.1003
32174W        W47305   9.678  13.113   0.026 -0.1928 -0.2753  0.0798
32175W        W47306   6.077   0.591   5.997  0.0651 -0.0611  0.0838
32176W        W47307   4.028   3.432   4.023  0.0807  0.0060  0.0677
32177W        W47308  16.705   6.570   3.103 -0.0686  0.1507 -0.0925
32178W        W47309   8.432   8.417  11.651  0.1370 -0.0273 -0.0656
32179W        W47310  12.709   4.215  10.675  0.0140  0.2060  0.1280
32180W        W47311  11.473  16.805   6.645  0.0645 -0.3306  0.2942
32181W        W47312  15.907   2.362  13.367 -0.1216 -0.2327 -0.0407
32182W        W47313  14.813  14.210  16.294 -0.0448  0.1422 -0.1121
32183W        W47314  17.391  13.317  12.984  0.0472 -0.0576  0.1689
32184W        W47315   9.474  10.820  16.846 -0.2397 -0.3151  0.2461
32185W        W47316  12.078  11.995   3.268 -0.1971 -0.3866 -0.0857
32186W        W47317   0.469  12.665  14.380  0.1784 -0.2164 -0.1583
32187W        W47318  13.034   1.786   4.118 -0.0027  0.0032 -0.1286
32188W        W47319   9.401  10.796   4.515  0.2013 -0.0983 -0.0964
32189W        W47320   3.962  10.413  15.873 -0.0823 -0.2084 -0.1306
32190W        W47321  13.391  14.775   0.191  0.1396 -0.1438 -0.0157
32191W        W47322  13.508   0.307  16.806  0.2367 -0.1381  0.0678
32192W        W47323   8.375  13.457   3.707 -0.2325 -0.1037  0.0201
32193W        W47324  13.645  14.109   0.923 -0.0088  0.0208 -0.0480
32194W        W47325   0.437  10.526  13.387 -0.0314  0.2222  0.1598
32195W        W47326   9.118   7.758  15.468  0.1219 -0.0074  0.1026
32196W        W47327  10.618   7.971  14.717 -0.1090  0.0634  0.0108
32197W        W47328   2.695  13.148  16.628 -0.1676 -0.2808  0.0010
32198W        W47329   1.437   4.242   0.127 -0.2175  0.1139 -0.1904
32199W        W47330   4.758   4.138   3.326  0.2586  0.0179 -0.3579
32200W        W47331  14.350   9.346   0.024 -0.2082  0.2272 -0.2792
32201W        W47332   4.379  13.383   0.877  0.0646  0.2660 -0.1005
32202W        W47333   0.383   1.023   5.976 -0.2286  0.0901  0.0746
32203W        W47334   3.931   3.022   5.523 -0.2520  0.1862  0.1674
32204W        W47335  17.006   9.267   2.464  0.1396  0.3479 -0.1129
32205W        W47336   3.772  14.358  14.820  0.3245  0.0539 -0.0318
32206W        W47337   7.948   9.813  14.596  0.0138 -0.0422 -0.1074
32207W        W47338   4.892   0.997  15.827  0.2179  0.1195 -0.0424
32208W        W47339  11.123  17.447  16.814 -0.2921 -0.0878 -0.1647
32209W        W47340  14.605   0.906  15.906  0.0268  0.0600  0.1307
32210W        W47341   1.922   8.531   4.448 -0.1410 -0.1229  0.2189
32211W        W47342   6.901   0.564  14.761  0.0169 -0.1558 -0.0186
32212W        W47343  13.312  17.248   1.997  0.0066 -0.0790 -0.0096
32213W        W47344   8.175   0.038  16.133 -0.0244  0.0008  0.2473
32214W        W47345   3.066  12.432  16.482  0.2281 -0.0393  0.1210
32215W        W47346  13.094   9.205   0.329 -0.0437  0.1602 -0.0687
32216W        W47347   8.534   4.929   3.272  0.0763  0.1886 -0.0342
32217W        W47348   8.767   4.467   3.402 -0.2807  0.0156  0.1755
32218W        W47349   7.268   7.624   1.906  0.5647 -0.1616  0.2965
32219W        W47350   9.679  11.616   2.138 -0.1920 -0.0261 -0.0435
32220W        W47351  12.605   2.705  15.838  0.0176 -0.1873 -0.1871
32221W        W47352   9.242  17.184   2.047  0.2252  0.2190  0.0797
32222W        W47353   2.483  11.544  12.395 -0.3265  0.1849  0.2606
32223W        W47354  11.579   3.438   5.268  0.0247 -0.4647 -0.1100
32224W        W47355  16.977  15.464  14.597 -0.1071 -0.0895  0.4115
32225W        W47356   4.067  11.516   0.200 -0.2286  0.3105 -0.3516
32226W        W47357   3.148   6.981  13.214 -0.0717 -0.1468 -0.2254
32227W        W47358  15.729   4.372   0.413  0.1422 -0.1599 -0.1414
32228W        W47359   3.125   4.897  13.038  0.1507  0.1956 -0.4454
32229W        W47360   2.419   1.997   0.744 -0.0750  0.0559 -0.1118
32230W        W47361  15.707   8.089   4.711  0.0940 -0.1707  0.0670
32231W        W47362  14.555  11.436  14.262 -0.1888  0.1176 -0.0907
32232W        W47363  13.938   5.262   4.878 -0.2353 -0.1874  0.1449
32233W        W47364  13.568   8.908  16.291 -0.2329  0.1368  0.2496
32234W        W47365   9.527   0.039  14.369  0.3703  0.3821 -0.1303
32235W        W47366  12.241   3.066   5.609 -0.1938  0.0279 -0.2732
32236W        W47367  12.952  13.533   1.800 -0.2507 -0.2148  0.2368
32237W        W47368  12.736   8.669   5.207 -0.1147 -0.0104  0.0958
32238W        W47369  11.530   5.312   0.818  0.0130  0.1647 -0.0240
32239W        W47370   2.749   7.085  15.168 -0.0100  0.1485  0.0819
32240W        W47371  12.528   8.734  15.259  0.0142 -0.0296 -0.0699
32241W        W47372  15.380  16.847  13.886 -0.2622 -0.0821 -0.1862
32242W        W47373  11.248   8.473  11.865  0.0516  0.2513 -0.0659
32243W        W47374  15.593  12.557   4.729 -0.0205 -0.0685 -0.2966
32244W        W47375   6.124  17.018   4.514  0.0249  0.0912  0.1801
32245W        W47376   0.001   3.536  14.004  0.4690 -0.1139  0.2143
32246W        W47377  14.732   8.170  14.978  0.2693 -0.0279 -0.1426
32247W        W47378   6.294  14.477  14.689 -0.1116  0.0239 -0.1557
32248W        W47379   3.953  16.447   0.256  0.0205  0.0606 -0.3879
32249W        W47380  13.953  12.992   5.215  0.2188 -0.0812 -0.3741
32250W        W47381   8.991   1.593   1.371  0.1073 -0.1595 -0.0869
32251W        W47382  12.065   3.509   1.035  0.0618  0.1037 -0.0369
32252W        W47383   5.392   5.293  14.515  0.1349 -0.0049 -0.2725
32253W        W47384  17.623   1.460  10.376  0.1822 -0.1707 -0.0822
32254W        W47385  12.137   7.718  12.403 -0.0790  0.1497  0.0010
32255W        W47386   6.424   9.349   2.294 -0.0171  0.0572 -0.5432
32256W        W47387   4.473   1.337  15.909  0.0664  0.1837  0.0499
32257W        W47388  17.698   0.220  16.594  0.0718 -0.1078 -0.0897
32258W        W47389  11.858   3.580  11.866 -0.1773  0.1039  0.3243
32259W        W47390   8.791   6.710  16.552  0.1027  0.0591 -0.1882
32260W        W47391  13.714  14.724   2.730  0.0337 -0.1039  0.0351
32261W        W47392  10.599  13.105  13.270  0.0565 -0.0965 -0.1126
32262W        W47393   7.446   3.007   0.716 -0.0569  0.0935 -0.2023
32263W        W47394   9.469   3.001   4.109  0.1173  0.0009  0.1091
32264W        W47395   6.616   6.473  16.655  0.1177 -0.1370 -0.4644
32265W        W47396   4.023   6.680   4.346  0.2109  0.1517 -0.1392
32266W        W47397   8.359   0.722   4.725 -0.0230 -0.0118 -0.0560
32267W        W47398   0.116   6.466   4.107  0.0374 -0.1161  0.0945
32268W        W47399   8.863   4.112   4.363 -0.0160 -0.0218  0.1193
32269W        W47400  12.174   1.965   4.344  0.1836  0.0017 -0.0028
32270W        W47401  11.166   0.265  13.151  0.0753 -0.2336 -0.1921
32271W        W47402   1.242   2.023  10.607 -0.0567 -0.2794  0.2434
32272W        W47403   9.447   7.096   4.353  0.2922  0.2325 -0.0676
32273W        W47404  14.939   4.052  11.385 -0.3864  0.1863 -0.2014
32274W        W47405  14.700   3.614   3.415 -0.1170 -0.0113 -0.1594
32275W        W47406  10.362   8.317   0.150 -0.1915 -0.1445 -0.1042
32276W        W47407  17.300  15.712   1.935  0.0161  0.1910 -0.0106
32277W        W47408   2.783   3.401   3.447  0.1333 -0.1404  0.0084
32278W        W47409  15.909  17.103   0.279  0.5046  0.1694 -0.2150
32279W        W47410   0.065   9.985   4.100 -0.2539  0.0268  0.3998
32280W        W47411  11.789   4.037  12.362  0.3177 -0.0712 -0.1392
32281W        W47412   0.779  14.802  12.900 -0.0893 -0.0142 -0.1739
32282W        W47413  12.653  11.266   3.339  0.0546  0.3999  0.2435
32283W        W47414   9.439  12.889   2.942 -0.2171  0.2370 -0.1667
32284W        W47415  14.827   3.093   4.616  0.2609 -0.0711 -0.0802
32285W        W47416  13.831  14.921   4.655 -0.1664  0.3368  0.1511
32286W        W47417   9.395   2.491   4.131  0.1288  0.0013 -0.2906
32287W        W47418   7.761   5.095  12.696 -0.3802  0.1238  0.1172
32288W        W47419  10.524  15.933   2.699 -0.0537  0.1228  0.2020
32289W        W47420  10.714  13.248   3.894  0.0557  0.1586 -0.0786
32290W        W47421   1.954   0.317  11.091 -0.2301  0.4258  0.3408
32291W        W47422  11.620   1.941  16.649 -0.3317 -0.0628  0.1031
32292W        W47423   4.554   9.714   2.650  0.1060  0.1856 -0.2156
32293W        W47424   1.534  14.864  15.083  0.0588 -0.0812  0.0436
32294W        W47425  16.661   6.370  14.400  0.0553 -0.1316  0.0389
32295W        W47426  11.430   8.599   4.583 -0.1124 -0.0668 -0.4004
32296W        W47427   1.200   1.019   2.093  0.0177  0.0268 -0.0303
32297W        W47428   2.900   4.681  15.790 -0.3005 -0.2420 -0.2666
32298W        W47429  13.378   0.263   0.760  0.1937  0.1466 -0.0841
32299W        W47430  16.929   0.995  11.410  0.1356 -0.0395 -0.1778
32300W        W47431   2.569   3.915   4.505 -0.2119  0.1187  0.1168
32301W        W47432   9.914  13.547  16.815  0.0365  0.0606 -0.4392
32302W        W47433   3.590   5.364   4.799 -0.0248  0.0350 -0.2866
32303W        W47434   0.070   3.970  13.789 -0.0332  0.0660 -0.0664
32304W        W47435   9.970   4.042   0.689 -0.1123  0.1793 -0.2186
32305W        W47436   4.158   1.567  12.043 -0.0011  0.0803  0.0180
32306W        W47437   1.477  17.447   2.957  0.0267 -0.2147  0.3170
32307W        W47438   4.491   1.253   5.847  0.2837  0.1900 -0.0162
32308W        W47439   0.949   0.853  14.583 -0.1384  0.1079 -0.2835
32309W        W47440   6.963  10.487   1.886 -0.0623  0.2588  0.1248
32310W        W47441  10.367  17.406   4.204 -0.1018  0.0705 -0.0299
32311W        W47442   7.855   6.822  14.087 -0.0815  0.3623  0.3126
32312W        W47443   4.037   0.976   4.842  0.0064 -0.1949 -0.1717
32313W        W47444   8.197   4.864   2.795  0.1932 -0.3057 -0.1737
32314W        W47445  11.115  11.206   2.965 -0.1424  0.0142 -0.0228
32315W        W47446   2.512  16.986  13.134  0.1848 -0.0454 -0.1806
32316W        W47447   7.264   6.609  15.776  0.1537  0.0494  0.0782
32317W        W47448   2.699  16.683  12.718 -0.0268 -0.0963 -0.0630
32318W        W47449   5.193  14.975   1.292 -0.0662  0.1061 -0.0366
32319W        W47450  14.792  10.264  15.314  0.0534  0.1360  0.3254
32320W        W47451   7.348  11.003  12.915  0.2284 -0.1024  0.1562
32321W        W47452   6.882  17.026   2.131 -0.1034 -0.1548  0.0425
32322W        W47453  16.538   3.596  16.653  0.0739 -0.0073  0.0508
32323W        W47454  12.237  13.044   2.914  0.3034  0.0141  0.0165
32324W        W47455   9.869  11.545   3.115  0.3425  0.0723  0.0702
32325W        W47456   7.572   9.544  12.287  0.1551  0.1198  0.0456
32326W        W47457   5.731  13.984  15.721 -0.1164 -0.0259 -0.2852
32327W        W47458   7.093   2.204   6.157 -0.1645  0.0192 -0.0027
32328W        W47459  16.670  11.369  15.326  0.0044 -0.0561 -0.0687
32329W        W47460  15.246   0.160  11.262 -0.1312 -0.1138 -0.3327
32330W        W47461  11.713  13.529   1.477  0.0461 -0.0680  0.0269
32331W        W47462   1.848   6.666  15.146  0.0822  0.2281 -0.0479
32332W        W47463   4.929   9.406   2.433  0.1543 -0.1506 -0.1735
32333W        W47464  13.197   2.841  11.673  0.2546  0.1145 -0.0512
32334W        W47465  16.249  14.897   0.565 -0.0093 -0.2067  0.0416
32335W        W47466   0.944  12.260  12.248  0.1014 -0.2260  0.3730
32336W        W47467   0.037   7.468  13.676  0.0680 -0.1433  0.1684
32337W        W47468  12.005  10.293   0.592  0.2073  0.0511 -0.0964
32338W        W47469  14.398  16.319   0.485 -0.2513  0.1982 -0.1849
32339W        W47470  15.672  13.809   4.051 -0.1187 -0.0810 -0.3868
32340W        W47471   3.033   1.162  11.650 -0.3009 -0.0395 -0.1869
32341W        W47472   8.556  11.052   3.015 -0.3554 -0.1791  0.0120
32342W        W47473   7.906  10.998   3.609 -0.0557 -0.1356  0.1595
32343W        W47474   6.449   9.826  15.030  0.0231 -0.0385  0.1787
32344W        W47475  16.027   0.583  13.377  0.1436  0.0942  0.0586
32345W        W47476   2.952  15.011  16.333 -0.1470 -0.4043  0.1557
32346W        W47477  13.659  11.242  12.026  0.0575  0.2122  0.0248
32347W        W47478   3.478  16.098   4.340 -0.0052 -0.3464 -0.0702
32348W        W47479   9.438  12.668   1.361 -0.1592 -0.0521 -0.0488
32349W        W47480   8.289   5.257  15.177  0.2682  0.2114  0.0756
32350W        W47481   2.284   4.552   2.313  0.0239  0.0483 -0.2668
32351W        W47482  13.171  10.407  13.719 -0.5097 -0.1568  0.1861
32352W        W47483   8.317   8.597   0.912  0.0486  0.1980  0.3208
32353W        W47484   4.073  13.934  13.653 -0.1021 -0.0161 -0.1625
32354W        W47485   4.715  17.554   1.614  0.1481  0.0700  0.0232
32355W        W47486   5.658  10.654   3.689 -0.0802 -0.2191  0.0963
32356W        W47487  13.349  14.476  11.471  0.0963 -0.2100  0.3276
32357W        W47488  15.175   2.899  11.279 -0.2320  0.1655 -0.3376
32358W        W47489  12.115  16.186   0.672  0.1360 -0.2484  0.1132
32359W        W47490   0.057  16.405  12.184 -0.0388  0.3216 -0.1227
32360W        W47491   7.038  11.419  12.601  0.2499  0.0866 -0.0414
32361W        W47492  14.711   6.500  12.254 -0.1478 -0.0174 -0.1210
32362W        W47493  16.704   7.056   0.956  0.3427  0.1321  0.0722
32363W        W47494  15.142  16.314   2.679  0.1281  0.1530 -0.2076
32364W        W47495   3.669  12.813   0.029  0.2814 -0.3413 -0.2175
32365W        W47496   8.532   8.947   5.493 -0.0385 -0.1802  0.0855
32366W        W47497   7.886   7.548   1.895  0.0046  0.1665  0.0036
32367W        W47498  10.708  11.975   0.074 -0.1227 -0.1384 -0.1586
32368W        W47499   7.057  11.013   1.838 -0.2799  0.1727  0.1129
32369W        W47500  14.945  10.657   3.042  0.2795 -0.0916 -0.1705
32370W        W47501  14.062  10.044   4.683 -0.0332  0.1815  0.2009
32371W        W47502   9.260  10.416  16.227 -0.3312 -0.0926 -0.1551
32372W        W47503   9.650   9.906   0.382 -0.0564 -0.1004 -0.0042
32373W        W47504  13.145   8.599   1.037  0.0328  0.1947  0.2892
32374W        W47505  14.307   7.704   0.527 -0.0617 -0.2184 -0.0945
32375W        W47506   6.512   5.378   5.133 -0.1418 -0.2141  0.1498
32376W        W47507   1.278   1.399   1.774  0.2080  0.1189  0.2021
32377W        W47508  16.135  17.373   5.829 -0.2314 -0.1866  0.4522
32378W        W47509   0.227   4.443   5.424  0.2361 -0.0220  0.2031
32379W        W47510   8.844  12.946  16.809 -0.0444  0.2181 -0.0133
32380W        W47511  17.536   9.252  13.424  0.2353 -0.0900 -0.0091
32381W        W47512  16.047   6.848   1.411  0.4089 -0.1432 -0.1925
32382W        W47513  10.570  16.173   2.272  0.0738 -0.1282  0.0754
32383W        W47514   7.858   2.952  14.711  0.1275 -0.1577 -0.3097
32384W        W47515   5.018   2.234  16.008  0.0221  0.3737 -0.0294
32385W        W47516  12.322  14.376   3.970  0.0795  0.2096  0.0123
32386W        W47517  15.233  10.831   3.395 -0.1308  0.1464  0.3400
32387W        W47518   8.197   3.328  14.809 -0.2138  0.0429  0.3417
32388W        W47519  10.068   5.791  12.801  0.1356 -0.1796 -0.2905
32389W        W47520  17.266   6.349   2.388 -0.0172  0.1617 -0.0761
32390W        W47521  16.662  14.507   4.746 -0.1161  0.1430  0.1952
32391W        W47522   7.147  15.696   5.761  0.0431 -0.2338 -0.0108
32392W        W47523   1.807   2.284   1.969 -0.1986  0.1418 -0.1953
32393W        W47524   7.120  16.390   6.403 -0.1807  0.0718  0.1259
32394W        W47525  10.178   7.434   3.875 -0.2020  0.0488  0.2277
32395W        W47526   1.316  12.156   5.613 -0.1296  0.0049  0.0021
32396W        W47527  10.462  12.884  15.324  0.0444  0.0960  0.0802
32397W        W47528   2.967  13.109   4.845 -0.0285 -0.0282 -0.3325
32398W        W47529  13.816   8.072   3.850  0.1233  0.2655  0.0356
32399W        W47530   9.954  14.664   2.020  0.0928  0.0971 -0.2586
32400W        W47531   6.708   7.847   5.271  0.1204 -0.0351 -0.2712
32401W        W47532  13.548  14.373   3.612 -0.1429  0.0094 -0.1929
32402W        W47533  11.796   2.643  13.169  0.0234  0.0415 -0.1075
32403W        W47534   2.686  14.399  10.870  0.2771  0.1941  0.1414
32404W        W47535   7.705  15.260   6.207  0.0354 -0.0437 -0.0063
32405W        W47536   9.804   3.808  15.959  0.2222 -0.0925 -0.0173
32406W        W47537   1.490   9.788   2.483 -0.1763 -0.1601  0.1482
32407W        W47538  16.650   5.816   0.558 -0.0175  0.2102  0.0937
32408W        W47539   2.444   8.488   3.070  0.0354  0.1783 -0.1794
32409W        W47540  15.334   8.888   4.084 -0.0024 -0.0750  0.2088
32410W        W47541  16.263   3.892  13.122  0.1376  0.0679  0.0668
32411W        W47542   3.630  15.789   5.695 -0.2213 -0.0618 -0.1512
32412W        W47543  16.149  11.245   3.489 -0.1510 -0.0335 -0.2017
32413W        W47544   0.371   3.106   0.350 -0.1249  0.2067 -0.0847
32414W        W47545   6.398   1.390   3.587  0.0212 -0.0155 -0.1162
32415W        W47546  14.841  14.886   0.772 -0.0298  0.1140  0.1434
32416W        W47547   1.363   4.312   3.339  0.0618  0.0962 -0.0845
32417W        W47548  14.148   2.502   1.841 -0.4220  0.0107 -0.3085
32418W        W47549   6.359  17.493  11.904  0.0559 -0.0784 -0.0774
32419W        W47550   8.805   5.296   3.063  0.1191 -0.1672 -0.0705
32420W        W47551  12.491   3.745   0.939  0.1767 -0.1656 -0.2190
32421W        W47552  11.480   1.027  16.060 -0.0139  0.0995 -0.1017
32422W        W47553  17.001   1.517   4.015 -0.1262  0.1549  0.0042
32423W        W47554   5.070  16.136  14.803  0.0044  0.0776  0.0614
32424W        W47555  17.645   3.891  11.975 -0.0389  0.2990 -0.1830
32425W        W47556   7.835   0.847  16.273 -0.0316  0.0939 -0.2445
32426W        W47557  14.573   1.783  15.268 -0.0742  0.2790  0.1294
32427W        W47558  12.829   0.585   6.660 -0.1374  0.1169  0.0527
32428W        W47559   3.595  11.243   1.391  0.1435  0.2463  0.0973
32429W        W47560   6.077  10.000  15.312  0.0994 -0.3471 -0.1472
32430W        W47561  12.615   6.481   1.724  0.2951 -0.0686 -0.1089
32431W        W47562   2.779   9.131   1.611  0.3158 -0.1220  0.0817
32432W        W47563  14.000  13.393  13.595 -0.0519  0.1836  0.0807
32433W        W47564  13.425  10.818   0.319 -0.0382  0.2954 -0.0301
32434W        W47565   7.323   1.392   1.727 -0.3573 -0.1405  0.1206
32435W        W47566   0.952   8.219  16.814 -0.0006  0.1029 -0.0070
32436W        W47567  16.893  15.488   3.738  0.2201  0.1585  0.0270
32437W        W47568   9.893   4.160   0.153 -0.0424 -0.1516 -0.0713
32438W        W47569   7.232   5.561  16.893 -0.1439  0.2970  0.1410
32439W        W47570   6.639  11.572   4.172 -0.1585  0.0674 -0.3300
32440W        W47571   9.096  16.174   2.952 -0.0730 -0.3034  0.1080
32441W        W47572   2.576   8.012  11.469  0.1719  0.1501 -0.3049
32442W        W47573   7.870  13.643   6.429 -0.1648  0.2871  0.0822
32443W        W47574   8.282   8.160   5.738 -0.2028  0.0120  0.0858
32444W        W47575   1.522  17.194  11.574  0.1356 -0.2897 -0.3491
32445W        W47576   8.921  15.909   3.465 -0.0898  0.3720  0.0314
32446W        W47577  13.421   3.387  16.453  0.1821 -0.2825  0.0943
32447W        W47578   5.219   2.477   3.745  0.3112 -0.3008 -0.1858
32448W        W47579   8.376   9.263   0.889 -0.2354 -0.0809  0.0704
32449W        W47580  14.178   0.938  16.631 -0.0995 -0.2898 -0.0586
32450W        W47581  16.642  14.626  12.084 -0.2711  0.1698  0.0405
32451W        W47582  17.652  13.475   4.061  0.0109 -0.2924  0.0942
32452W        W47583   6.312  17.185   3.993  0.2243  0.1339 -0.2374
32453W        W47584  16.504  16.089  11.025 -0.2861  0.0884 -0.3035
32454W        W47585   7.815  14.314  12.313 -0.0120 -0.2673  0.1235
32455W        W47586   3.648   3.450   3.726 -0.0355 -0.1434  0.0123
32456W        W47587  13.236   2.146   4.467  0.0876 -0.2862  0.0529
32457W        W47588  15.939  17.307   4.229  0.0777 -0.4625 -0.3071
32458W        W47589   3.078   3.854   4.248 -0.0971  0.2858 -0.2426
32459W        W47590  10.981   1.651   1.768 -0.0163  0.0843 -0.0693
32460W        W47591   5.603   6.142  15.308 -0.1245 -0.0243 -0.3048
32461W        W47592   4.359  10.633   5.093  0.0180  0.1249 -0.1215
32462W        W47593  16.158  13.073  14.466 -0.0567  0.2968 -0.1368
32463W        W47594   9.463  12.925  14.880  0.2610 -0.0826 -0.0203
32464W        W47595  11.709  10.695   1.941 -0.3235 -0.2450 -0.0255
32465W        W47596   7.558   8.030  14.176  0.0339 -0.0117  0.3852
32466W        W47597  12.006  16.473  13.730 -0.2281  0.2464 -0.0027
32467W        W47598   2.675   1.565   5.070  0.0280 -0.1337  0.3843
32468W        W47599  17.670  10.084  14.020 -0.0523  0.2149  0.1093
32469W        W47600   1.462   3.437   5.143  0.0560  0.0326  0.0446
32470W        W47601   4.425   0.341   2.738 -0.3387 -0.1921  0.1755
32471W        W47602  11.841   5.257   2.350 -0.1108 -0.2085  0.0508
32472W        W47603   0.644  15.331  16.035  0.1051  0.0335 -0.0913
32473W        W47604   0.252   6.945   0.209 -0.2947 -0.1835  0.1258
32474W        W47605   4.601  14.847  16.557  0.4284 -0.0972 -0.1355
32475W        W47606  14.628   4.826  11.105 -0.1329 -0.0222 -0.0683
32476W        W47607   5.067   5.178   5.293  0.1843 -0.0265 -0.2222
32477W        W47608   1.592  10.977   2.865  0.0072  0.1437  0.1658
32478W        W47609   8.717   4.819   2.801 -0.3290 -0.1805  0.1086
32479W        W47610  16.990   6.803   3.962 -0.1810  0.0829 -0.3468
32480W        W47611  12.812  15.567  16.489 -0.1376 -0.0933 -0.1390
32481W        W47612   9.981   0.276   0.305 -0.2742  0.1944  0.1181
32482W        W47613   1.471  16.737  13.712 -0.0711 -0.1455 -0.0558
32483W        W47614   2.602   0.251  16.479 -0.0419 -0.0545  0.0274
32484W        W47615   3.034  15.640   1.245 -0.0137  0.1043  0.2706
32485W        W47616   4.170  16.195  11.363  0.0772  0.2748  0.1522
32486W        W47617  10.418   4.712  16.223  0.0239 -0.0349  0.2522
32487W        W47618  10.759  11.389   0.270  0.4620 -0.0431 -0.0064
32488W        W47619   6.924  13.329   3.097  0.1234 -0.1530  0.0803
32489W        W47620   1.797  16.575   5.698  0.0526 -0.0807  0.1302
32490W        W47621   3.097  13.871   3.067 -0.2723 -0.2361  0.1874
32491W        W47622  13.316  11.234  14.235 -0.1631 -0.0602  0.1832
32492W        W47623   6.341  12.905  16.460  0.1901  0.0850  0.0324
32493W        W47624   0.598   0.893   4.524  0.0813  0.1726 -0.0663
32494W        W47625   2.820  13.621   4.167  0.0324  0.0187  0.2301
32495W        W47626   3.931  11.505  15.814  0.2414  0.3128  0.1889
32496W        W47627  15.240   6.353  15.454 -0.0088  0.0106  0.2257
32497W        W47628  10.041  11.700  12.206 -0.2113 -0.2049  0.1513
32498W        W47629   3.241   0.850  16.263  0.3228 -0.3089 -0.1471
32499W        W47630   8.098  10.870   6.152  0.2856  0.0797  0.0797
32500W        W47631   1.920   6.281   0.248  0.0947 -0.1124  0.0621
32501W        W47632  11.704   4.883   4.735  0.0345 -0.1195  0.1833
32502W        W47633   4.973  15.424  10.712 -0.0479  0.0913 -0.3146
32503W        W47634  16.703   4.629  13.642 -0.0813  0.1562  0.0055
32504W        W47635   1.540   2.452  12.644  0.3409 -0.1257  0.0194
32505W        W47636  16.403   3.617   0.250  0.1180  0.1618 -0.0175
32506W        W47637  16.033   7.490   5.574 -0.1569 -0.0039  0.1715
32507W        W47638   9.036  10.233   1.381  0.0128 -0.1577 -0.1001
32508W        W47639   9.595   4.602  15.974  0.0665  0.0198  0.2475
32509W        W47640  17.430  10.952   1.724 -0.0725 -0.0907 -0.1076
32510W        W47641   3.234  15.255  16.003  0.0367 -0.0647  0.2508
32511W        W47642  14.147   4.445   0.297  0.3897 -0.0922  0.0923
32512W        W47643  16.036  16.452   3.255  0.0030  0.2375 -0.0566
32513W        W47644   9.987  14.474  15.120  0.1266  0.0301  0.0190
32514W        W47645  10.303  17.702   4.610 -0.0329  0.1399 -0.0749
32515W        W47646  10.621   6.641   6.175 -0.1448  0.1370 -0.3792
32516W        W47647   5.905  14.824  14.749  0.0548  0.0876 -0.1390
32517W        W47648   4.546  13.313   4.056  0.3380 -0.3207 -0.2584
32518W        W47649   7.336  13.961  13.080  0.0172 -0.2751 -0.1597
32519W        W47650  14.348   4.023   0.553 -0.2259  0.0653 -0.0144
32520W        W47651   4.269   5.665   2.610  0.1419 -0.0667 -0.1402
32521W        W47652   9.691  16.597   5.735  0.0272 -0.0739 -0.1491
32522W        W47653  15.979  12.387   5.074 -0.1960  0.2412  0.2946
32523W        W47654   9.296  16.823   6.577 -0.3221 -0.2004  0.0328
32524W        W47655   9.330  13.921   4.178  0.0787 -0.3000  0.0797
32525W        W47656   9.143  14.787  15.077  0.2082  0.2285  0.0434
32526W        W47657  11.350   7.761  15.612 -0.0649  0.1077  0.1470
32527W        W47658  15.765   0.697  11.864  0.0403  0.3457 -0.0378
32528W        W47659   7.163   2.619  16.749 -0.0929  0.2482 -0.2680
32529W        W47660   9.318   1.996   0.043 -0.1242 -0.1603 -0.3023
32530W        W47661   6.329  15.154  11.795 -0.3583 -0.2750  0.3298
32531W        W47662   2.111   9.938   1.500  0.1618 -0.0233 -0.0420
32532W        W47663   4.756   3.192  12.687  0.4025 -0.0336 -0.0932
32533W        W47664  14.514   1.954  11.120  0.0889  0.0778  0.0215
32534W        W47665   4.087   0.002   1.585  0.0497 -0.0133  0.2807
32535W        W47666   8.805  15.427   2.169 -0.3487  0.0648 -0.0147
32536W        W47667  11.714  10.993   3.225  0.0935  0.1932  0.5275
32537W        W47668   5.937  16.521  11.101  0.1448 -0.2856  0.0602
32538W        W47669  11.555   6.877  15.025  0.1382  0.0298 -0.0280
32539W        W47670  12.493   6.437  13.957 -0.1075  0.0842 -0.2333
32540W        W47671   7.318  15.240   4.984 -0.1750  0.0348  0.1144
32541W        W47672   4.164   2.329  13.883  0.0191 -0.0345  0.2979
32542W        W47673   2.280  16.131   3.421 -0.3859  0.1768 -0.0695
32543W        W47674   7.075  14.248   0.478  0.2217  0.0099 -0.1791
32544W        W47675   0.038   0.384   5.015 -0.2963  0.0978  0.0020
32545W        W47676   4.523   3.890   0.162 -0.1693  0.1655 -0.0819
32546W        W47677  16.814   7.261   0.511 -0.0992  0.2039  0.2216
32547W        W47678   4.914   1.238  11.829 -0.0225  0.2668  0.0076
32548W        W47679  16.558  14.545   2.482 -0.1229  0.1477 -0.1951
32549W        W47680   9.579   1.495   4.903 -0.3181 -0.2428  0.0748
32550W        W47681   8.608  14.523  13.942 -0.1298 -0.0559  0.1137
32551W        W47682   0.524  11.755   5.444  0.2512  0.0946  0.2527
32552W        W47683   4.228   9.513  14.867 -0.0419 -0.0554  0.0034
32553W        W47684  10.476  15.383   1.965 -0.4177 -0.4323 -0.1933
32554W        W47685  13.012   2.737   1.057 -0.3438  0.0742 -0.2046
32555W        W47686   4.615   2.439  16.316  0.2413  0.1702  0.2199
32556W        W47687   3.672   2.803   3.088  0.0926  0.0065 -0.0310
32557W        W47688  13.563   9.187  14.671 -0.4243 -0.2427  0.0176
32558W        W47689  14.013  14.127   5.848 -0.4711  0.0239  0.1476
32559W        W47690   2.402   5.453  11.297 -0.1112  0.1261  0.1176
32560W        W47691  14.893  11.423  13.482 -0.4661 -0.3694  0.1774
32561W        W47692   5.900   0.679  15.855 -0.1206  0.1281 -0.0376
32562W        W47693   2.912  17.623  12.693 -0.1233  0.0979  0.0915
32563W        W47694   5.742   8.636   4.798 -0.2592 -0.1099 -0.1865
32564W        W47695  14.535   0.903  13.582 -0.2737  0.1617 -0.2178
32565W        W47696   0.313   9.760   5.538  0.0424 -0.2324 -0.2688
32566W        W47697  17.119   5.623   5.136  0.1656 -0.0215  0.0531
32567W        W47698   8.546   3.780   4.670 -0.1041  0.0076 -0.0095
32568W        W47699   6.139   5.812   2.087 -0.2197  0.0540 -0.0977
32569W        W47700   0.425  12.181   4.571  0.0984 -0.1926 -0.3354
32570W        W47701   7.423   4.260  14.784 -0.1410  0.0802  0.0673
32571W        W47702   8.725  14.484   5.383  0.0988 -0.2996 -0.0987
32572W        W47703   5.287   3.732  13.110 -0.0898  0.0015  0.0023
32573W        W47704   3.628  11.233   3.632  0.0165  0.0009 -0.0059
32574W        W47705   4.250  16.832  13.113 -0.1378 -0.4098  0.4201
32575W        W47706   0.578  14.749  13.745  0.2571  0.2276  0.1030
32576W        W47707  12.841   9.623   2.736  0.0961 -0.0237  0.0730
32577W        W47708   7.204  15.048   3.953 -0.1341  0.1552  0.0590
32578W        W47709   9.361   9.970  13.961 -0.1381 -0.1973 -0.1984
32579W        W47710  10.352   4.307   2.466 -0.0991 -0.0866  0.1239
32580W        W47711  10.142  15.802  12.658  0.0555  0.1963  0.1067
32581W        W47712   6.964   4.349   2.865 -0.0316  0.1403 -0.0398
32582W        W47713   3.397  11.796  13.549  0.1329  0.0719 -0.0074
32583W        W47714  10.692   6.071  16.910 -0.1457  0.2372  0.4753
32584W        W47715  16.767  13.739   1.377  0.1465  0.2215  0.1764
32585W        W47716   6.169   9.737  13.014 -0.0344  0.2862 -0.0630
32586W        W47717  10.656   3.171  15.845  0.0292  0.1029 -0.0617
32587W        W47718   1.880   2.522  11.042  0.3461 -0.1310  0.1881
32588W        W47719   8.214  13.583  11.916 -0.1759 -0.0980  0.0512
32589W        W47720  11.367  17.200  11.386 -0.0982  0.0328 -0.1049
32590W        W47721   8.178   0.004  11.268 -0.3263  0.0629 -0.0371
32591W        W47722  10.266   1.595  11.874 -0.1073 -0.0304 -0.1294
32592W        W47723   0.910  15.649   4.589  0.3088 -0.2841 -0.3422
32593W        W47724   3.374  17.470  15.619  0.1748  0.4471  0.0319
32594W        W47725   5.354   0.420   3.151 -0.2620  0.3049 -0.0101
32595W        W47726  14.621   8.365   3.025  0.1753 -0.1174  0.3494
32596W        W47727  11.195   6.423  13.881 -0.1411  0.0938 -0.2681
32597W        W47728  15.719  14.339  14.464 -0.0632  0.0429 -0.0052
32598W        W47729   3.081  16.519  14.692  0.2468  0.0196 -0.0840
32599W        W47730  11.600   1.234   3.020 -0.0713  0.0129  0.3315
32600W        W47731  13.184   8.191  15.634  0.3668 -0.2097  0.0162
32601W        W47732   0.311  16.988  14.286  0.2674  0.1529 -0.2696
32602W        W47733   2.472  11.256   2.239 -0.1674  0.1522  0.4865
32603W        W47734  13.586  12.393  15.416  0.1860 -0.2871  0.2086
32604W        W47735   0.691   2.362   3.280  0.1234  0.1370  0.1419
32605W        W47736  17.060  17.195  12.050  0.2572  0.0772  0.0380
32606W        W47737  13.124   3.098  12.625  0.3967 -0.1125 -0.1745
32607W        W47738   9.688  10.438  16.552 -0.0645 -0.4125 -0.0337
32608W        W47739   9.317   4.391  16.355  0.0177 -0.1190 -0.0707
32609W        W47740   6.716  17.257  15.810  0.0669 -0.1329 -0.0927
32610W        W47741  12.369   6.195  11.139 -0.1417  0.0168 -0.3192
32611W        W47742  14.176   7.850  12.977 -0.1667 -0.0058  0.2157
32612W        W47743  17.058   5.425  14.631  0.0821 -0.2331  0.0255
32613W        W47744  14.673   1.005   3.486  0.0825  0.0674  0.0808
32614W        W47745   0.395   8.202   0.391 -0.3419  0.1328  0.1252
32615W        W47746  13.431   9.317   4.931  0.0689 -0.0426  0.1116
32616W        W47747   8.612  12.794  14.706 -0.0579  0.2286  0.1242
32617W        W47748   4.127   2.091  12.106  0.0765 -0.2503 -0.0894
32618W        W47749   9.368   3.834   3.587 -0.1406  0.1482  0.0723
32619W        W47750   4.639   0.277   5.842 -0.1151 -0.0035  0.1699
32620W        W47751   2.420  17.159   0.455 -0.3229 -0.1083 -0.1309
32621W        W47752   4.981   3.524  15.013  0.0896 -0.1100 -0.1222
32622W        W47753   5.347  11.369   2.463  0.0162 -0.0207 -0.2023
32623W        W47754  12.036  11.047  16.251  0.1915 -0.1715  0.0887
32624W        W47755   7.230  16.485   2.889 -0.3861  0.1847  0.2212
32625W        W47756  15.800  11.899  15.865 -0.0222 -0.1791 -0.0428
32626W        W47757   0.310   8.035   2.332  0.0695  0.1164 -0.1529
32627W        W47758   8.942   8.029  16.902 -0.2093  0.1295 -0.1947
32628W        W47759   6.703   4.236  16.491 -0.3672 -0.0340  0.0791
32629W        W47760  15.174  12.191   1.963  0.1978 -0.1724  0.3959
32630W        W47761  16.760  15.386   4.661 -0.1949  0.3482 -0.1638
32631W        W47762  15.124   7.553   3.005  0.1199  0.1366 -0.0592
32632W        W47763  13.755  17.263  15.585 -0.2549 -0.0155 -0.1280
32633W        W47764   4.641  17.164   2.176 -0.0711  0.0714  0.2241
32634W        W47765   4.553  13.495  16.060 -0.1633 -0.2375 -0.0407
32635W        W47766  15.280   6.999   1.798  0.0559 -0.0621  0.3119
32636W        W47767   1.963   9.087  16.481 -0.0431 -0.0508 -0.0569
32637W        W47768   8.097  15.132   1.058 -0.2399  0.0333  0.1367
32638W        W47769   3.787  11.018  12.437 -0.0559  0.1993  0.0011
32639W        W47770   0.949  10.280   3.951  0.3939 -0.0250  0.1600
32640W        W47771  10.532   9.911   1.332  0.0598 -0.2331 -0.0437
32641W        W47772   5.017  11.177  14.712 -0.0463  0.1510 -0.0829
32642W        W47773   7.666  12.885   2.934  0.1602  0.0437  0.2064
32643W        W47774   8.052  12.076   5.004  0.0908 -0.0104  0.0442
32644W        W47775  10.289  17.261  14.847  0.3816 -0.0438  0.2336
32645W        W47776   6.975  14.711  11.383 -0.3832 -0.0438  0.0520
32646W        W47777  17.052  10.867  16.425  0.1261 -0.1219 -0.1303
32647W        W47778   7.768  15.558   3.824 -0.1789 -0.0067 -0.2341
32648W        W47779  16.104  15.923  16.062 -0.0679 -0.1474  0.0772
32649W        W47780   7.787  13.083  13.170  0.2018  0.0963 -0.2331
32650W        W47781  10.938   4.676   4.452 -0.0064  0.0993 -0.1128
32651W        W47782  16.601  17.241  11.701  0.1789 -0.0855 -0.1217
32652W        W47783  15.643   8.833   1.808  0.1224 -0.2390 -0.3693
32653W        W47784   4.289   2.043   2.631 -0.1412  0.0716 -0.0324
32654W        W47785   4.230  12.541  13.414  0.2257 -0.2862 -0.0122
32655W        W47786   9.433   2.184  11.887 -0.4465 -0.4529  0.0517
32656W        W47787   7.076   0.128  12.826 -0.1860  0.1056 -0.2540
32657W        W47788  15.966   2.825  16.614 -0.0226 -0.0371  0.0360
32658W        W47789  17.350   2.225   5.172  0.2323 -0.2869 -0.4158
32659W        W47790   1.544  10.717   3.299  0.1422 -0.1811 -0.1511
32660W        W47791   9.039  11.938  12.909 -0.2269  0.2701 -0.1681
32661W        W47792   3.843   5.065   2.836  0.1663  0.4225  0.1443
32662W        W47793   9.652   0.243   1.739  0.2050  0.0715  0.0417
32663W        W47794   8.975   9.510  11.666 -0.1378  0.0915 -0.3124
32664W        W47795   4.660   2.384  14.546  0.1461 -0.0753 -0.3990
32665W        W47796  13.929   9.062  15.016 -0.0287 -0.1759 -0.0294
32666W        W47797   0.317   5.455  11.455  0.1562  0.1991 -0.0298
32667W        W47798   8.406   8.233  13.198  0.0829  0.1606 -0.0216
32668W        W47799  15.562  15.242  14.096 -0.0707 -0.0324 -0.1086
32669W        W47800  10.466  16.998   3.919  0.0709 -0.1455 -0.2291
32670W        W47801   1.200  15.683   4.135  0.1621  0.1587 -0.1071
32671W        W47802  12.917   4.255   0.568  0.3383  0.0748  0.0923
32672W        W47803  17.587  10.519   2.005  0.1329  0.0608  0.1560
32673W        W47804   7.415  17.413  12.846 -0.0329 -0.2434 -0.0563
32674W        W47805  16.356   3.857   4.449  0.1695 -0.0473  0.2443
32675W        W47806  10.596   1.076  15.837 -0.1653 -0.0593  0.0152
32676W        W47807   9.518   1.436  15.482 -0.1660  0.0488  0.3656
32677W        W47808   2.341   7.410  15.184 -0.0384 -0.0890 -0.1857
32678W        W47809   9.308   8.592   5.527  0.1092 -0.3869 -0.0044
32679W        W47810  10.007   1.998   3.214 -0.1347 -0.2179  0.0097
32680W        W47811   7.183   3.153   1.250  0.1189  0.2066 -0.1022
32681W        W47812   8.634   3.007   4.255 -0.1588 -0.1240 -0.1721
32682W        W47813  13.370  10.931  15.025  0.0030  0.0329 -0.2550
32683W        W47814  13.167   7.861   0.439 -0.3363  0.1368 -0.0412
32684W        W47815  16.775   0.314  12.245  0.0762 -0.1642 -0.3097
32685W        W47816   3.085  12.135  12.723  0.2678 -0.1748  0.1528
32686W        W47817   1.512   7.995  12.392  0.3166  0.2361 -0.2555
32687W        W47818   1.885   1.980  16.176 -0.1202  0.0703 -0.1303
32688W        W47819  16.156   1.863  11.317  0.1691  0.2126 -0.0573
32689W        W47820   4.194   7.008  12.148 -0.1914  0.0520 -0.1450
32690W        W47821  14.851   0.184   1.333  0.1002 -0.2546 -0.0594
32691W        W47822   1.536   4.998   0.742 -0.1505 -0.1568  0.2737
32692W        W47823   8.711  16.282  12.155  0.1891  0.1430 -0.0748
32693W        W47824  15.017   2.128  13.021  0.0468 -0.0225  0.0431
32694W        W47825  15.106   9.362   6.258  0.1113  0.3177 -0.1863
32695W        W47826   3.933  13.421  13.118 -0.0202  0.0806  0.0578
32696W        W47827   4.681  12.517   4.738  0.3051 -0.0729  0.0395
32697W        W47828  15.713  13.145  15.264  0.1238 -0.2504 -0.0536
32698W        W47829  10.164   6.049   5.141  0.2747  0.0811 -0.4089
32699W        W47830  13.017  15.824  12.869 -0.0219 -0.1054 -0.2238
32700W        W47831   7.419   2.901  15.528 -0.1887  0.0236 -0.1616
32701W        W47832  11.834   9.939   5.380  0.0306 -0.0561  0.1818
32702W        W47833   9.019   5.163  12.596  0.1572  0.1116 -0.2282
32703W        W47834   6.815   9.952   4.083  0.0164  0.1609 -0.1824
32704W        W47835   2.879   0.817   2.571 -0.1710 -0.1848  0.0539
32705W        W47836   1.500   1.270   4.043  0.2802  0.0559  0.0800
32706W        W47837   6.439  11.843   3.792 -0.0650  0.0500 -0.0835
32707W        W47838   9.827   9.518  11.833  0.0382  0.0526  0.1070
32708W        W47839   3.186  13.765   5.000 -0.0558 -0.0893  0.1418
32709W        W47840   6.663   5.422   1.900  0.0168  0.0081  0.1658
32710W        W47841   8.510   2.814   3.830  0.0565 -0.0913 -0.0420
32711W        W47842  14.068   9.399   2.353  0.4526  0.1189 -0.0714
32712W        W47843   0.725   9.002   3.224  0.0827  0.3208 -0.2381
32713W        W47844   2.394  13.280   3.878  0.0683  0.2034 -0.1252
32714W        W47845   1.317  14.672   4.140 -0.0573 -0.0224  0.2496
32715W        W47846  12.374   3.502  13.320  0.1371  0.1732  0.1337
32716W        W47847   3.155  14.262  13.768 -0.0357 -0.2998  0.0671
32717W        W47848  16.924   1.892  16.410  0.0157  0.0047 -0.1255
32718W        W47849  16.771   3.620  11.606  0.2101 -0.0895  0.1346
32719W        W47850  14.128  13.168  13.121  0.0330  0.0889 -0.0936
32720W        W47851   1.821   0.638   5.668  0.1167  0.0905 -0.1545
32721W        W47852   6.014   7.141  13.580  0.2229  0.3050 -0.0030
32722W        W47853   4.758  15.182  15.423  0.0423 -0.0110  0.0006
32723W        W47854   4.206   6.269   4.087  0.2440 -0.1966  0.1487
32724W        W47855   6.904  11.691  11.767  0.0676  0.0390 -0.1829
32725W        W47856  15.149  11.018  15.604  0.0533  0.2222 -0.2177
32726W        W47857  10.877  12.456   0.191 -0.0770 -0.2346 -0.0673
32727W        W47858  11.501   3.856   3.355  0.1172  0.0487  0.1956
32728W        W47859   6.603   8.180   1.668 -0.3416 -0.0552  0.4643
32729W        W47860   3.297  12.033   3.101 -0.3007 -0.0742  0.1625
32730W        W47861  14.846   6.390  15.127  0.3472 -0.1227  0.2610
32731W        W47862   9.817   1.969   4.873  0.0784 -0.1370  0.2108
32732W        W47863   0.963  16.375  13.241  0.1110 -0.2169  0.0173
32733W        W47864  12.263   3.192   0.147  0.1368 -0.1031  0.0750
32734W        W47865   6.159   6.297  14.409  0.2027  0.2642 -0.0900
32735W        W47866  15.347  13.355  14.103 -0.0048 -0.0795  0.4353
32736W        W47867   4.322  17.540   2.564 -0.1575 -0.2933 -0.1052
32737W        W47868   2.048  15.256   2.904  0.1392  0.0965  0.0965
32738W        W47869   8.603  17.556  15.690 -0.1515  0.0556 -0.0049
32739W        W47870   5.673  11.532  15.734  0.0945  0.2842  0.0898
32740W        W47871  10.213   1.100   3.805  0.1003 -0.2361 -0.0089
32741W        W47872  14.528  13.950   0.751  0.0526  0.2182 -0.1923
32742W        W47873  15.349  16.898   2.109 -0.0884  0.1568  0.0453
32743W        W47874   4.561  16.257   5.769 -0.0536 -0.3815  0.0792
32744W        W47875  15.692   1.382  12.858 -0.0585 -0.0788  0.1879
32745W        W47876   3.205   1.201  13.329 -0.0609 -0.2649 -0.0007
32746W        W47877  15.375   3.855   1.030  0.0394  0.0787 -0.1273
32747W        W47878   1.258   8.130  16.347 -0.0893  0.1488 -0.0891
32748W        W47879   9.617   0.315  13.487 -0.0090 -0.3032 -0.0522
32749W        W47880   6.743   2.852  15.381 -0.1729 -0.0913  0.0081
32750W        W47881   5.686  10.838  12.278 -0.2980 -0.1566  0.1386
32751W        W47882   9.519   1.432  14.157 -0.1870 -0.1363 -0.2379
32752W        W47883  16.795   1.687   3.138  0.1052  0.2718  0.1521
32753W        W47884   4.652  12.006   5.123 -0.1784 -0.3017  0.1201
32754W        W47885  16.392  15.366  12.581 -0.2042  0.0403 -0.0097
32755W        W47886   9.003  12.582   3.833  0.1494 -0.1257 -0.3476
32756W        W47887  12.027   8.556  15.318 -0.0516 -0.1396  0.2245
32757W        W47888   8.808  14.022   2.121 -0.0850  0.2907  0.1022
32758W        W47889  13.749  16.237  12.086  0.1107 -0.0729 -0.1690
32759W        W47890   3.353   7.617  15.708  0.0311 -0.1674 -0.1007
32760W        W47891  12.391   1.242  15.898  0.1965 -0.1073  0.0392
32761W        W47892  12.680  13.355  15.362 -0.1963  0.0032  0.0852
32762W        W47893  13.246  16.342   5.600 -0.0356  0.0972 -0.3030
32763W        W47894  11.181  17.594   2.501 -0.1133  0.0180  0.0712
32764W        W47895  14.084  16.685  12.246  0.1994  0.0079  0.0907
32765W        W47896  10.796   4.763  12.575 -0.0550  0.2745  0.1634
32766W        W47897   6.144   9.594   2.774  0.3147 -0.1304 -0.1820
32767W        W47898   1.931   5.725  14.851  0.1486  0.0746 -0.0119
32768W        W47899   4.414  15.503   5.206  0.1882  0.2607  0.1880
32769W        W47900   3.859   6.126   3.281 -0.5924 -0.1039  0.1998
32770W        W47901   9.102  11.737  16.652 -0.0846 -0.2695  0.0352
32771W        W47902   4.027  13.421   4.293 -0.2423 -0.4184 -0.2116
32772W        W47903   4.346   4.369   2.381  0.0840  0.1059 -0.1627
32773W        W47904   0.525  14.549   4.815  0.0570  0.1328  0.0722
32774W        W47905  16.743  12.470   1.150  0.1177 -0.3128  0.0237
32775W        W47906  11.956   5.381   4.832  0.0894 -0.2146 -0.1880
32776W        W47907  11.659  13.568  14.083  0.0671  0.1624 -0.0765
32777W        W47908   6.475  12.795   2.120 -0.0539 -0.1049  0.1101
32778W        W47909   0.325  11.610   3.535 -0.3364  0.2097 -0.0361
32779W        W47910  12.879   1.127   4.361  0.1295  0.0542  0.0465
32780W        W47911  12.496   2.671  13.942 -0.0301 -0.3838 -0.1835
32781W        W47912   6.637   6.410   4.223 -0.1852 -0.2050  0.1945
32782W        W47913  12.505   1.765   2.024  0.1030 -0.4112 -0.2057
32783W        W47914   4.912  14.395  12.078  0.3683 -0.2040  0.1025
32784W        W47915  10.819   5.227  13.689  0.2446 -0.3223 -0.1717
32785W        W47916   9.576   8.252   1.894  0.0159  0.2063 -0.1143
32786W        W47917  15.002   8.006   0.035 -0.0770  0.0494 -0.0882
32787W        W47918   2.000   8.036  15.933  0.0254 -0.2508  0.0657
32788W        W47919  17.546  11.514   5.102 -0.0652  0.0673  0.0593
32789W        W47920   6.970  13.922   0.080  0.1639  0.0371 -0.2098
32790W        W47921  16.597   1.916  15.640  0.1939  0.0783  0.3014
32791W        W47922   2.276  11.072   3.799  0.0069  0.2109  0.0777
32792W        W47923  15.569   6.067  13.681 -0.1966 -0.0655 -0.0640
32793W        W47924   9.146  16.643   1.604  0.0901  0.0034  0.2450
32794W        W47925  15.966  15.100   2.186  0.1003  0.0171  0.0313
32795W        W47926   6.418   1.890   4.888 -0.0975  0.3496  0.1156
32796W        W47927   4.785   3.525  13.044 -0.1156 -0.2607 -0.2155
32797W        W47928   0.121  14.662   2.236  0.2370  0.2059 -0.3381
32798W        W47929  16.657   1.774   2.686 -0.1043  0.1613  0.2870
32799W        W47930  16.514  10.129   3.578  0.2470  0.2384  0.1876
32800W        W47931  10.982   1.872   3.854 -0.0071  0.5428  0.1827
32801W        W47932  17.570  11.518   1.082 -0.0524  0.1677  0.1540
32802W        W47933  16.064   9.715  14.303  0.1930  0.0261  0.0764
32803W        W47934  16.680  13.538   5.378  0.0389 -0.0203  0.3446
32804W        W47935  17.211  10.896  14.242 -0.1725  0.1546  0.2165
32805W        W47936   1.396   9.044   1.698 -0.2187 -0.0180  0.0169
32806W        W47937   3.197  12.879   2.192 -0.0364  0.0192  0.0106
32807W        W47938   6.095   4.264   2.586 -0.0800  0.0747  0.0637
32808W        W47939   6.003   6.660   0.984 -0.0706  0.0370  0.0042
32809W        W47940  15.150  10.720   0.857  0.1863  0.1879 -0.0268
32810W        W47941   9.766   1.386  13.659  0.2076 -0.1428 -0.2508
32811W        W47942  14.834   0.604   2.268 -0.0017  0.0534 -0.2999
32812W        W47943   2.898   6.201   0.691  0.0090  0.0109  0.2092
32813W        W47944   4.112   9.400   2.663  0.0770 -0.1973 -0.0528
32814W        W47945   3.641  11.064   6.070  0.0402 -0.1329 -0.2078
32815W        W47946   3.126  14.603   6.316 -0.2315 -0.1079 -0.0010
32816W        W47947   8.147  16.533   0.137 -0.1579 -0.0422  0.0521
32817W        W47948  15.819   5.733  15.051 -0.0553  0.1501 -0.1111
32818W        W47949   7.625   5.659  10.761 -0.2402  0.1653  0.0258
32819W        W47950  12.046   7.782  16.895  0.0970  0.2929 -0.0481
32820W        W47951  14.372   3.554   0.323 -0.1325  0.0054 -0.3621
32821W        W47952   7.508   3.937   2.242  0.2921 -0.1250 -0.0266
32822W        W47953  11.784  14.740   2.865  0.1064  0.0166 -0.3196
32823W        W47954  11.392  13.464  15.281  0.2931  0.2092 -0.0301
32824W        W47955  16.423   2.565   5.307 -0.0166  0.2041 -0.1321
32825W        W47956  15.037   2.725  15.661  0.1269 -0.0784 -0.3841
32826W        W47957   6.067   2.818  11.363  0.1478 -0.1359 -0.1961
32827W        W47958  15.083   6.173   1.499  0.1547 -0.1477 -0.0775
32828W        W47959   9.833   5.163  13.414  0.3938  0.1557 -0.1062
32829W        W47960  17.199   7.836   6.069  0.2757 -0.3968  0.2401
32830W        W47961   5.218  13.984  15.519 -0.2892 -0.1544 -0.0674
32831W        W47962   1.755   8.079   4.106 -0.2478 -0.1076 -0.0080
32832W        W47963  17.126   5.353  13.113 -0.1826  0.1090  0.2045
32833W        W47964   9.364   8.735  11.748 -0.1555 -0.3335 -0.0389
32834W        W47965   9.215  14.473   5.139  0.4144 -0.3259 -0.0444
32835W        W47966   9.800   2.935  11.344  0.1622  0.0232  0.0097
32836W        W47967   1.818   0.870   6.564 -0.0483  0.0435 -0.3595
32837W        W47968  15.129   5.365  13.324  0.1370 -0.0852  0.1852
32838W        W47969   0.413   3.139  16.303 -0.0210  0.0086 -0.1479
32839W        W47970   6.640   9.541  12.699 -0.0259 -0.2014 -0.0290
32840W        W47971   2.537   6.140   5.141 -0.0022  0.0451 -0.3346
32841W        W47972  15.648  11.793  16.316 -0.1471  0.3828 -0.0067
32842W        W47973   8.254   3.105   5.071 -0.4594 -0.2127  0.0108
32843W        W47974  17.172  17.196   5.664 -0.1169 -0.0533 -0.0996
32844W        W47975  12.923  10.468   5.896  0.2012  0.1071  0.0861
32845W        W47976  13.240   1.658   2.499 -0.1132  0.0913  0.1831
32846W        W47977  10.067   0.037   2.445 -0.0716  0.0287 -0.1189
32847W        W47978   8.840   0.236  11.964  0.0234 -0.0536  0.1186
32848W        W47979  13.131  13.717   6.126 -0.0791  0.0015 -0.0638
32849W        W47980   0.383   5.883   0.322 -0.1620 -0.0985  0.0374
32850W        W47981   7.559   7.529   4.017 -0.2171 -0.1674 -0.0537
32851W        W47982  16.417   3.060  15.077  0.0102 -0.3763 -0.0862
32852W        W47983   9.649  13.017  15.819 -0.1910  0.2871 -0.1386
32853W        W47984   5.106   8.661  11.515  0.2931  0.1748 -0.0836
32854W        W47985   2.601   1.367  15.141  0.0127 -0.0943  0.0380
32855W        W47986   4.323  15.031   0.025  0.0429  0.1924  0.1306
32856W        W47987   1.532  13.527   0.491  0.3001 -0.1939 -0.0683
32857W        W47988  17.671   2.897   1.181  0.2275  0.3215  0.2221
32858W        W47989   3.514  15.960  13.987  0.0908  0.2717 -0.1483
32859W        W47990  17.161   2.924   2.151 -0.0144 -0.1290 -0.1341
32860W        W47991  11.337  15.522   3.029  0.2050  0.0665  0.0127
32861W        W47992   0.326   8.183   0.865  0.1780 -0.2009 -0.4468
32862W        W47993  15.047  11.003  11.353 -0.1570  0.0833 -0.0487
32863W        W47994   5.387  14.222   5.481  0.1110 -0.4656 -0.0374
32864W        W47995   5.701   1.897  14.510 -0.0952  0.0003 -0.2682
32865W        W47996   0.816  12.039  12.641 -0.3614 -0.3767  0.0148
32866W        W47997  10.962  10.870   4.061  0.1749  0.0236  0.2334
32867W        W47998   0.983   2.541   2.948 -0.1449  0.0104  0.0333
32868W        W47999  10.822  14.315  15.223  0.0849  0.2561  0.2816
32869W        W48000  11.041   4.040  14.415 -0.2374 -0.0602  0.0078
32870W        W48001   2.224   8.365   1.804  0.0741  0.1583 -0.0733
32871W        W48002   3.415   8.783  12.972  0.0616 -0.0523  0.2122
32872W        W48003   4.083  16.044   0.649  0.1320  0.0911 -0.3819
32873W        W48004   4.318   7.316   3.764  0.1084  0.2476 -0.0104
32874W        W48005   3.471  14.610  13.860 -0.0853 -0.3203  0.0366
32875W        W48006   4.112   4.249   2.867  0.0737 -0.0862  0.0745
32876W        W48007  11.521   1.852   3.678  0.1120 -0.0927  0.1727
32877W        W48008   0.613   9.564   2.392 -0.0677 -0.1345  0.5038
32878W        W48009   2.332  16.547  12.068 -0.1721  0.0427 -0.0750
32879W        W48010  16.141   6.769   0.184 -0.1511 -0.1606  0.0452
32880W        W48011   5.730   5.010   1.764 -0.2131  0.0149 -0.1656
32881W        W48012   8.872   4.643   0.969  0.2383  0.0198  0.3029
32882W        W48013  10.660  16.370   5.039 -0.0720  0.2043 -0.1776
32883W        W48014   6.557  15.206   2.305 -0.2250  0.3492 -0.0582
32884W        W48015   5.361  16.426  12.816  0.1111  0.0278  0.0063
32885W        W48016  10.042  11.769   4.918 -0.2832 -0.3523 -0.2090
32886W        W48017  16.456  14.031  13.328 -0.1830  0.1518 -0.2146
32887W        W48018   4.179   2.531   2.325 -0.0386 -0.0907  0.0040
32888W        W48019  12.852   1.270  14.765  0.2624  0.2640 -0.0728
32889W        W48020   6.191  11.771   6.143 -0.0327  0.0196 -0.2338
32890W        W48021   5.858   8.880  14.214  0.0097  0.0775  0.0866
32891W        W48022   2.942  12.535  11.543  0.4095  0.1874 -0.1687
32892W        W48023  17.009  17.504  14.347  0.3530  0.1000  0.1879
32893W        W48024   3.131  12.440  14.097 -0.0238  0.1569 -0.0173
32894W        W48025   0.744   8.326   5.471  0.1259  0.3896 -0.1434
32895W        W48026  15.475   1.854   2.043 -0.2355 -0.1353 -0.1609
32896W        W48027  16.261  11.462  12.940 -0.1165  0.0526  0.0973
32897W        W48028  10.368  10.669  13.441 -0.0203  0.4402  0.0089
32898W        W48029  10.159   2.289  14.807  0.0640 -0.0879 -0.1103
32899W        W48030  17.406  17.631   4.196 -0.0429 -0.1747  0.0473
32900W        W48031   0.019  16.503  13.462 -0.1641 -0.0935  0.2445
32901W        W48032   5.233  15.969  14.337 -0.0953 -0.3365  0.3439
32902W        W48033   1.635   8.228   4.689  0.2177 -0.0458 -0.0425
32903W        W48034  14.619   4.185  13.547 -0.1093  0.1153 -0.1686
32904W        W48035  17.388   0.919  15.966 -0.2038  0.1951 -0.2448
32905W        W48036  15.678  17.616   6.057  0.2590 -0.1614 -0.3000
32906W        W48037   4.645   6.463   3.665 -0.0282 -0.1921  0.2489
32907W        W48038   1.000  10.705   1.735  0.0779  0.0156 -0.0207
32908W        W48039  13.950  10.173  13.695  0.0619 -0.0734  0.1955
32909W        W48040   7.480   9.683  11.232 -0.1458 -0.4424  0.2687
32910W        W48041   5.991   7.673  13.430 -0.1621  0.3736  0.1574
32911W        W48042   5.972  13.561   0.821 -0.0018  0.1983  0.0351
32912W        W48043   8.261  14.205  15.739  0.4213  0.2564  0.0030
32913W        W48044  10.077   0.628  13.810 -0.0597  0.0248 -0.0295
32914W        W48045   1.931   8.952  10.468 -0.1646  0.0364  0.1746
32915W        W48046  16.356  14.139  13.797  0.1669 -0.0539  0.0706
32916W        W48047   2.725   7.715   0.101 -0.4462 -0.1378  0.1184
32917W        W48048   4.775   7.127  16.338  0.3286 -0.1504  0.1191
32918W        W48049  13.532   2.923  16.678 -0.0441  0.1835  0.2232
32919W        W48050  15.143   9.304  12.236 -0.1235  0.3164  0.0747
32920W        W48051   4.158   3.197  11.417 -0.2892 -0.2868  0.1601
32921W        W48052  14.296  16.235  15.455  0.2245  0.0032 -0.1437
32922W        W48053   0.971   3.584  12.336  0.3273 -0.1532  0.2473
32923W        W48054   0.349   3.495   1.205 -0.0820 -0.1411 -0.0616
32924W        W48055  14.554  11.636   1.417 -0.0549  0.0343 -0.1576
32925W        W48056  12.461   9.553   4.810 -0.0606 -0.0205 -0.1193
32926W        W48057   6.967   0.101  14.576  0.0651  0.4041 -0.0734
32927W        W48058   6.939  16.971   1.603  0.0252  0.0865  0.1177
32928W        W48059   1.277   0.190   3.142  0.1256 -0.2447  0.0245
32929W        W48060   2.362  17.365  15.754  0.1948 -0.0116  0.0589
32930W        W48061   6.347  15.181  15.898 -0.1297 -0.0521  0.0272
32931W        W48062   3.303   2.999  11.552  0.3000 -0.0860 -0.0562
32932W        W48063   3.870   4.801   0.877  0.0360  0.2729  0.0086
32933W        W48064   7.157   2.389  13.204  0.3176  0.1535 -0.0881
32934W        W48065  13.117   6.346  12.747  0.0728 -0.1636 -0.0314
32935W        W48066   7.025  12.193   2.065 -0.0203  0.0549 -0.1328
32936W        W48067   3.865  13.033  15.638  0.0822 -0.1500  0.1133
32937W        W48068   3.263  12.488   3.902 -0.3269  0.0812  0.0716
32938W        W48069  16.213   1.110   4.421 -0.2261 -0.1007 -0.0277
32939W        W48070   6.137  10.240   4.261 -0.2457 -0.0293  0.1414
32940W        W48071   3.622  10.332  13.664  0.1391 -0.0234 -0.0446
32941W        W48072  10.305   4.556   1.756  0.0982  0.0570 -0.1045
32942W        W48073  11.610   4.298   5.030 -0.2073 -0.0402 -0.4146
32943W        W48074   0.568   9.549   0.405  0.1871 -0.1625 -0.0065
32944W        W48075   0.270  17.260   3.275 -0.1322  0.2080 -0.1277
32945W        W48076  16.027  13.100  16.881  0.2825  0.1747  0.0809
32946W        W48077  13.128   5.572   0.611 -0.2323  0.2407 -0.1542
32947W        W48078   9.369  14.663  11.825  0.1271  0.1172 -0.0567
32948W        W48079   6.402  13.099   3.281  0.2807 -0.2113  0.1414
32949W        W48080   7.229  10.061  16.291 -0.1151  0.1365  0.0669
32950W        W48081   2.122   7.041   1.496 -0.0136 -0.0418 -0.2856
32951W        W48082   7.410   3.973   5.181 -0.1041  0.1933  0.1275
32952W        W48083   3.958   4.803   0.391 -0.1410  0.2943 -0.0537
32953W        W48084   7.315  13.159   4.984  0.0207 -0.1240  0.2150
32954W        W48085   3.201  16.035   4.785  0.3294 -0.1336 -0.1114
32955W        W48086  16.224   4.549   1.122 -0.2711 -0.1571  0.1190
32956W        W48087  12.127   8.552   1.023 -0.1188  0.0251  0.1190
32957W        W48088   7.963  12.217  14.798 -0.2948  0.0609  0.0905
32958W        W48089   5.608   8.526   4.363 -0.1355 -0.2311 -0.0840
32959W        W48090  13.834   6.315   1.669 -0.1426 -0.0989 -0.0792
32960W        W48091   4.173  12.132   2.711 -0.0852  0.1154 -0.1596
32961W        W48092  14.113  10.083   4.015 -0.1584 -0.0451 -0.0420
32962W        W48093   5.706   7.640  16.713  0.0109  0.1624 -0.0384
32963W        W48094   9.315  10.023  16.554 -0.0710 -0.1242  0.2089
32964W        W48095  15.594   6.253   0.742 -0.0796 -0.0015 -0.0970
32965W        W48096   1.228  10.397  14.010  0.2691  0.2026 -0.0677
32966W        W48097  11.742  12.920   1.198  0.1360 -0.3266  0.3366
32967W        W48098   2.584   6.826  12.606  0.1548 -0.0700  0.1364
32968W        W48099   9.080   7.891   4.770 -0.2469  0.2138  0.1850
32969W        W48100  12.813   9.688  10.927  0.2381  0.0974 -0.4859
32970W        W48101   3.854   5.830  13.568  0.3120  0.1239  0.0800
32971W        W48102  16.220  10.516   4.540  0.1017  0.2478  0.0594
32972W        W48103   3.167   6.375  15.410  0.2925 -0.2975 -0.0420
32973W        W48104  12.559  15.737   1.459 -0.1784  0.2739  0.1918
32974W        W48105   4.087  13.651   3.823  0.0841 -0.0458 -0.1247
32975W        W48106   0.131   9.135   0.926  0.1834  0.0304  0.0766
32976W        W48107   7.274   9.205  12.117 -0.0352  0.0132 -0.1850
32977W        W48108   1.357  12.214  15.519 -0.1107 -0.2870 -0.0773
32978W        W48109   1.301  13.029  15.469 -0.0439 -0.1397  0.1650
32979W        W48110  10.833   4.916  14.570  0.0772 -0.0860 -0.2043
32980W        W48111   6.954   5.111  16.171 -0.0700 -0.1452  0.0582
32981W        W48112   2.004   4.100  10.240  0.1333 -0.0290  0.2982
32982W        W48113   3.453   7.523   0.609 -0.1769  0.3156  0.4190
32983W        W48114   2.024   1.466  11.475  0.1834  0.0949 -0.0305
32984W        W48115  12.612   5.448  16.727 -0.2436  0.0257 -0.0757
32985W        W48116   0.224   5.866   1.789 -0.1891 -0.1626  0.0988
32986W        W48117   8.235   5.071  11.558  0.3404  0.0749 -0.0924
32987W        W48118   5.125  15.557   1.985  0.4814 -0.0005 -0.1671
32988W        W48119  12.107   5.995   3.857 -0.1923 -0.3143  0.1863
32989W        W48120  13.535   1.550   1.953  0.1468  0.1766  0.0300
32990W        W48121  16.146   6.901   0.909  0.1179  0.2145 -0.1879
32991W        W48122   6.912   2.312   0.990  0.2768  0.1173  0.1484
32992W        W48123   4.702  15.389   3.146 -0.0609  0.2661 -0.2821
32993W        W48124  15.204  17.313   4.697 -0.3279  0.1291 -0.2360
32994W        W48125  16.738   1.933   0.893 -0.0293 -0.0416  0.0705
32995W        W48126  15.315   2.254  15.446 -0.2178 -0.1801 -0.1543
32996W        W48127   7.766  14.751  12.537 -0.0258  0.1707 -0.0653
32997W        W48128   4.084  11.593   1.444  0.1160 -0.1280 -0.0490
32998W        W48129   7.070   4.237  12.865  0.0991 -0.0875  0.0411
32999W        W48130   3.195   6.886  11.488 -0.0686 -0.1730  0.3623
33000W        W48131  10.291   9.446  16.017  0.1888  0.1382 -0.0310
33001W        W48132   4.796   4.086   2.292  0.0006  0.1202 -0.0792
33002W        W48133  10.793   4.258  13.301 -0.4503  0.0007  0.0735
33003W        W48134  10.010   3.870   2.386 -0.0551  0.3043 -0.2961
33004W        W48135  16.266   8.838   5.603  0.0822  0.1132 -0.2613
33005W        W48136  12.061  16.250  13.313 -0.0495 -0.1134 -0.2267
33006W        W48137  10.158   8.889   0.938 -0.0862  0.0062  0.0333
33007W        W48138  16.960  16.677   4.970 -0.0626 -0.1842 -0.1540
33008W        W48139   3.019  16.722   4.077  0.0342  0.0421  0.1098
33009W        W48140   0.466  16.455   5.709  0.2158  0.1750  0.0144
33010W        W48141   6.027   4.055  14.806 -0.2606  0.2244  0.4649
33011W        W48142   7.586  15.661   4.878 -0.4435 -0.1830  0.3679
33012W        W48143  10.122   5.706   2.093  0.1351  0.0399 -0.0738
33013W        W48144   9.956  14.290   2.786  0.0058  0.0042 -0.1165
33014W        W48145   8.937  14.639  11.557 -0.0607 -0.1092 -0.1017
33015W        W48146   7.943   3.741   2.319 -0.2677  0.1611 -0.1242
33016W        W48147   2.499  17.297  12.624 -0.2874 -0.1519 -0.1055
33017W        W48148   5.753  15.202  15.139  0.0546 -0.2332  0.5252
33018W        W48149   4.152   7.730  12.334  0.1975  0.1118 -0.2595
33019W        W48150   1.296   6.181   0.787 -0.0600  0.1988 -0.2104
33020W        W48151  10.702   3.982   2.457  0.0602 -0.1734 -0.0753
33021W        W48152   2.658  13.842   5.459  0.1636 -0.0812 -0.2315
33022W        W48153   7.663   2.112   0.417 -0.1803  0.1192 -0.3080
33023W        W48154  13.263   4.756   3.915 -0.1729 -0.0321 -0.0822
33024W        W48155  17.433  16.786  12.208  0.0941  0.2178 -0.1965
33025W        W48156   7.371   0.294  14.777  0.1407 -0.1922 -0.0566
33026W        W48157  12.268  12.887   3.392  0.0854  0.0251  0.1019
33027W        W48158  15.107  11.150  16.136  0.0868  0.0647  0.2194
33028W        W48159   1.568   1.066  14.427  0.0628  0.0602 -0.0468
33029W        W48160   4.814  14.410   3.428  0.3316  0.1354 -0.3403
33030W        W48161   3.661  13.634  16.538  0.1092  0.0135  0.0970
33031W        W48162   2.572   3.649   1.403  0.0832 -0.1503  0.2409
33032W        W48163  17.303   3.494  11.650 -0.1579  0.0586  0.2982
33033W        W48164  17.515   4.215   1.697  0.1434  0.3551  0.3216
33034W        W48165  11.997   1.521   2.025  0.0820 -0.0368  0.2414
33035W        W48166   8.704  10.541   1.143 -0.1051  0.0831  0.0529
33036W        W48167   5.367  12.430   1.552  0.0208  0.3802 -0.1729
33037W        W48168   3.445   7.924   2.552  0.3681 -0.0189  0.0086
33038W        W48169  14.232  16.609  13.234  0.1325 -0.1203  0.0017
33039W        W48170   6.495  16.999   1.874 -0.1898  0.1433 -0.0980
33040W        W48171  12.624   6.995   2.893  0.0803  0.0349  0.2345
33041W        W48172  16.044  15.622  12.851 -0.2746 -0.2017 -0.1039
33042W        W48173  15.561   2.489   1.154  0.0735  0.1202  0.1764
33043W        W48174  16.800   8.746  12.457 -0.0515  0.0550 -0.0831
33044W        W48175  16.265  10.573  14.256 -0.2766 -0.0068 -0.1769
33045W        W48176  16.397  14.134   1.382 -0.0427  0.0046  0.4388
33046W        W48177   0.235   0.710  14.187 -0.3150  0.2661 -0.0023
33047W        W48178   7.388  14.579   5.274 -0.0569 -0.1353 -0.1759
33048W        W48179   1.534   6.080   1.626  0.0895  0.0314 -0.1147
33049W        W48180  10.201  15.530   5.375  0.0979 -0.3664  0.0767
33050W        W48181  10.530  17.637   0.375  0.1700  0.2361  0.4224
33051W        W48182  10.434   7.709   5.289  0.0670  0.2226 -0.1273
33052W        W48183   0.920   2.563   0.512  0.1226 -0.0173 -0.0384
33053W        W48184   7.521   6.213  10.963  0.3257  0.3692  0.2069
33054W        W48185   0.712  14.442   5.938  0.2325  0.2723  0.3799
33055W        W48186   4.248  14.837  11.255  0.1197  0.0164 -0.3582
33056W        W48187   2.166   3.362  14.689  0.1169  0.0130  0.1108
33057W        W48188   7.311   5.255  16.520  0.3486 -0.2027 -0.2543
33058W        W48189  16.679  17.053   1.255 -0.0801  0.2476 -0.3280
33059W        W48190  17.361   6.248   0.499  0.0382  0.1334  0.2392
33060W        W48191   6.804   4.985   2.749 -0.1543  0.2953  0.1112
33061W        W48192  10.056   2.657  16.057  0.1748 -0.2181  0.1515
33062W        W48193  10.813   0.525   5.764  0.0794 -0.0064  0.2388
33063W        W48194   8.877  17.581   1.172  0.1793  0.1381  0.1878
33064W        W48195  13.607   8.401   5.474  0.0224  0.2892  0.0839
33065W        W48196  10.428   2.791  12.521  0.1103 -0.0516  0.0642
33066W        W48197  17.496   6.144   3.915 -0.1589 -0.0770 -0.0437
33067W        W48198  12.051   0.512  13.942  0.2943  0.1075  0.1049
33068W        W48199  17.171   5.546   1.247 -0.0690 -0.1538  0.1048
33069W        W48200   5.511   6.356  12.786 -0.1781  0.0513 -0.0779
33070W        W48201  14.722  16.597   5.867  0.1151 -0.0572 -0.3253
33071W        W48202  17.245  16.389   4.628 -0.0412  0.1509  0.2083
33072W        W48203   5.872   3.143   2.308  0.0266  0.2167  0.1561
33073W        W48204  10.526   7.040  14.732 -0.0195  0.1744  0.0453
33074W        W48205   4.810   9.597   3.148  0.1513  0.0620 -0.1120
33075W        W48206  17.478  13.854   3.229  0.2546 -0.3804 -0.2076
33076W        W48207  10.345   9.739  14.513  0.1590 -0.0658  0.2400
33077W        W48208   3.503   9.777   3.366 -0.0576  0.2482  0.1598
33078W        W48209   9.252   6.880  15.485 -0.4059 -0.2541 -0.0041
33079W        W48210  13.260  12.377   1.615  0.2457  0.1420 -0.0716
33080W        W48211   3.148  14.841  11.565  0.2706 -0.2724  0.1868
33081W        W48212   8.733   9.277   5.824  0.1169 -0.1463  0.1520
33082W        W48213   2.804  10.600   5.888 -0.1131 -0.1106 -0.2981
33083W        W48214   5.225   8.814   5.112  0.2235 -0.0727  0.0352
33084W        W48215  13.808   1.372   0.494  0.3521 -0.0906  0.3461
33085W        W48216   0.926  11.766   3.304  0.2090 -0.4391 -0.0997
33086W        W48217  15.073   5.080   4.144 -0.0467 -0.1574 -0.1413
33087W        W48218   5.251  10.905  15.857 -0.2865  0.3303  0.1517
33088W        W48219   0.215   4.367  13.054  0.1649 -0.0578  0.0109
33089W        W48220  14.139   6.089  14.820 -0.1356 -0.0463 -0.0267
33090W        W48221  10.118  12.652   0.646  0.1032 -0.0444  0.0766
33091W        W48222  15.096   8.556   1.072  0.2318  0.2393 -0.3467
33092W        W48223  13.135  14.619  15.597 -0.2153 -0.4431 -0.0185
33093W        W48224   4.768  14.486   1.624  0.1735 -0.1905  0.0190
33094W        W48225  11.847   1.356  16.039 -0.2817  0.0499  0.1206
33095W        W48226   2.048  11.578   3.197 -0.0137  0.3520  0.1316
33096W        W48227   8.489  14.402   2.315 -0.3603  0.3397  0.0748
33097W        W48228   4.983  16.350   0.420 -0.0323 -0.0574 -0.3802
33098W        W48229   7.511  16.836  13.669  0.4574  0.0058 -0.0563
33099W        W48230   0.599  15.170   2.138  0.2829 -0.0520 -0.0491
33100W        W48231  14.726  17.108   1.476  0.1624  0.1715 -0.1377
33101W        W48232   4.536  14.549   2.648  0.1532  0.0553  0.0135
33102W        W48233  15.668   8.793  16.167  0.2582  0.0195 -0.4065
33103W        W48234   3.914  10.074  12.577  0.2499 -0.2132 -0.0506
33104W        W48235  15.856   6.958   1.857 -0.0703 -0.1698 -0.1010
33105W        W48236   0.583  11.932  12.056  0.0266 -0.0238  0.2566
33106W        W48237   9.180   6.934   4.760  0.0229  0.1658  0.1340
33107W        W48238   5.906   5.742  16.685  0.1502 -0.3226  0.0224
33108W        W48239  15.538   7.909  12.555  0.1036  0.1920  0.2578
33109W        W48240  13.064  17.256  15.174  0.0462 -0.2157  0.0789
33110W        W48241  14.729   2.195   4.714 -0.0631 -0.1809  0.0054
33111W        W48242  10.090   9.718   3.968  0.1569 -0.1418 -0.0635
33112W        W48243  10.293  12.876   4.017  0.1111  0.2928 -0.1128
33113W        W48244  16.555  17.071   2.174  0.1427 -0.1341 -0.3571
33114W        W48245  15.941   9.486   6.020 -0.2009  0.1303  0.0430
33115W        W48246   2.319   1.502  14.465  0.0352  0.1860  0.0321
33116W        W48247  11.973  14.204  12.436  0.2346 -0.2170  0.0228
33117ION     NA48248  11.886  13.761   6.324 -0.0804 -0.2863 -0.0637
33118ION     NA48249  11.036  17.380   1.717 -0.1697  0.5394 -0.0162
33119ION     NA48250   3.929  10.494   3.594 -0.1093  0.0776  0.0428
33120ION     NA48251   8.659   2.310  10.675  0.3243  0.3049 -0.1668
33121ION     NA48252  12.094   2.390  13.940  0.1032  0.2082  0.2762
33122ION     NA48253   4.405   1.454  10.745  0.0637 -0.1006 -0.2470
33123ION     NA48254   3.230   8.973  10.625  0.2063 -0.0559  0.1481
33124ION     NA48255   8.540  17.562   6.573 -0.1207  0.0158 -0.3002
33125ION     NA48256  11.626   4.299   3.614  0.1031  0.0047  0.0324
33126ION     NA48257   3.950  12.743  10.902  0.1388 -0.1960  0.1616
33127ION     NA48258  17.364  10.543  10.574  0.1264 -0.0738 -0.0381
33128ION     NA48259   7.579  13.184  10.921  0.2963 -0.0960  0.1432
33129ION     NA48260   2.180   5.403  10.210  0.0373 -0.0062  0.1261
33130ION     NA48261   7.136   5.893   0.486  0.1846 -0.1175 -0.2110
33131ION     NA48262  14.696   5.749  10.312 -0.4205  0.0232  0.1433
33132ION     NA48263   2.771   7.527  14.931 -0.1411  0.0780 -0.0706
33133ION     NA48264   4.916  13.994  10.966  0.1323 -0.0626 -0.2267
33134ION     NA48265   8.929   4.363   2.434 -0.0885 -0.0889 -0.2675
33135ION     NA48266   6.398   5.059  10.244  0.1445  0.2977  0.1567
33136ION     NA48267  10.010  14.183  14.595 -0.3422 -0.0967 -0.3778
33137ION     NA48268   1.792   0.531  10.605  0.0892  0.0799  0.1736
33138ION     NA48269  16.972   3.074  14.181 -0.3265 -0.0302  0.1721
33139ION     NA48270   2.616   4.300  15.024  0.0790  0.2270  0.0008
33140ION     NA48271   7.458  14.020  11.047 -0.0809 -0.0464 -0.1209
33141ION     NA48272  13.591   4.150  10.298 -0.2155  0.1286  0.3146
33142ION     NA48273   6.295   2.552  15.718 -0.1532 -0.0361 -0.2023
33143ION     NA48274   0.748   3.831  10.116 -0.1641  0.0645  0.3219
33144ION     NA48275   1.845   7.750  10.324  0.2229  0.4725 -0.0408
33145ION     NA48276   1.786   2.147   5.768 -0.0256  0.1018  0.0253
33146ION     NA48277   2.579  17.235  10.866  0.1674 -0.1351  0.1987
33147ION     NA48278  13.538  12.397   1.110 -0.1203 -0.2246  0.0590
33148ION     NA48279  15.956   0.881  16.142  0.0409  0.0718 -0.0478
33149ION     NA48280  12.289   9.703   3.961 -0.2932  0.0086  0.4727
33150ION     NA48281  11.365   1.396  11.029  0.1459  0.0475 -0.3281
33151ION     NA48282  12.881  13.277   2.829 -0.3594 -0.1599  0.1146
33152ION     NA48283   7.914   9.281  10.597 -0.0834  0.0566  0.2868
33153ION     NA48284   9.446  13.421   5.831  0.1809  0.0395 -0.0940
33154ION     NA48285   3.645   5.263  10.234 -0.0139 -0.3846  0.0995
33155ION     NA48286  10.600  15.637  11.678  0.2040 -0.4005  0.1564
33156ION     NA48287  14.739   0.186  10.988 -0.0268  0.3016 -0.1409
33157ION     NA48288   2.298   5.740   3.272  0.0831  0.3530  0.0464
33158ION     NA48289   6.613   2.002  10.710 -0.2806 -0.0237  0.2592
33159ION     NA48290   7.450   3.947  10.994  0.0315  0.1090 -0.1429
33160ION     NA48291  13.321  13.540  10.650 -0.2162  0.1556 -0.1318
33161ION     NA48292   6.555   0.646   6.631 -0.0087 -0.1623 -0.3248
33162ION     NA48293   6.783  15.938  11.109 -0.3370 -0.0192  0.0549
33163ION     NA48294  10.790   7.079   5.962  0.0490  0.2894 -0.1877
33164ION     NA48295   4.689   1.258  15.387 -0.0827 -0.3664  0.1103
33165ION     NA48296  15.229   2.466  10.330  0.2042  0.3736 -0.2612
33166ION     NA48297   8.354  12.554  10.632 -0.2886 -0.2095 -0.1620
33167ION     NA48298   1.065  16.821   1.089 -0.1684  0.0898 -0.2968
33168ION     NA48299  11.665   6.038  14.592  0.2035  0.1398  0.2641
33169ION     NA48300  11.346  14.546   6.426 -0.0940 -0.0247  0.0376
33170ION     NA48301  10.105   1.538   4.922  0.1081  0.2188  0.0971
33171ION     NA48302  13.521  13.366  13.943 -0.0495  0.1368 -0.0072
33172ION     NA48303   5.847  10.922   5.975  0.1091 -0.1707 -0.0076
33173ION     NA48304   1.956  12.199  11.087 -0.1032  0.1387 -0.1281
33174ION     NA48305  10.707  12.532   3.212  0.1160  0.2942  0.0048
33175ION     NA48306  15.239   9.837  10.506 -0.0636  0.1080  0.0396
33176ION     NA48307   9.033   8.960   5.590  0.0519 -0.0353  0.1775
33177ION     NA48308   1.193   8.621  10.486  0.0933  0.3484 -0.0130
33178ION     NA48309  11.955   3.268  10.368  0.1339  0.0704 -0.1352
33179ION     NA48310   8.228  11.183   5.300  0.1533  0.2114 -0.0806
33180ION     NA48311   5.972   7.100  10.314  0.2991  0.0276 -0.1894
33181ION     NA48312  11.797   7.187  10.298 -0.1996 -0.0457  0.2063
33182ION     NA48313  11.895   0.928  11.572 -0.0647  0.0219 -0.2299
33183ION     NA48314  16.821   4.916  10.158  0.0753  0.3148  0.1078
33184ION     NA48315   9.948   0.630  13.305 -0.1469 -0.3034  0.0740
33185ION     NA48316  15.769   3.613  10.285  0.0031 -0.6417 -0.0099
33186ION     NA48317   6.659   2.849  10.618 -0.1754 -0.0305  0.1257
33187ION     NA48318   2.971   0.311   5.948  0.1870 -0.0933 -0.2662
33188ION     NA48319  14.721   9.325  13.241 -0.1703  0.1277  0.2078
33189ION     NA48320   5.483   6.822   5.334  0.1153  0.1570 -0.0980
33190ION     NA48321  14.430  14.637   6.702 -0.0931 -0.0669  0.1318
33191ION     NA48322  10.598   0.530   6.663  0.1928  0.4249 -0.0522
33192ION     NA48323   7.307   5.519   1.407  0.2130 -0.1142 -0.1771
33193ION     NA48324   1.051   2.252  16.054 -0.0710  0.0343  0.2164
33194ION     NA48325   9.002   1.333   3.784  0.2519  0.1490  0.0018
33195ION     NA48326   6.860  16.159  15.467 -0.1471 -0.0025 -0.0686
33196ION     NA48327  15.426   1.005  10.613 -0.0924 -0.0486 -0.2390
33197ION     NA48328  17.106  16.804  10.945 -0.1191 -0.1473 -0.0055
33198ION     NA48329  13.797  15.515  14.156 -0.0577 -0.2073 -0.0933
33199ION     NA48330  13.580  13.652   6.376 -0.1590 -0.2111  0.0981
33200ION     NA48331   7.813  15.396   6.767  0.0218 -0.0678 -0.2648
33201ION     NA48332   1.827  16.223  10.710 -0.1631  0.0939  0.0432
33202ION     NA48333   5.951   4.062  10.226  0.1314 -0.0826  0.0088
33203ION     NA48334   2.058  14.712   4.802 -0.0975  0.1694 -0.1701
33204ION     NA48335   2.486   2.409   6.035  0.0459 -0.2927  0.2594
33205ION     NA48336  12.953   9.548  10.376 -0.1244 -0.0478 -0.3549
33206ION     NA48337  11.239  16.317  11.297  0.2445  0.0686  0.0673
33207ION     NA48338  17.328   1.055  10.557  0.0083 -0.0803  0.1934
33208ION     NA48339   2.085  16.036   6.610  0.0491 -0.0472 -0.2568
33209ION     NA48340   5.991   9.727   0.133  0.0451  0.1888  0.1976
33210ION     NA48341   8.911  14.411  10.883  0.1558 -0.4642  0.0608
33211ION     NA48342  13.172   3.379  10.405  0.0245 -0.1006  0.1713
33212ION     NA48343  15.667  12.592   6.412  0.1798 -0.2432 -0.3353
33213ION     NA48344  14.364  11.038   3.906  0.2416 -0.1788  0.0498
33214ION     NA48345  13.010   0.035  11.110  0.0178 -0.0026  0.5547
33215ION     NA48346  17.663  11.208  10.504  0.1096 -0.1574 -0.1042
33216ION     NA48347  12.560  13.625  10.824 -0.1130  0.0818  0.5296
33217ION     NA48348  16.412   3.131  10.516  0.0105  0.3453  0.2637
33218ION     NA48349  10.399  16.280  11.190  0.0393 -0.1788 -0.2810
33219ION     NA48350   3.988   4.035  10.421 -0.0228  0.2729  0.1719
33220ION     NA48351  17.245   1.950  10.467 -0.1823 -0.1859  0.0315
33221ION     NA48352   6.957   8.273   5.916 -0.1262  0.3532 -0.1028
33222ION     NA48353  11.682   0.701   6.389 -0.0835 -0.0172  0.1466
33223ION     NA48354  13.887   0.313  10.734 -0.1903 -0.1274  0.1617
33224ION     NA48355  16.510   8.144   2.546 -0.0731 -0.1966 -0.0504
33225ION     NA48356   2.367   3.902  12.823  0.1014  0.1318 -0.1343
33226ION     NA48357   7.946  16.598   0.697 -0.1654  0.1562  0.0568
33227ION     NA48358  13.268  14.497  10.937 -0.2702  0.0961 -0.1536
33228ION     NA48359  10.951  15.482  14.191  0.2104  0.0680 -0.0281
33229ION     NA48360   5.607  15.530  10.841 -0.2445  0.0977 -0.1949
33230ION     NA48361  12.366   1.001  10.821  0.0016  0.1006 -0.0970
33231ION     NA48362   8.085  10.341  10.866 -0.0387 -0.2828 -0.2751
33232ION     NA48363  12.427  16.861   6.638  0.2368 -0.0025 -0.3606
33233ION     NA48364   2.945   6.583   3.417 -0.1181  0.0368  0.1365
33234ION     NA48365   4.850   5.154  10.323  0.0900  0.0152  0.0409
33235ION     NA48366  14.480  13.733   6.741  0.1286  0.0093 -0.4149
33236ION     NA48367   6.500   1.109  10.855  0.1865 -0.0241  0.2979
33237ION     NA48368  12.176  17.305  13.294 -0.3517 -0.2670  0.0426
33238ION     NA48369  11.551  11.655  10.944  0.0286 -0.2954  0.2059
33239ION     NA48370   1.915  16.977   6.595 -0.0429 -0.0260  0.4297
33240ION     NA48371   5.978   7.568  10.317 -0.0378 -0.1597 -0.1403
33241ION     NA48372   5.573  11.261  10.864  0.0393  0.2579  0.0935
33242ION     NA48373   8.290   3.296   5.937 -0.2278 -0.0341 -0.0564
33243ION     NA48374  11.398  13.475   0.994 -0.1464 -0.1164 -0.3622
33244ION     NA48375  14.849  11.955   6.408 -0.0193  0.2264 -0.2978
33245ION     NA48376  16.390  12.387  13.072 -0.0474 -0.0009  0.0254
33246ION     NA48377   9.753   9.011  10.808 -0.0856  0.1833  0.0397
33247ION     NA48378  14.421   3.429  10.287  0.2779 -0.2910  0.2076
33248ION     NA48379   4.937  16.297   6.432  0.2264 -0.2048  0.2261
33249ION     NA48380  11.589  13.268   3.401 -0.1964 -0.0560 -0.3627
33250ION     NA48381   6.595  12.862   6.181  0.0012 -0.0257 -0.0430
33251ION     NA48382  13.234  10.365  10.387 -0.1328  0.0355 -0.1534
33252ION     NA48383   7.977   5.120  10.333  0.2823 -0.1029 -0.1744
33253ION     NA48384   4.124  10.463   6.417  0.0755  0.1309 -0.2593
33254ION     NA48385   0.183   7.129   5.840 -0.1590 -0.2761  0.2292
33255ION     NA48386   9.282   2.176   1.372 -0.3061  0.2099 -0.3077
33256ION     NA48387   8.151  15.054   6.110 -0.0711 -0.1070 -0.1081
33257ION     NA48388   1.832   9.398  10.653 -0.1668 -0.1144 -0.1432
33258ION     NA48389  16.354   9.057  12.618 -0.0958  0.1244 -0.3470
33259ION     NA48390   3.750   3.155  10.438 -0.1313 -0.1840  0.2402
33260ION     NA48391   3.015  11.251   0.699  0.1317  0.0640  0.0472
33261ION     NA48392   4.981   1.949   3.995 -0.1910  0.1857 -0.1975
33262ION     NA48393  12.624   6.313  10.571 -0.2069 -0.0212 -0.2173
33263ION     NA48394  17.398   3.461   5.835 -0.1666  0.0616 -0.1860
33264ION     NA48395  14.109   6.328  10.523 -0.0632  0.1355 -0.0898
33265ION     NA48396  12.933   9.575   5.548 -0.0925 -0.3801  0.0035
33266ION     NA48397   7.728   6.397  10.493 -0.2467  0.0711 -0.2432
33267ION     NA48398   4.690  12.049   2.828  0.0968  0.1082  0.0003
33268ION     NA48399  10.553   1.504  14.956 -0.0382 -0.1233 -0.2660
33269ION     NA48400   0.328   5.668   9.851 -0.2339 -0.0544 -0.0037
33270ION     NA48401  13.932  15.157   3.589 -0.2248 -0.4567  0.0181
33271ION     NA48402  12.338  14.895   1.128  0.1914 -0.2977 -0.3009
33272ION     NA48403   6.466  13.056  12.252 -0.0415 -0.1098  0.1197
33273ION     NA48404  16.041   4.683  15.674  0.0189  0.1080 -0.0084
33274ION     NA48405   1.536  13.490  10.915  0.0553 -0.0643 -0.0354
33275ION     NA48406   4.762   3.229  10.709  0.1468  0.0160 -0.0201
33276ION     NA48407   7.189   7.975  15.646  0.0749 -0.1452  0.0781
33277ION     NA48408   7.293  17.486  10.846 -0.0852 -0.0180 -0.1829
33278ION     NA48409   9.322  11.664  10.758 -0.0940  0.1789 -0.3556
33279ION     NA48410  15.963  14.181   4.837 -0.1939 -0.4325  0.1624
33280ION     NA48411   9.585  13.705  11.057 -0.2165 -0.1434  0.0558
33281ION     NA48412   8.227   3.474  10.457 -0.0167 -0.3886 -0.3317
33282ION     NA48413   9.052  14.882  11.106  0.1157  0.0129 -0.0079
33283ION     NA48414   7.277   2.043  10.719 -0.0031  0.1771 -0.0042
33284ION     NA48415   5.033   7.347  10.324  0.1697  0.2546  0.0181
33285ION     NA48416   3.482   2.482  11.606  0.1878 -0.2540 -0.1290
33286ION     NA48417  14.837  12.827  11.014 -0.0429  0.0817  0.1236
33287ION     NA48418  14.265   2.492  10.529  0.0027  0.0386  0.0230
33288ION     NA48419   6.066  11.949   4.782 -0.1140  0.2346  0.0532
33289ION     NA48420  14.691  11.643   6.051  0.1918  0.1001  0.3535
33290ION     NA48421   6.008   5.969  10.154 -0.0424  0.2790  0.0950
33291ION     NA48422   3.603   6.266  10.327 -0.0878 -0.0344 -0.2983
33292ION     NA48423   7.058  12.444   4.145 -0.1439  0.3231  0.1822
33293ION     NA48424  13.705  16.458  10.906  0.0298  0.0908 -0.2437
33294ION     NA48425  12.633  15.228  10.913 -0.2141 -0.0559  0.0266
33295ION     NA48426   0.135   9.969   4.622 -0.1917  0.0283 -0.0752
33296ION     NA48427   1.578   2.960   5.837 -0.1798 -0.1784  0.0353
33297ION     NA48428   7.518  11.091  10.829  0.0555  0.0762  0.0149
33298ION     NA48429   0.182  12.160  10.599 -0.0083  0.0658  0.2533
33299ION     NA48430   6.597  14.179  11.015 -0.0064 -0.0540 -0.1209
33300ION     NA48431  11.643  15.358   6.634 -0.0357  0.0069 -0.0406
33301ION     NA48432   9.358   8.060  10.764 -0.2747 -0.0843 -0.1447
33302ION     NA48433  13.279   7.207  10.347  0.2415  0.2511 -0.0960
33303ION     NA48434  15.553  17.241  10.916  0.0822  0.1277  0.0420
33304ION     NA48435   7.238   8.305   4.508  0.2010  0.1000  0.0040
33305ION     NA48436  14.438   9.450   2.918  0.2119 -0.2328 -0.1653
33306ION     NA48437  17.324   6.569  10.304  0.2964 -0.1678  0.1051
33307ION     NA48438  16.252  16.315   6.448 -0.0936 -0.1158  0.3708
33308ION     NA48439  14.533   0.888  10.560 -0.0037  0.2799 -0.0218
33309ION     NA48440   8.697   7.670  10.477 -0.3003 -0.0076 -0.0175
33310ION     NA48441   6.140   8.669   6.261  0.0220 -0.0431  0.1811
33311ION     NA48442  13.667   5.063  12.756  0.4013  0.2837  0.3583
33312ION     NA48443  15.856   1.047  16.620  0.1552  0.0666 -0.0107
33313ION     NA48444  11.691   7.333  13.504  0.2629  0.1682 -0.1488
33314ION     NA48445  14.981  15.004   1.239  0.0388  0.2123  0.0740
33315ION     NA48446  13.338   4.934  10.272  0.0092  0.0413  0.0425
33316ION     NA48447  15.982  13.569  10.775 -0.0907 -0.0950 -0.1053
33317ION     NA48448   0.911   7.896  10.308  0.0433  0.1161  0.0575
33318ION     NA48449   9.928   4.703  14.764 -0.0635 -0.2331 -0.1900
33319ION     NA48450   2.635  16.797   6.509 -0.1172 -0.1785 -0.1139
33320ION     NA48451   6.023   9.348  10.808 -0.0798  0.1084  0.4641
33321ION     NA48452   7.301   1.252  11.071 -0.0697  0.3042 -0.2109
33322ION     NA48453   2.113   2.592   3.893  0.1045 -0.1078  0.1381
33323ION     NA48454   0.758  11.462  10.830 -0.2043  0.3739 -0.0074
33324ION     NA48455   0.279   8.606  10.446  0.0833  0.1016 -0.2083
33325ION     NA48456  16.428   7.377   5.978  0.1578 -0.0699  0.2411
33326ION     NA48457   2.861   7.545   5.975 -0.0057  0.1031  0.1173
33327ION     NA48458   8.420  16.195   6.760  0.1527 -0.0490 -0.4095
33328ION     NA48459   4.023  13.616  10.881 -0.2938  0.0101  0.4111
33329ION     NA48460   1.140   2.682  10.337  0.0836 -0.2326  0.1382
33330ION     NA48461   4.164  11.218   5.924 -0.1966 -0.0826 -0.4786
33331ION     NA48462  10.965   6.481   2.451 -0.0041 -0.2824  0.1718
33332ION     NA48463   2.331   3.648  10.257 -0.1600  0.3855  0.0907
33333ION     NA48464   0.314   1.530  10.764  0.1538 -0.1880 -0.1931
33334ION     NA48465   2.859   3.050  10.374 -0.0894 -0.0021 -0.2051
33335ION     NA48466  12.136   6.545  13.662  0.0599  0.1501  0.1987
33336ION     NA48467  13.200   8.487  10.360  0.3392  0.3064 -0.1039
33337ION     NA48468  17.460  17.692  13.114 -0.0536  0.2048 -0.0126
33338ION     NA48469  14.168   2.946  13.068  0.0834  0.0121 -0.0141
33339ION     NA48470   4.945   2.673  10.610  0.0221  0.1832  0.0023
33340ION     NA48471  10.451  13.733  10.875 -0.1712 -0.0046  0.1165
33341ION     NA48472   2.108   6.914  10.398 -0.1846  0.2884  0.1557
33342ION     NA48473  17.631   7.567  10.346  0.2391 -0.2790  0.0200
33343ION     NA48474   2.613   9.795  10.807 -0.3613  0.2562  0.2985
33344ION     NA48475  17.030  13.263  14.813  0.4252  0.2302  0.0831
33345ION     NA48476  10.592   1.978  14.207 -0.2277  0.1107  0.0832
33346ION     NA48477   5.784  13.006  11.066 -0.0237 -0.1091  0.1092
33347ION     NA48478  10.441   4.625  10.200  0.1630 -0.0855  0.1119
33348ION     NA48479   3.388   0.652  10.988  0.2721  0.2922  0.2476
33349ION     NA48480   9.808  10.937  10.901  0.0126 -0.1487 -0.1762
33350ION     NA48481  14.285   4.045   4.648  0.0685 -0.1666  0.0706
33351ION     NA48482   2.334   9.655   4.851  0.2067  0.1861  0.3068
33352ION     NA48483   9.668   9.583  12.763 -0.0823  0.0650  0.1754
33353ION     NA48484  10.356   1.715  11.019  0.4061 -0.2180  0.2227
33354ION     NA48485   5.659  10.566   0.915 -0.1636 -0.1029  0.2131
33355ION     NA48486  11.780   3.760  10.230 -0.2030  0.1310 -0.0904
33356ION     NA48487   2.024   6.229  10.716 -0.0071 -0.0683 -0.0977
33357ION     NA48488   3.476   7.300   5.945  0.0683 -0.1206  0.0793
33358ION     NA48489  14.302  12.110  10.888 -0.2438  0.0279  0.1381
33359ION     NA48490   9.713  11.929  10.566  0.1610 -0.0549 -0.0871
33360ION     NA48491  15.113  16.881  10.962 -0.0472 -0.2131  0.0585
33361ION     NA48492  16.680  11.038  10.727 -0.3373  0.1619 -0.0256
33362ION     NA48493   9.435  12.184   5.342 -0.5724  0.2079  0.0361
33363ION     NA48494   6.772  11.540  11.251  0.1278  0.2670  0.0929
33364ION     NA48495  13.845   8.588  16.620 -0.2466  0.1799  0.1581
33365ION     NA48496   4.025   0.091  10.966 -0.1062 -0.2358  0.1325
33366ION     NA48497  15.871   2.429  11.329 -0.1211  0.0510 -0.2516
33367ION     NA48498  12.692   4.659  12.167 -0.2806  0.2039 -0.1461
33368ION     NA48499  10.538  17.654  11.616  0.0287 -0.6066 -0.0467
33369ION     NA48500  14.465   8.912   5.858  0.1254  0.0582  0.0171
33370ION     NA48501   0.961  10.533  10.964  0.0810 -0.0499  0.0419
33371ION     NA48502   3.242  17.474  13.561  0.1347  0.0417  0.1604
33372ION     NA48503   9.023  10.712  15.864 -0.1919 -0.1510  0.0762
33373ION     NA48504  11.668   9.210  10.639 -0.3906 -0.0313 -0.1838
33374ION     NA48505   7.649  17.688  11.397 -0.1529 -0.2037 -0.0808
33375ION     NA48506  15.355   4.985  16.424  0.1899  0.0073 -0.1982
33376ION     NA48507   2.766   0.145  10.881  0.0467  0.5018  0.0308
33377ION     NA48508   8.152   9.514   6.484  0.1609  0.2793 -0.0108
33378ION     NA48509   8.939   5.961  15.052 -0.1382 -0.0037  0.1511
33379ION     NA48510   1.908   4.623   4.569 -0.0120  0.0190 -0.2178
33380ION     NA48511   8.297   1.413  10.930  0.1308 -0.0848  0.1321
33381ION     NA48512   7.863  12.431  10.614  0.1645  0.0715  0.0208
33382ION     NA48513  13.560   7.716  10.156  0.2115 -0.2624 -0.0837
33383ION     NA48514  14.104  10.044  10.391 -0.1606  0.0547 -0.1720
33384ION     NA48515   0.125   9.198  10.831 -0.0764 -0.1906  0.1333
33385ION     NA48516  10.238   7.596   4.829 -0.4671  0.1850  0.0729
33386ION     NA48517  10.128  13.011  16.761 -0.0294 -0.0372 -0.1003
33387ION     NA48518   9.451  10.036  10.747 -0.0262 -0.1637 -0.1640
33388ION     NA48519  14.874   7.881  10.306  0.2018  0.1691  0.2415
33389ION     NA48520   2.827  10.558  10.803  0.3573 -0.0544  0.0593
33390ION     NA48521  15.184   0.152  15.652 -0.1147 -0.0092 -0.1709
33391ION     NA48522  10.778  16.574   6.655  0.0564  0.0007  0.2630
33392ION     NA48523   6.948   7.452  10.350  0.3464 -0.3390  0.1514
33393ION     NA48524  10.920  15.030  10.987  0.0311  0.0223 -0.0254
33394ION     NA48525  10.080   3.197  10.511  0.0078  0.0494  0.1343
33395ION     NA48526  11.034  10.201  11.038  0.1258 -0.0694  0.2688
33396ION     NA48527   6.911  12.548  10.950  0.2802 -0.2981 -0.1781
33397ION     NA48528   6.296  14.032  15.036 -0.1186  0.4127  0.0101
33398ION     NA48529   1.789  10.321  10.916  0.1399 -0.1168 -0.1533
33399ION     NA48530  17.356   3.630   4.795  0.0584  0.1613  0.1229
33400ION     NA48531  14.268   7.169  10.399  0.1060 -0.0215  0.0083
33401ION     NA48532   5.573   4.264   1.703  0.0255 -0.2315 -0.1138
33402ION     NA48533   6.115  10.798   1.642 -0.1156 -0.0929  0.1586
33403ION     NA48534   7.754   7.433  10.536  0.0056  0.1697 -0.0477
33404ION     NA48535  13.346   1.177  10.782 -0.0858  0.1409  0.1882
33405ION     NA48536   6.009  12.141  10.940 -0.1414  0.1754 -0.1120
33406ION     NA48537   6.714   6.446  10.531 -0.0158  0.2448  0.0597
33407ION     NA48538  15.113  15.204  11.271 -0.0539  0.1903  0.1677
33408ION     NA48539   4.736  17.283   0.707 -0.0482  0.0146 -0.2134
33409ION     NA48540  13.131  16.052  14.772 -0.0629  0.0416  0.2739
33410ION     NA48541   2.202  12.582  13.490 -0.1461  0.1590 -0.0324
33411ION     NA48542   5.702  12.489   6.369  0.0151 -0.3477  0.1594
33412ION     NA48543   9.515  16.267  11.106  0.0756  0.1870 -0.0435
33413ION     NA48544  14.261   4.827  10.403  0.0811  0.1080 -0.1383
33414ION     NA48545   3.342   2.345  10.360  0.1480 -0.4531 -0.2337
33415ION     NA48546  14.903   4.176  10.130  0.1473 -0.0418 -0.2408
33416ION     NA48547  11.503  13.281  10.880 -0.1920  0.0279  0.1789
33417ION     NA48548  17.082   4.541   5.877 -0.2773 -0.0840 -0.3809
33418ION     NA48549  11.088   0.785   6.548 -0.1899  0.1038  0.2770
33419ION     NA48550  10.216  14.369   0.437 -0.0193  0.3280  0.1907
33420ION     NA48551   3.212   8.095  10.291 -0.0576 -0.1959  0.4094
33421ION     NA48552  12.711  10.580  10.342  0.2186 -0.0924 -0.0033
33422ION     NA48553   4.046  15.491   1.840  0.3294 -0.0869 -0.3324
33423ION     NA48554   3.626  14.564  10.832 -0.1172 -0.2810 -0.0460
33424ION     NA48555   5.191   6.465  10.251 -0.0918 -0.0232 -0.0575
33425ION     NA48556   3.854  17.167  14.241  0.1674  0.0480 -0.2226
33426ION     NA48557   4.500   1.799   5.731 -0.0868 -0.1272  0.0108
33427ION     NA48558   0.676  12.300  11.454  0.2318  0.1265 -0.0832
33428ION     NA48559  14.628   0.397  14.904 -0.0841  0.1682  0.2750
33429ION     NA48560   3.102   9.619  10.714 -0.1253 -0.0849  0.0802
33430ION     NA48561  15.248  13.823  11.260 -0.2539  0.2751 -0.1751
33431ION     NA48562   6.381  16.012   6.427 -0.0464  0.1591 -0.3649
33432ION     NA48563  10.936   4.852   5.589  0.0469  0.0153  0.0785
33433ION     NA48564   6.133   9.393   6.188  0.0619  0.1466 -0.0935
33434ION     NA48565   3.397   7.090  10.203  0.3862 -0.0693  0.0818
33435ION     NA48566   1.510   8.699   6.043 -0.1237  0.2772 -0.1526
33436ION     NA48567  15.950  13.211   6.568 -0.3753 -0.0807 -0.2085
33437ION     NA48568   3.658   7.483   4.374 -0.1580 -0.0602  0.2716
33438ION     NA48569  17.335  10.947   6.375  0.2421  0.1733 -0.3500
33439ION     NA48570  11.780  13.938  10.807  0.0012  0.1122 -0.0221
33440ION     NA48571  15.840  10.483   4.222  0.0984 -0.1798 -0.1760
33441ION     NA48572  12.286   4.390  10.465 -0.1019 -0.1741 -0.2127
33442ION     NA48573  10.170  12.824  10.744  0.1897  0.2277  0.1521
33443ION     NA48574  13.339   3.099   6.020 -0.1236 -0.1762  0.2773
33444ION     NA48575  14.268  14.852  10.867  0.1088  0.3036  0.1359
33445ION     NA48576   7.758  17.276   6.393  0.0254 -0.3335 -0.2032
33446ION     NA48577  12.947   1.995  10.510  0.3139 -0.2263 -0.0642
33447ION     NA48578  15.449  15.712  16.793  0.0085 -0.1240 -0.1917
33448ION     NA48579  13.543   7.389   1.220 -0.3548  0.0298  0.1713
33449ION     NA48580  13.535   4.711   6.018  0.2774 -0.2367  0.0963
33450ION     NA48581  14.342  15.626  11.028 -0.0332  0.0398  0.1412
33451ION     NA48582  13.156  15.477  10.949 -0.1940  0.1363  0.0017
33452ION     NA48583  11.463   6.322  10.060  0.2315  0.2843  0.0286
33453ION     NA48584  11.872  11.053  10.319  0.1250 -0.2598 -0.0229
33454ION     NA48585   7.745  16.010  11.191  0.0632  0.1319 -0.0949
33455ION     NA48586   2.618  11.762  15.557 -0.2601 -0.1323 -0.0049
33456ION     NA48587  17.675   5.127  10.238 -0.0026  0.2140  0.2758
33457ION     NA48588  13.646  17.154   0.901  0.4363 -0.2076  0.0042
33458ION     NA48589  13.642  12.312  10.598  0.1984  0.5441  0.1145
33459ION     NA48590   5.065   6.180  15.781 -0.2118 -0.0661  0.0380
33460ION     NA48591  16.871  14.658  10.850  0.0863  0.0301 -0.1549
33461ION     NA48592   0.495  13.301   6.077 -0.0181 -0.0325 -0.2312
33462ION     NA48593  10.439   7.914  10.538  0.1256  0.3320  0.0189
33463ION     NA48594   8.357   8.876  15.851 -0.1275 -0.1082 -0.0774
33464ION     NA48595  10.398   4.101   6.000 -0.2670 -0.2981 -0.1626
33465ION     NA48596  12.182  15.581  16.500 -0.2682 -0.1924  0.1264
33466ION     NA48597  11.047   8.966   6.253 -0.0018 -0.1223  0.0432
33467ION     NA48598  10.181  13.732   6.342  0.4708 -0.1048 -0.0658
33468ION     NA48599   5.118   9.475   6.442 -0.1316 -0.0663  0.0368
33469ION     NA48600  12.481   5.387  10.225 -0.1392  0.3853  0.2191
33470ION     NA48601   5.796  10.359   4.644 -0.2470  0.2808  0.3562
33471ION     NA48602   8.523   8.687   6.426  0.0845  0.0953  0.2229
33472ION     NA48603  11.522   4.104  15.263 -0.0544  0.0016 -0.0690
33473ION     NA48604  10.419   9.216  14.757  0.1049  0.2893 -0.2569
33474ION     NA48605  10.046  15.524  11.120  0.0192 -0.0529 -0.3351
33475ION     NA48606   3.631  13.383  13.929 -0.1045 -0.0392 -0.2242
33476ION     NA48607  15.671   5.971  10.255  0.1029  0.0899  0.1715
33477ION     NA48608   6.853  11.271  15.486 -0.0691  0.0820 -0.0490
33478ION     NA48609  16.121   6.443  11.607 -0.1287 -0.2851  0.0853
33479ION     NA48610  13.417  13.564  12.724  0.0595  0.0878 -0.2929
33480ION     NA48611  12.800  12.788  10.608  0.0648 -0.1608 -0.1017
33481ION     NA48612   7.531   2.643   3.909 -0.1295 -0.1482  0.0784
33482ION     NA48613   7.728  11.759   0.213 -0.3942  0.0485 -0.0325
33483ION     NA48614   8.771  11.867  10.718 -0.2384  0.1946  0.1762
33484ION     NA48615  12.592   2.368   6.297 -0.1644  0.1457  0.1105
33485ION     NA48616   0.831  11.836   0.830  0.0501 -0.0565  0.1563
33486ION     NA48617   3.523  11.253  15.623 -0.0929  0.2205 -0.1023
33487ION     NA48618   9.429   4.987  13.769 -0.1950  0.0206  0.0967
33488ION     NA48619   1.447   9.623  15.096  0.0839  0.1015 -0.5083
33489ION     NA48620   3.702  12.024  10.563 -0.3788  0.2333  0.2252
33490ION     NA48621   6.713   9.549  15.320 -0.0308  0.3059 -0.1606
33491ION     NA48622   6.143   2.746   2.216 -0.2048 -0.2317  0.0619
33492ION     NA48623   4.154   2.415  10.357  0.4163  0.0204  0.0362
33493ION     NA48624   5.778  17.141  11.236 -0.0059  0.0912 -0.2290
33494ION     NA48625  14.441   4.134   2.814 -0.0758  0.0221  0.1032
33495ION     NA48626  13.462   2.581   3.471 -0.0581  0.0589 -0.0655
33496ION     NA48627   8.391   7.012  10.339  0.0326  0.0324 -0.1168
33497ION     NA48628  16.225  10.654  10.646 -0.0071 -0.0688 -0.1703
33498ION     NA48629  11.937   4.636  10.157 -0.2553  0.1466  0.0935
33499ION     NA48630   4.297  10.493  10.843 -0.1317 -0.0292  0.2115
33500ION     NA48631  17.553   4.216  10.119 -0.2561 -0.2716  0.1227
33501ION     NA48632   8.811   4.439  10.489  0.1076  0.1811 -0.0307
33502ION     NA48633   9.218  16.651   3.665  0.3651 -0.1522 -0.1202
33503ION     NA48634  13.880   1.271   6.187 -0.0032 -0.1857  0.0220
33504ION     NA48635  12.480   9.428  10.587  0.0575  0.1130 -0.0271
33505ION     NA48636   2.768   9.204   3.754 -0.0537 -0.0357  0.0871
33506ION     NA48637  17.696  13.862  10.914 -0.1315  0.0769  0.1927
33507ION     NA48638   1.707  14.675   5.921 -0.0688 -0.2850 -0.0032
33508ION     NA48639   9.147   0.516   6.789 -0.0154  0.1003  0.1556
33509ION     NA48640  15.504   3.675  16.603  0.1528  0.0881  0.2576
33510ION     NA48641   1.235  14.702  10.837  0.0483  0.0091 -0.1019
33511ION     NA48642  12.841   8.948   5.758 -0.2636 -0.0362  0.0468
33512ION     NA48643   9.185  14.362   6.430  0.1216 -0.0631 -0.0550
33513ION     NA48644   9.088   2.942  10.719  0.1185 -0.0534  0.3171
33514ION     NA48645  11.651   8.535   5.863 -0.1281  0.1312 -0.0380
33515ION     NA48646   0.499  14.425  10.580 -0.0595  0.2899  0.1886
33516ION     NA48647   2.495  12.805   6.388  0.1658  0.0613  0.2300
33517ION     NA48648   1.324  12.374  16.022 -0.2454 -0.1276 -0.1102
33518ION     NA48649   2.431  15.589  10.740  0.1165 -0.1278 -0.1012
33519ION     NA48650  10.020  17.012  11.824 -0.0804  0.1588 -0.1452
33520ION     NA48651  16.678   3.925  10.131  0.3470  0.0461  0.0484
33521ION     NA48652   7.589   6.775   2.348  0.3589 -0.2019 -0.1613
33522ION     NA48653  14.968   4.949   3.599  0.0837  0.1246 -0.0838
33523ION     NA48654   9.336  12.614  10.657 -0.2512  0.1359  0.0360
33524ION     NA48655  10.832   2.650  10.551  0.2130  0.1730  0.0818
33525ION     NA48656  13.163  16.774   6.304  0.0455  0.0441  0.0703
33526ION     NA48657   4.763  12.474   6.456  0.1407  0.2184 -0.0733
33527ION     NA48658   6.739  16.957  11.137 -0.2075 -0.1222  0.0169
33528ION     NA48659   9.047  15.594  11.425  0.1066  0.0933 -0.1211
33529ION     NA48660  11.073   0.275  15.162  0.0385  0.3521 -0.1106
33530ION     NA48661   5.137   3.744   5.755 -0.0340  0.0533 -0.2039
33531ION     NA48662   1.911   4.964  11.988  0.1293  0.1260  0.1264
33532ION     NA48663   1.002   5.570  13.910 -0.0171  0.1150 -0.0547
33533ION     NA48664  13.010  16.119   0.823  0.3330  0.1968 -0.1373
33534ION     NA48665   7.812   2.387  14.076 -0.0180  0.3641 -0.2659
33535ION     NA48666   4.737  13.100  10.940 -0.1151 -0.0748  0.0102
33536ION     NA48667   4.845  10.868  11.051 -0.0229 -0.0014  0.1184
33537ION     NA48668  17.106   1.944   2.782  0.0794 -0.3127  0.1800
33538ION     NA48669  15.037   7.023  10.308 -0.2127 -0.1986  0.0986
33539ION     NA48670  12.209   1.508  10.748 -0.1149  0.3000  0.0043
33540ION     NA48671   4.595  12.100  10.807 -0.0694  0.0660  0.0161
33541ION     NA48672  17.713  13.422  11.215 -0.0821  0.1438 -0.0345
33542ION     NA48673  13.637  10.909  10.423 -0.0688  0.2061  0.0781
33543ION     NA48674   4.231   8.734  10.627  0.1420 -0.5316  0.0643
33544ION     NA48675   5.777   3.226  10.577 -0.1161 -0.3951  0.3871
33545ION     NA48676   9.991  17.065  14.292  0.2757  0.2144 -0.3029
33546ION     NA48677   9.506   1.453  11.215  0.0935 -0.1837  0.2244
33547ION     NA48678  13.434  11.469  10.450  0.2100 -0.3244  0.0652
33548ION     NA48679   2.496   2.162  10.410 -0.0557  0.1667  0.0751
33549ION     NA48680   2.576  11.115   6.546 -0.1603 -0.0287  0.0390
33550ION     NA48681  15.740   6.560   1.089  0.3032 -0.0722 -0.1654
33551ION     NA48682   6.503   3.141  12.679 -0.0815  0.2337 -0.1194
33552ION     NA48683   0.583   4.647  10.158 -0.0049  0.0284  0.2172
33553ION     NA48684   3.578  17.330  10.946  0.4067  0.0020 -0.1806
33554ION     NA48685   0.994   6.197  10.235  0.0275  0.1238  0.0605
33555ION     NA48686   3.974  11.296  10.735  0.1933  0.0242  0.0122
33556ION     NA48687  15.363   5.556   6.068 -0.2505 -0.1460  0.4095
33557ION     NA48688   5.448   4.462  15.815  0.0659  0.1439  0.0784
33558ION     NA48689   3.885  13.473  11.321  0.1989 -0.1458 -0.0213
33559ION     NA48690   4.457  14.448   6.413 -0.0628 -0.1113 -0.0118
33560ION     NA48691   9.455  15.718  16.927 -0.5429 -0.1199 -0.0984
33561ION     NA48692   0.615  10.184   5.602  0.1395  0.4297 -0.0357
33562ION     NA48693   6.882   0.228  10.883 -0.3852 -0.0790  0.0606
33563ION     NA48694  15.288  10.743  11.004  0.1845 -0.0757 -0.1147
33564ION     NA48695  11.570  16.701  15.653 -0.1145  0.1473  0.0707
33565ION     NA48696   2.469   4.595  15.594  0.1486  0.0101 -0.2581
33566ION     NA48697  15.975   3.805   4.788  0.0511 -0.0265  0.2102
33567ION     NA48698  13.712  10.782   6.138  0.0179 -0.1276 -0.1643
33568ION     NA48699  15.672   2.619  10.510  0.0416 -0.1433 -0.2070
33569ION     NA48700   1.190   6.266   5.681 -0.2032  0.1502  0.3287
33570ION     NA48701  13.119   3.218   0.895  0.0923 -0.0797 -0.3408
33571ION     NA48702   3.358   2.038   6.232  0.1570 -0.3299 -0.1761
33572ION     NA48703  11.284   8.405  10.532  0.0588  0.3281 -0.1217
33573ION     NA48704  10.398   6.889   0.202 -0.0586  0.2212  0.1124
33574ION     NA48705   1.875   4.211  16.737 -0.2315  0.5087  0.1905
33575ION     NA48706   1.263   7.702   6.153  0.2529 -0.1984 -0.1008
33576ION     NA48707  16.888  13.845  10.840 -0.1604  0.4174  0.0556
33577ION     NA48708   1.617   3.641  10.103 -0.1872 -0.4222 -0.1459
33578ION     NA48709   7.455   4.927  10.111 -0.1292 -0.2235  0.2063
33579ION     NA48710  12.619  11.099  10.342 -0.1743 -0.2979 -0.2469
33580ION     NA48711   4.661  15.807   2.818 -0.3874 -0.2919 -0.1053
33581ION     NA48712   8.592  15.121   0.152  0.1458  0.0727  0.2312
33582ION     NA48713   4.969   9.596  10.746 -0.2296 -0.1999  0.2908
33583ION     NA48714  10.085   5.462  10.125 -0.1361 -0.1951 -0.0034
33584ION     NA48715   0.866  14.287   1.831  0.0321  0.0625  0.1009
33585ION     NA48716   2.073   1.486  10.619  0.1744 -0.0682  0.0845
33586ION     NA48717   4.735   1.781  10.421 -0.0694 -0.3401 -0.0693
33587ION     NA48718   4.343   5.217  11.618 -0.0567 -0.0034  0.1187
33588ION     NA48719  14.979   6.945   1.242  0.0894  0.1397 -0.2768
33589ION     NA48720  15.217  14.323   6.500  0.0295 -0.3627 -0.1555
33590ION     NA48721   6.064   0.121   5.355  0.2185  0.2334 -0.1307
33591ION     NA48722   8.367   5.898   6.155  0.2414 -0.1869  0.1856
33592ION     NA48723   7.860  13.030   6.202  0.3109  0.2693  0.0728
33593ION     NA48724   3.772   0.054  15.781  0.2756  0.0260 -0.0389
33594ION     NA48725   4.615  16.275  14.554  0.0247 -0.3310  0.2251
33595ION     NA48726  11.237   3.013   5.401  0.0417 -0.0906 -0.0271
33596ION     NA48727   3.091   1.601  10.697  0.0448  0.1083 -0.2600
33597ION     NA48728   6.998  12.441  15.465  0.0668 -0.3437  0.0655
33598ION     NA48729   8.041  14.674  11.094 -0.1562  0.2326  0.0297
33599ION     NA48730  11.928  10.185  10.589  0.1066  0.1290 -0.3180
33600ION     NA48731  16.039  11.701  12.587 -0.3784  0.1264  0.1811
33601ION     NA48732   9.241  13.118  13.298  0.4046  0.0609  0.0750
33602ION     NA48733  15.335   9.613   3.945  0.0066 -0.0458  0.1450
33603ION     NA48734   4.258   6.752  10.163  0.5029  0.0673 -0.0549
33604ION     NA48735  14.603  14.549  11.069  0.0670 -0.2787 -0.1280
33605ION     NA48736  10.654   3.852  10.329  0.2373  0.0035 -0.1343
33606ION     NA48737  13.966   5.499  10.597 -0.1406  0.2986 -0.1065
33607ION     NA48738   7.734  16.926  10.924  0.1047 -0.1800 -0.0815
33608ION     NA48739  11.741  16.447  10.845  0.2168 -0.4330 -0.1807
33609ION     NA48740   0.656   0.731  10.635 -0.0686 -0.0324  0.0054
33610ION     NA48741   6.762  13.396  11.111 -0.2459 -0.0291  0.0953
33611ION     NA48742   0.991   9.349  10.536  0.0375 -0.0141  0.0579
33612ION     NA48743   1.071  15.868   1.995 -0.2311  0.1517 -0.1455
33613ION     NA48744  15.352   1.499  10.410 -0.0229  0.0059 -0.3450
33614ION     NA48745   0.027  16.775  10.814  0.0630 -0.1471 -0.4198
33615ION     NA48746  14.035  11.562   1.410 -0.0930  0.1794  0.1715
33616ION     NA48747  16.002   8.991  10.272 -0.1350  0.0391  0.2982
33617ION     NA48748  16.347   1.238  10.537  0.2829  0.2269 -0.0590
33618ION     NA48749  12.387   7.887  10.295  0.0428  0.1601  0.2580
33619ION     NA48750   7.602   8.802  10.596 -0.0633 -0.1613  0.2050
33620ION     NA48751  17.074  12.263  10.565  0.1873 -0.1194 -0.0058
33621ION     NA48752   1.181   5.496  10.184 -0.3549 -0.1117 -0.0342
33622ION     NA48753   6.238  15.011  10.974 -0.0210 -0.0025  0.1593
33623ION     NA48754  11.918  10.675  15.335 -0.0067  0.0479  0.0661
33624ION     NA48755   2.300   8.850  10.854 -0.2474  0.1065  0.2199
33625ION     NA48756   1.870  12.621  10.775 -0.2379  0.1160  0.1655
33626ION     NA48757  12.917   1.741  15.430 -0.1020 -0.1914 -0.2024
33627ION     NA48758   6.230   8.479  10.706  0.0155  0.0934  0.0214
33628ION     NA48759  12.236  15.626  10.902  0.1172  0.0424  0.0006
33629ION     NA48760   0.736   3.729   3.762  0.2137 -0.0948 -0.2888
33630ION     NA48761   1.441   1.962  12.187  0.3015 -0.1379 -0.3589
33631ION     NA48762  15.010   8.868  11.987 -0.1969 -0.1620 -0.1444
33632ION     NA48763  14.663  16.053   0.085 -0.1566 -0.2835 -0.0038
33633ION     NA48764  16.044  15.097  11.137  0.0236 -0.0506 -0.0836
33634ION     NA48765  17.268   3.306  10.475 -0.1938 -0.2160  0.4741
33635ION     NA48766  16.689   9.665   0.814 -0.0071 -0.0158 -0.0972
33636ION     NA48767   9.552   3.750  10.284  0.0149 -0.1193 -0.3011
33637ION     NA48768   0.842  17.539  16.082  0.3874 -0.1512 -0.1294
33638ION     NA48769   9.001   9.434  10.792 -0.1861  0.1163 -0.1091
33639ION     NA48770  16.735   9.691  10.285 -0.3130 -0.0354  0.0182
33640ION     NA48771   4.567  17.099  10.933 -0.0395  0.1052 -0.0570
33641ION     NA48772  11.596  14.576   1.693 -0.3317  0.0661 -0.2721
33642ION     NA48773  11.493   5.474  10.035  0.1232  0.2407 -0.0463
33643ION     NA48774  10.849   9.186  10.777 -0.0139  0.1267  0.0910
33644ION     NA48775  15.187   1.252   6.200 -0.1793  0.0179  0.1090
33645ION     NA48776   9.007  13.831  15.734 -0.1425 -0.0097 -0.2726
33646ION     NA48777   0.106   6.592  10.232 -0.1445  0.2385 -0.1242
33647ION     NA48778   7.526   1.157  13.149 -0.0899  0.1565 -0.3762
33648ION     NA48779  17.495   6.236  12.642  0.0694  0.1375 -0.1204
33649ION     NA48780  10.054  14.456  11.126  0.1915 -0.2345  0.1644
33650ION     NA48781   8.820   8.677  10.746  0.4485  0.1265 -0.2532
33651ION     NA48782   6.744  14.007   1.587  0.3070 -0.2427  0.0311
33652ION     NA48783   2.815  11.299  10.974  0.1849 -0.1223 -0.2642
33653ION     NA48784   9.714   0.125  11.559 -0.1659  0.0519  0.0322
33654ION     NA48785   1.193   4.586  10.160 -0.1938  0.0645  0.2577
33655ION     NA48786   4.370   5.885  10.228  0.0579  0.2668  0.2300
33656ION     NA48787   0.050  10.775  11.470 -0.0322 -0.1719 -0.1466
33657ION     NA48788   9.246   7.081  10.570 -0.2039 -0.0179  0.0539
33658ION     NA48789   8.771  13.471  10.808  0.0887 -0.2428 -0.2178
33659ION     NA48790  12.105  14.596   6.409  0.0194  0.0155 -0.1015
33660ION     NA48791  13.313   5.795  10.547  0.1143 -0.1699 -0.3296
33661ION     NA48792   4.350  11.957   6.581  0.2471  0.0535  0.2790
33662ION     NA48793   2.193   8.086   5.978 -0.0592  0.0156 -0.2693
33663ION     NA48794   7.923  14.667  16.509 -0.4235 -0.2032  0.1933
33664ION     NA48795   2.222   4.544  10.407  0.1424 -0.0808 -0.0262
33665ION     NA48796   4.020   3.522   2.413 -0.2861  0.3912 -0.3081
33666ION     NA48797   8.426   3.505   1.122  0.0588 -0.0431  0.1264
33667ION     NA48798  12.326   7.056  10.469  0.1934  0.2244 -0.1802
33668ION     NA48799   3.535  17.404   6.326  0.1803 -0.0614 -0.0369
33669ION     NA48800   9.967   4.611  16.315 -0.1777 -0.0280 -0.1975
33670ION     NA48801  14.174  17.169  10.936  0.1492  0.0866  0.3256
33671ION     NA48802   6.318  17.267  10.843 -0.3049 -0.1991  0.0527
33672ION     NA48803   2.735  12.707  14.421 -0.3383 -0.0348  0.1018
33673ION     NA48804   0.903   3.394   1.012  0.1995  0.0271  0.2118
33674ION     NA48805  15.247   3.437  10.296  0.0371  0.1531 -0.4348
33675ION     NA48806   5.552  16.225  10.983  0.1258 -0.0269  0.0103
33676ION     NA48807  16.946   5.201   5.446  0.2954 -0.1475  0.0124
33677ION     NA48808   5.784  14.609  12.326 -0.1676 -0.0239  0.1306
33678ION     NA48809   1.678  14.399  10.890 -0.0443 -0.3071  0.0268
33679ION     NA48810   4.760  14.785  11.090  0.0791  0.0070 -0.2084
33680ION     NA48811   7.309  15.059  11.155  0.2266 -0.0624  0.0206
33681ION     NA48812  13.227  12.295  10.905  0.2441 -0.3035 -0.1039
33682ION     NA48813  16.033   5.150  10.325  0.0041 -0.0358 -0.0919
33683ION     NA48814  16.157  16.438  11.013 -0.0155  0.1450  0.0715
33684ION     NA48815  14.045   7.733   5.556  0.1087 -0.0605  0.0454
33685ION     NA48816  15.183   8.829  10.364 -0.3189  0.2160 -0.0364
33686ION     NA48817   1.637  17.103  10.687  0.0431 -0.1351 -0.1480
33687ION     NA48818   9.502   7.359   5.990 -0.3926  0.1031 -0.0203
33688ION     NA48819  14.258  13.643  10.952  0.1089 -0.0057  0.2462
33689ION     NA48820  12.051  12.344  10.633 -0.1171 -0.0419  0.0489
33690ION     NA48821  14.065   8.953  10.212 -0.2627 -0.0771 -0.2200
33691ION     NA48822   2.551   7.491  16.580  0.0435 -0.1390 -0.2147
33692ION     NA48823  15.166  11.738  10.912 -0.1570  0.0988 -0.0745
33693ION     NA48824  17.182   8.508  10.328  0.2184  0.3555 -0.1743
33694ION     NA48825   3.050   5.401   5.599 -0.1176  0.0868  0.0041
33695ION     NA48826   2.013  11.265  10.858 -0.0607  0.0845  0.0823
33696ION     NA48827  11.202  10.860   1.531  0.1087 -0.2305 -0.3207
33697ION     NA48828   2.018  12.857   6.268 -0.0801 -0.1484 -0.0052
33698ION     NA48829   8.587   6.016  10.218 -0.2590  0.1554  0.1711
33699ION     NA48830  10.940  11.362  10.595  0.0899  0.1827 -0.2837
33700ION     NA48831  10.094   0.859  11.246  0.2004  0.2135 -0.2265
33701ION     NA48832   4.530  15.699  10.987 -0.1956 -0.0354  0.0203
33702ION     NA48833   6.008   1.097   6.447  0.0632 -0.1548 -0.3935
33703ION     NA48834   7.602   2.593  13.162 -0.1073  0.1527  0.1162
33704ION     NA48835  10.244  10.247   3.127  0.0610 -0.2919  0.2555
33705ION     NA48836  17.455  14.700  10.845 -0.0373 -0.0255  0.1175
33706ION     NA48837   7.347   8.027   0.043  0.1236 -0.2535  0.1083
33707ION     NA48838   9.702   6.839  15.139 -0.2195  0.0112  0.2912
33708ION     NA48839   1.013  12.315  10.889  0.1061 -0.0166  0.0247
33709ION     NA48840  15.102   1.428  16.294  0.1160  0.3003 -0.1811
33710ION     NA48841   1.552   6.534  16.497  0.2498  0.2892 -0.1208
33711ION     NA48842   9.202  12.340   5.785 -0.0360  0.0709  0.2513
33712ION     NA48843  15.767   4.206  10.224  0.2397 -0.2536  0.1485
33713ION     NA48844  11.063  12.458  10.607 -0.1176  0.0077  0.1115
33714ION     NA48845   1.600   1.226  15.243  0.2075 -0.0084 -0.1561
33715ION     NA48846  16.708   7.702  10.259 -0.1388  0.0291 -0.1985
33716ION     NA48847   1.645   6.199   5.901  0.0536  0.2402  0.1413
33717ION     NA48848   0.754  17.129  10.652  0.0269  0.0797 -0.1142
33718ION     NA48849   0.616   1.818   2.235  0.0800  0.4794  0.1030
33719ION     NA48850   4.783  16.155  10.969 -0.1121  0.3667 -0.2396
33720ION     NA48851   3.376   9.909   6.258 -0.2806 -0.1105  0.1811
33721ION     NA48852   3.296  13.211   6.191 -0.3144  0.2179 -0.0653
33722ION     NA48853  16.567  17.348  10.926  0.0335 -0.0974 -0.0713
33723ION     NA48854   9.271   5.406  10.209  0.1751 -0.0244  0.2799
33724ION     NA48855  16.168  12.174  10.773 -0.0663 -0.0432 -0.0543
33725ION     NA48856   8.684  17.342   2.367  0.2154  0.1779 -0.0479
33726ION     NA48857   3.421   3.714   1.772  0.0974  0.1605 -0.1973
33727ION     NA48858  16.013   6.994  10.269 -0.2151  0.0188 -0.0667
33728ION     NA48859  16.135   1.729  10.494 -0.0542 -0.0805 -0.1367
33729ION     NA48860   2.841  16.123  10.893  0.1251  0.0994 -0.0571
33730ION     NA48861   4.949  14.866   2.776 -0.0772  0.0298 -0.4014
33731ION     NA48862   7.153   5.681  10.262  0.0217 -0.2678 -0.1239
33732ION     NA48863  10.932   7.098  10.480 -0.1570 -0.1760 -0.1026
33733ION     NA48864   1.563  15.427  10.905 -0.0279  0.1321  0.3524
33734ION     NA48865  12.721   3.753   5.817  0.2789 -0.0553 -0.0527
33735ION     NA48866   0.399  16.504   6.172  0.0322  0.0003 -0.0129
33736ION     NA48867   0.946  16.150  10.847 -0.1148  0.3234  0.0209
33737ION     NA48868   0.044  16.037  10.901  0.1569 -0.4769  0.1356
33738ION     NA48869   5.657   9.176  11.210  0.0656 -0.0982  0.1628
33739ION     NA48870   7.688   4.150  10.558  0.0235 -0.1527  0.1338
33740ION     NA48871   1.544  15.869  16.793 -0.0175 -0.0138  0.3585
33741ION     NA48872  15.551  10.889  10.570  0.0147 -0.0759 -0.0732
33742ION     NA48873   3.961   4.294  15.295  0.0783  0.2577  0.0181
33743ION     NA48874  12.880   4.702  13.788  0.0508  0.4206 -0.0424
33744ION     NA48875  15.208   0.232  10.749  0.0333  0.1695 -0.2687
33745ION     NA48876  17.251  15.504  11.180 -0.0503 -0.3188  0.4839
33746ION     NA48877   8.510  10.960  10.679 -0.0305  0.1394 -0.1857
33747ION     NA48878  12.010  11.571  13.140 -0.1299 -0.1565 -0.1455
33748ION     NA48879  14.263  16.272   2.180  0.3424 -0.0721  0.1653
33749ION     NA48880  15.198  16.045  10.942 -0.0800 -0.2675 -0.0993
33750ION     NA48881   9.663  10.977   1.650 -0.0875  0.2786  0.3141
33751ION     NA48882   8.671   9.027   2.424  0.2000  0.1687  0.1438
33752ION     NA48883   6.033  11.066  11.551  0.1756 -0.2193 -0.1582
33753ION     NA48884  13.784   6.574  13.096  0.0811 -0.1884  0.1318
33754ION     NA48885  14.490  11.170  10.496  0.0570  0.0182 -0.0027
33755ION     NA48886   5.890   0.429  10.836  0.0583  0.1464  0.0184
33756ION     NA48887   4.749   9.619   4.126 -0.2430  0.1272 -0.2568
33757ION     NA48888   0.778   5.510   0.348 -0.3083 -0.1444  0.1141
33758ION     NA48889   0.464   5.827   2.804  0.2038  0.1897 -0.0038
33759ION     NA48890   0.543  15.317  10.758 -0.1224  0.0958  0.0900
33760ION     NA48891  10.750   6.237  10.243 -0.2113 -0.3242  0.1340
33761ION     NA48892  10.752   2.116   5.801  0.0956 -0.0661  0.2192
33762ION     NA48893  11.670  14.912  11.655  0.0221 -0.0730  0.1640
33763ION     NA48894  13.121  16.932  11.415  0.1809 -0.0832 -0.1766
33764ION     NA48895   2.256  13.573   1.348  0.1901  0.0888 -0.1465
33765ION     NA48896   7.995  14.448   6.522 -0.1855  0.0044  0.3475
33766ION     NA48897   7.562   3.120  10.648  0.0571  0.4018  0.1695
33767ION     NA48898  16.424   0.626  10.737  0.1278  0.1558  0.4375
33768ION     NA48899  16.579   3.124   1.452  0.1506 -0.1074  0.2245
33769ION     NA48900   9.255   0.554  11.226  0.0017 -0.0459  0.0113
33770ION     NA48901   5.149   0.898  10.796  0.0996 -0.1499 -0.0666
33771ION     NA48902   8.340   8.017  10.525  0.3289  0.0860 -0.2581
33772ION     NA48903  11.324   4.426   0.827  0.2934  0.2831  0.0762
33773ION     NA48904  12.419  10.503   1.938 -0.2820 -0.0741  0.2261
33774ION     NA48905  14.155  15.433   6.320 -0.2807  0.1140 -0.0446
33775ION     NA48906   6.922   9.271  10.655 -0.0381 -0.2099 -0.1121
33776ION     NA48907   9.623   4.549   5.710  0.0590  0.1460  0.0420
33777ION     NA48908   2.342  13.320  11.323 -0.2301 -0.3322 -0.0808
33778ION     NA48909   1.163   1.520  10.431  0.0342 -0.1234 -0.0290
33779ION     NA48910   8.454   3.086   2.005 -0.1483  0.2896  0.1288
33780ION     NA48911   6.927  10.756  10.985  0.0146 -0.0583 -0.0892
33781ION     NA48912   5.483   8.756  10.315  0.0179  0.0867 -0.2505
33782ION     NA48913   4.892   4.022  10.196  0.0262  0.2334 -0.0157
33783ION     NA48914  11.853  17.060  11.137 -0.2320 -0.1756 -0.0565
33784ION     NA48915   2.633   6.196  10.159  0.0561 -0.2229  0.1805
33785ION     NA48916   1.524   5.293   2.586 -0.0099 -0.1391 -0.0342
33786ION     NA48917  12.393  16.346  12.276 -0.0405  0.1656  0.2009
33787ION     NA48918   3.980   9.691  10.816 -0.1728  0.1148  0.0211
33788ION     NA48919  16.576  12.946  10.931  0.4672  0.0316 -0.1729
33789ION     NA48920  11.329   4.447  10.141  0.1965  0.2112  0.0726
33790ION     NA48921   6.756   3.527  10.427  0.1121  0.1164  0.0160
33791ION     NA48922   7.093   6.232  13.998 -0.0757  0.0581  0.0709
33792ION     NA48923  15.216   8.338   5.986  0.0007 -0.2431 -0.3767
33793ION     NA48924   8.375   9.623  14.866 -0.1685 -0.2239 -0.1075
33794ION     NA48925  13.149   0.252  10.659  0.1181 -0.1293 -0.1404
33795ION     NA48926  12.740   3.651  10.401 -0.4112  0.0223 -0.1065
33796ION     NA48927   8.946  14.006  13.030 -0.1412  0.0171  0.0637
33797ION     NA48928  16.422   6.246  10.310  0.3177  0.2237 -0.0248
33798ION     NA48929   9.936   2.231  10.686 -0.2213  0.2241  0.2125
33799ION     NA48930   3.172  13.670  10.857 -0.1193  0.0233  0.0326
33800ION     NA48931  15.166   5.120  10.158 -0.0123 -0.0030  0.1021
33801ION     NA48932  17.522   3.296   1.807  0.0088  0.0764 -0.0345
33802ION     NA48933  11.085   5.782   3.022 -0.0036 -0.1641 -0.2196
33803ION     CL48934  15.484   0.818  16.323 -0.1692  0.1495  0.4471
33804ION     CL48935   9.980  12.564  14.200 -0.2012  0.2114  0.0017
33805ION     CL48936   8.263   1.790   2.120 -0.2040  0.0240 -0.3527
33806ION     CL48937   7.052   2.808   3.924  0.0192  0.2780  0.0820
33807ION     CL48938  15.076   0.169  14.790  0.1107  0.0588 -0.2007
33808ION     CL48939   9.428   0.746   1.589  0.0254 -0.1027  0.1538
33809ION     CL48940  16.015  12.004  13.055  0.0532 -0.2224  0.1088
33810ION     CL48941   4.758   4.299  11.812 -0.2091 -0.0558  0.1805
33811ION     CL48942  16.536   7.738   2.932  0.2220 -0.0602  0.1772
33812ION     CL48943   2.474  17.606  13.939 -0.1940  0.0341  0.1663
33813ION     CL48944   8.130  14.874   0.090  0.1382  0.1304  0.1497
33814ION     CL48945  16.979  13.840  15.254  0.1870  0.1584  0.3406
33815ION     CL48946  15.814  16.261   4.117  0.1081  0.3128 -0.0094
33816ION     CL48947   5.105  11.200  14.208  0.0449 -0.2165 -0.2311
  17.71413  17.71413  16.94079
